Title
82283
    1SAPS     N    1   3.426   2.168  11.167  0.2609 -0.3598 -0.0021
    1SAPS   HN1    2   3.523   2.141  11.194 -0.0563 -0.2580  1.2683
    1SAPS   HN2    3   3.378   2.087  11.122 -1.5483 -0.6253  2.3420
    1SAPS   HN3    4   3.449   2.247  11.104  2.0748  0.0776  1.1779
    1SAPS   C12    5   3.350   2.204  11.293  0.3577 -0.2081  0.2026
    1SAPS  H12A    6   3.329   2.108  11.335  0.3499 -0.1167  0.4071
    1SAPS   C13    7   3.417   2.297  11.395  0.2229 -0.1713 -0.7424
    1SAPS  O13A    8   3.527   2.345  11.361  0.1095  0.3504  0.5357
    1SAPS  O13B    9   3.358   2.337  11.497 -0.2649 -0.3569 -0.4497
    1SAPS   C11   10   3.219   2.269  11.251  0.3734  0.0908 -0.0663
    1SAPS  H11A   11   3.174   2.311  11.343  2.1655  0.3156  0.7292
    1SAPS  H11B   12   3.146   2.197  11.207 -0.2996  0.7898 -0.0950
    1SAPS     P   13   3.115   2.429  11.068  0.0841  0.1898  0.3985
    1SAPS   O13   14   2.983   2.427  11.140  0.7725 -0.7193  0.1455
    1SAPS   O14   15   3.159   2.562  11.016  0.1793 -0.1391  0.0601
    1SAPS   O12   16   3.235   2.376  11.156 -0.1884 -0.0812 -0.4572
    1SAPS   O11   17   3.109   2.326  10.949 -0.1553  0.1482  0.0689
    1SAPS    C1   18   3.215   2.298  10.854 -0.1503 -0.4791  0.8496
    1SAPS    HA   19   3.317   2.323  10.888  0.4302  0.4901 -1.5045
    1SAPS    HB   20   3.234   2.190  10.836  0.5227 -0.4233  1.2215
    1SAPS    C2   21   3.190   2.379  10.720 -0.3967 -0.2171  0.0208
    1SAPS    HS   22   3.205   2.487  10.744  0.4022  0.1627 -2.1087
    1SAPS   O21   23   3.052   2.360  10.675 -0.7538  0.1870 -0.0194
    1SAPS   C21   24   2.996   2.449  10.592  1.1934  0.2237 -0.0081
    1SAPS   O22   25   3.052   2.550  10.555  0.4038  0.2520 -0.4653
    1SAPS   C22   26   2.858   2.391  10.541 -0.1866  0.3465  0.0419
    1SAPS   H2R   27   2.882   2.293  10.496 -0.8300  1.1487 -2.0859
    1SAPS   H2S   28   2.804   2.364  10.635 -1.4552 -0.6889 -0.9639
    1SAPS    C3   29   3.295   2.335  10.610 -0.1541 -0.5225  0.2760
    1SAPS    HX   30   3.303   2.224  10.612  1.0501 -0.4299  1.1390
    1SAPS    HY   31   3.396   2.371  10.641  0.5857 -2.6717  0.4932
    1SAPS   O31   32   3.258   2.376  10.478  0.2029 -0.0030  0.5765
    1SAPS   C31   33   3.329   2.493  10.441  0.4234 -0.3784  0.3105
    1SAPS   O32   34   3.413   2.547  10.510 -0.4528  0.7420  0.4356
    1SAPS   C32   35   3.285   2.536  10.306 -0.4296 -0.1493 -0.7949
    1SAPS   H2X   36   3.215   2.623  10.307  1.0237  1.0608  2.0718
    1SAPS   H2Y   37   3.237   2.448  10.257  2.0033 -1.1311 -1.4553
    1SAPS   C23   38   2.785   2.491  10.446 -0.7024  0.1286 -0.4741
    1SAPS   H3R   39   2.779   2.596  10.479  2.3873  0.7577 -1.7344
    1SAPS   H3S   40   2.680   2.460  10.430 -1.5720  1.4339  2.3120
    1SAPS   C24   41   2.847   2.498  10.300  0.0095 -0.5608 -0.3318
    1SAPS   H4R   42   2.950   2.537  10.311 -0.7494  0.9325  1.8075
    1SAPS   H4S   43   2.788   2.571  10.241 -2.1556 -1.6860  0.3672
    1SAPS   C25   44   2.853   2.364  10.233  0.1503 -0.0815 -0.8064
    1SAPS   H5R   45   2.924   2.291  10.274 -1.7910 -0.4048  2.1020
    1SAPS   C26   46   2.770   2.330  10.135 -0.0505 -0.1346  0.0347
    1SAPS   H6R   47   2.792   2.236  10.082 -0.1543 -0.7859  1.1205
    1SAPS   C27   48   2.661   2.407  10.077  0.0400 -0.0424 -0.4196
    1SAPS   H7R   49   2.721   2.444   9.991  0.0846 -1.1491 -0.8796
    1SAPS   H7S   50   2.619   2.489  10.138 -0.9351  0.4909 -1.7728
    1SAPS   C28   51   2.546   2.323  10.035 -0.4778 -0.0452  0.1196
    1SAPS   H8R   52   2.502   2.253  10.108  1.0759 -1.0419  0.1256
    1SAPS   C29   53   2.485   2.337   9.917  0.1550 -0.0903  0.2373
    1SAPS   H9R   54   2.385   2.291   9.914 -0.1049  0.3103  1.9867
    1SAPS  C210   55   2.520   2.426   9.803  0.4095 -0.1891  0.0095
    1SAPS  H10R   56   2.522   2.531   9.840 -0.9151 -0.3348  0.5446
    1SAPS  H10S   57   2.434   2.431   9.733  0.5485 -0.4834 -0.1849
    1SAPS  C211   58   2.643   2.366   9.731  0.0489 -0.4622 -0.7631
    1SAPS  H11R   59   2.737   2.398   9.778 -1.9429  0.5308  2.7350
    1SAPS  C212   60   2.643   2.300   9.617 -0.0040  0.2481  0.4066
    1SAPS  H12R   61   2.740   2.276   9.571  1.4475  0.5380  3.2288
    1SAPS  C213   62   2.520   2.261   9.533 -0.0604  0.2358 -0.2998
    1SAPS  H13R   63   2.443   2.227   9.606  0.8752  2.2731  1.7197
    1SAPS  H13S   64   2.547   2.170   9.476  1.5175 -0.3752  1.3756
    1SAPS  C214   65   2.459   2.364   9.446 -0.0245 -0.3435  0.3414
    1SAPS  H14R   66   2.404   2.444   9.499  0.5225  2.1047 -2.6377
    1SAPS  C215   67   2.465   2.370   9.310 -0.0844  0.1522  0.5760
    1SAPS  H15R   68   2.415   2.453   9.258 -1.6334 -0.6411  0.7614
    1SAPS  C216   69   2.528   2.275   9.211  1.1450  0.8098 -0.0566
    1SAPS  H16R   70   2.451   2.238   9.141  0.6675  2.0341 -0.1858
    1SAPS  H16S   71   2.565   2.180   9.255  0.3251 -0.6770 -2.4903
    1SAPS  C217   72   2.646   2.334   9.134 -0.5021  0.0618 -0.0116
    1SAPS  H17R   73   2.723   2.257   9.115  0.9661  1.4537  0.1483
    1SAPS  H17S   74   2.703   2.402   9.200  0.0270 -0.8110  0.4247
    1SAPS  C218   75   2.610   2.412   9.007  0.0773 -0.4151 -0.0473
    1SAPS  H18R   76   2.523   2.480   9.025 -0.2658 -0.1078 -2.6607
    1SAPS  H18S   77   2.570   2.332   8.940  2.0651  0.5037 -2.4120
    1SAPS  C219   78   2.721   2.495   8.941 -0.3791 -0.1340 -0.2407
    1SAPS  H19R   79   2.701   2.517   8.834 -0.7035 -0.4150 -0.2377
    1SAPS  H19S   80   2.807   2.425   8.953 -1.0462 -1.3231 -2.1260
    1SAPS  C220   81   2.758   2.633   9.007 -0.1986  0.9691 -0.0755
    1SAPS  H20R   82   2.779   2.634   9.116  0.5049  1.0276 -0.2090
    1SAPS  H20S   83   2.688   2.715   8.980 -1.4393 -0.5950 -1.7880
    1SAPS  H20T   84   2.847   2.677   8.959  0.5294 -0.7300 -0.3087
    1SAPS   C33   85   3.402   2.571  10.220 -0.0148  0.6410 -0.7285
    1SAPS   H3X   86   3.438   2.474  10.179  1.0682 -0.7670  3.3476
    1SAPS   H3Y   87   3.494   2.600  10.276 -0.1610  0.8610 -0.6031
    1SAPS   C34   88   3.369   2.675  10.121  0.2950  0.0204 -0.0473
    1SAPS   H4X   89   3.398   2.778  10.150  0.5829  0.0237 -0.3398
    1SAPS   H4Y   90   3.260   2.692  10.105  0.2211 -1.1286 -0.8283
    1SAPS   C35   91   3.452   2.660   9.996 -0.5560  0.0476 -0.6861
    1SAPS   H5X   92   3.561   2.679  10.007 -0.8277  0.7611  1.0036
    1SAPS   H5Y   93   3.423   2.748   9.934 -2.1706 -0.2343 -0.3629
    1SAPS   C36   94   3.428   2.541   9.906  0.1638 -0.2602  0.4023
    1SAPS   H6X   95   3.320   2.516   9.900  0.3852 -0.8423 -1.4011
    1SAPS   H6Y   96   3.479   2.449   9.941 -0.2406 -1.4367 -1.9753
    1SAPS   C37   97   3.489   2.555   9.768  0.4339  0.2317  0.6056
    1SAPS   H7X   98   3.599   2.571   9.772  0.1094  3.0681 -0.3501
    1SAPS   H7Y   99   3.446   2.649   9.728  4.6118  1.5170 -1.1453
    1SAPS   C38  100   3.472   2.422   9.685  0.1423 -0.0546 -0.5518
    1SAPS   H8X  101   3.362   2.410   9.697 -0.0781  2.2917  0.0432
    1SAPS   H8Y  102   3.510   2.337   9.745 -1.7028  1.0851  2.3372
    1SAPS   C39  103   3.502   2.435   9.532  0.8591  0.3399 -0.3670
    1SAPS   H9X  104   3.479   2.541   9.510  1.9914 -0.0151 -3.5809
    1SAPS   H9Y  105   3.437   2.364   9.475  1.7849 -3.4440  3.0245
    1SAPS  C310  106   3.653   2.418   9.498 -0.0230  0.4176  0.0873
    1SAPS  H10X  107   3.686   2.315   9.526 -0.9725  0.1045  0.0800
    1SAPS  H10Y  108   3.710   2.481   9.568 -2.1167  1.2154  1.1282
    1SAPS  C311  109   3.695   2.432   9.352 -0.2824 -0.3382  0.4185
    1SAPS  H11X  110   3.800   2.463   9.339 -0.2793  0.2131  1.7467
    1SAPS  H11Y  111   3.636   2.517   9.311  0.9245  0.4878  0.3893
    1SAPS  C312  112   3.685   2.311   9.256  0.6182  0.1166 -0.0655
    1SAPS  H12X  113   3.585   2.264   9.246 -1.6772  4.3509  1.6656
    1SAPS  H12Y  114   3.753   2.226   9.279  2.0834  1.8121  2.2087
    1SAPS  C313  115   3.723   2.350   9.109  0.0470  0.3833  0.0495
    1SAPS  H13X  116   3.810   2.418   9.105  0.6577 -0.5042 -2.3301
    1SAPS  H13Y  117   3.629   2.397   9.073 -0.5336 -1.5737 -1.0544
    1SAPS  C314  118   3.760   2.226   9.024  0.7707  0.2603 -0.5302
    1SAPS  H14X  119   3.693   2.138   9.035  1.7130 -0.5183 -0.8426
    1SAPS  H14Y  120   3.854   2.182   9.066  1.6484  1.9092 -0.7177
    1SAPS  C315  121   3.791   2.255   8.879  0.5284 -0.4818 -0.2648
    1SAPS  H15X  122   3.891   2.299   8.853  1.4130 -1.9053  0.6805
    1SAPS  H15Y  123   3.725   2.336   8.841  0.3069 -0.6456 -0.2218
    1SAPS  C316  124   3.780   2.128   8.788 -0.3346  0.8284 -0.1540
    1SAPS  H16X  125   3.680   2.082   8.805  0.2636 -0.8581 -1.1290
    1SAPS  H16Y  126   3.856   2.052   8.816 -0.1362  0.2198 -2.2826
    1SAPS  C317  127   3.804   2.155   8.641  1.3048 -0.0644 -0.9631
    1SAPS  H17X  128   3.894   2.219   8.632  1.2497 -0.0827 -1.6768
    1SAPS  H17Y  129   3.726   2.221   8.598  1.7598  2.4333  1.8566
    1SAPS  C318  130   3.811   2.026   8.557 -0.1012  0.3811  0.2393
    1SAPS  H18X  131   3.727   1.958   8.583 -0.1820  0.9971  1.6346
    1SAPS  H18Y  132   3.907   1.974   8.574  1.0599  1.2926 -3.1067
    1SAPS  H18Z  133   3.810   2.045   8.448 -2.8542 -0.0725  0.1399
    2SAPS     N  134   1.740   2.551  10.824  1.1426  0.2218  0.7296
    2SAPS   HN1  135   1.839   2.527  10.845  0.4105 -3.6199  0.2381
    2SAPS   HN2  136   1.700   2.519  10.733  1.4277  1.4528  0.1663
    2SAPS   HN3  137   1.733   2.655  10.818  1.3741  0.1702 -0.6707
    2SAPS   C12  138   1.648   2.511  10.943 -0.6658 -0.6525 -0.3450
    2SAPS  H12A  139   1.661   2.406  10.963  0.5760 -0.8492 -2.0048
    2SAPS   C13  140   1.684   2.590  11.067 -0.9667  0.1511  0.7389
    2SAPS  O13A  141   1.785   2.665  11.068 -1.2373  0.7178 -0.0609
    2SAPS  O13B  142   1.622   2.565  11.171  0.1179  0.1308  0.0333
    2SAPS   C11  143   1.508   2.556  10.902  0.1041 -0.4752  0.0702
    2SAPS  H11A  144   1.509   2.667  10.895  0.6005 -0.5989 -2.3067
    2SAPS  H11B  145   1.439   2.530  10.985  0.1129  0.3291  0.3366
    2SAPS     P  146   1.336   2.398  10.779 -0.0608  0.3963  0.4660
    2SAPS   O13  147   1.373   2.276  10.855 -0.0067 -0.0901 -0.4220
    2SAPS   O14  148   1.221   2.479  10.816 -0.0399  0.6027  0.0230
    2SAPS   O12  149   1.469   2.487  10.783  0.4424 -0.2919 -0.0549
    2SAPS   O11  150   1.330   2.355  10.624  0.2105 -0.7647 -0.4140
    2SAPS    C1  151   1.359   2.236  10.560 -0.5589 -0.2210  0.5076
    2SAPS    HA  152   1.345   2.148  10.626  1.2483  0.4428  1.8161
    2SAPS    HB  153   1.286   2.212  10.479 -2.6655  2.2470  1.6105
    2SAPS    C2  154   1.513   2.230  10.512  0.2862 -0.2483 -0.1331
    2SAPS    HS  155   1.569   2.243  10.607  0.8130 -0.9385 -0.3438
    2SAPS   O21  156   1.548   2.331  10.415 -0.5726 -0.4324 -0.3624
    2SAPS   C21  157   1.634   2.423  10.450  0.3826  0.1677  0.0592
    2SAPS   O22  158   1.687   2.433  10.561  1.0779 -0.2187 -0.1702
    2SAPS   C22  159   1.669   2.520  10.336  0.2758 -0.6555 -0.3093
    2SAPS   H2R  160   1.676   2.453  10.248  0.4429 -0.6889 -0.2701
    2SAPS   H2S  161   1.582   2.588  10.321 -1.5434 -2.4265  1.8730
    2SAPS    C3  162   1.533   2.093  10.451  0.4692  0.0442 -0.4695
    2SAPS    HX  163   1.544   2.017  10.531  0.4046  1.7685  1.1987
    2SAPS    HY  164   1.629   2.101  10.396  0.5446  1.5981 -0.1366
    2SAPS   O31  165   1.422   2.057  10.371 -0.2441 -0.1912  0.3786
    2SAPS   C31  166   1.443   2.032  10.244 -0.5642  0.4801  0.6512
    2SAPS   O32  167   1.542   2.070  10.187 -0.6176  0.1916  0.4981
    2SAPS   C32  168   1.316   1.979  10.185 -0.6046  0.0484 -0.0138
    2SAPS   H2X  169   1.250   2.069  10.188  0.3112  0.6847  1.1805
    2SAPS   H2Y  170   1.280   1.891  10.242  0.1626 -0.6395 -0.5900
    2SAPS   C23  171   1.794   2.596  10.363  0.1112 -0.0514  0.5728
    2SAPS   H3R  172   1.875   2.532  10.404 -1.2080 -1.9241  0.3218
    2SAPS   H3S  173   1.785   2.666  10.448 -1.4085 -2.7089  2.6842
    2SAPS   C24  174   1.854   2.671  10.238 -0.5790  0.0572  0.1568
    2SAPS   H4R  175   1.766   2.705  10.180 -0.6745  0.6529  0.6399
    2SAPS   H4S  176   1.900   2.593  10.173  0.6846  1.2564 -0.4124
    2SAPS   C25  177   1.949   2.787  10.267 -0.0994 -0.2767 -0.1124
    2SAPS   H5R  178   1.947   2.843  10.362  1.5470  1.2525 -0.9498
    2SAPS   C26  179   2.040   2.839  10.183  0.1735  0.0802 -0.3589
    2SAPS   H6R  180   2.103   2.922  10.219  2.0569 -1.1069 -0.8338
    2SAPS   C27  181   2.067   2.788  10.045  0.7901  0.1724  0.3903
    2SAPS   H7R  182   2.078   2.876   9.977  0.3291  0.8024  1.1215
    2SAPS   H7S  183   1.991   2.715  10.012  0.1920  0.2925  1.4928
    2SAPS   C28  184   2.207   2.726  10.047  0.0194 -0.3986 -0.6308
    2SAPS   H8R  185   2.228   2.677  10.143  2.1073  1.3417 -0.1590
    2SAPS   C29  186   2.288   2.694   9.944 -0.3776  0.1127 -0.2752
    2SAPS   H9R  187   2.386   2.649   9.966 -1.0021  0.2373  2.9475
    2SAPS  C210  188   2.281   2.718   9.795  0.5756  0.2844 -0.4003
    2SAPS  H10R  189   2.176   2.742   9.769  0.3070 -2.5972 -2.1512
    2SAPS  H10S  190   2.297   2.620   9.745 -1.6812 -0.3104 -0.0319
    2SAPS  C211  191   2.369   2.830   9.763 -0.2365  0.5888  0.6479
    2SAPS  H11R  192   2.348   2.923   9.818 -2.4829  0.7822 -0.4578
    2SAPS  C212  193   2.477   2.830   9.677  0.5341  0.3483  0.1993
    2SAPS  H12R  194   2.524   2.925   9.649  1.5478 -0.0962  0.3770
    2SAPS  C213  195   2.524   2.714   9.596  0.8887  0.5655  0.4508
    2SAPS  H13R  196   2.439   2.644   9.583  2.3097 -0.9329 -1.0907
    2SAPS  H13S  197   2.596   2.656   9.658 -1.0715 -0.5608  1.7401
    2SAPS  C214  198   2.601   2.763   9.475 -0.9254  0.9662  0.9419
    2SAPS  H14R  199   2.708   2.784   9.490 -0.5463  0.5658 -1.0199
    2SAPS  C215  200   2.559   2.785   9.348 -0.6602 -0.0783 -0.4040
    2SAPS  H15R  201   2.629   2.820   9.272  1.4574  0.2482  1.6488
    2SAPS  C216  202   2.418   2.775   9.291 -0.3494 -0.2813  0.4314
    2SAPS  H16R  203   2.341   2.781   9.371 -2.5956  0.6809 -1.7311
    2SAPS  H16S  204   2.403   2.678   9.239 -1.5048  2.1008 -3.9330
    2SAPS  C217  205   2.392   2.886   9.181 -0.6595  0.1678 -0.4207
    2SAPS  H17R  206   2.473   2.884   9.106  1.2231 -1.7274  1.5625
    2SAPS  H17S  207   2.391   2.988   9.225 -0.8514 -0.3668  0.8381
    2SAPS  C218  208   2.257   2.860   9.101 -0.1741  0.3322  0.6095
    2SAPS  H18R  209   2.213   2.761   9.124  0.7503 -0.9520 -2.8711
    2SAPS  H18S  210   2.278   2.880   8.994 -2.9125 -1.2221 -0.2653
    2SAPS  C219  211   2.146   2.966   9.130  0.2271  0.1317 -0.3091
    2SAPS  H19R  212   2.108   2.960   9.234 -1.3961 -0.3555 -0.9139
    2SAPS  H19S  213   2.061   2.927   9.070 -0.6733  0.3524  0.7922
    2SAPS  C220  214   2.189   3.115   9.098 -0.0572  0.4788  0.2128
    2SAPS  H20R  215   2.226   3.121   8.994  0.8050 -1.1007  0.4101
    2SAPS  H20S  216   2.271   3.133   9.171 -0.0088 -0.1583  0.3225
    2SAPS  H20T  217   2.102   3.184   9.108  1.2576  2.1640  0.1697
    2SAPS   C33  218   1.337   1.935  10.036  0.4781  0.1092 -1.1358
    2SAPS   H3X  219   1.388   2.010   9.971 -0.6552  2.6467  0.8340
    2SAPS   H3Y  220   1.232   1.931  10.000 -0.5174  0.6889  1.5508
    2SAPS   C34  221   1.413   1.798  10.033 -0.0323 -0.2824  0.2334
    2SAPS   H4X  222   1.349   1.716  10.071  0.7493 -1.0441 -0.0896
    2SAPS   H4Y  223   1.498   1.824  10.099 -0.4209 -0.9279  0.9915
    2SAPS   C35  224   1.469   1.755   9.900 -0.1421 -0.5850 -0.5124
    2SAPS   H5X  225   1.531   1.663   9.909  1.2969  0.5915  2.2128
    2SAPS   H5Y  226   1.527   1.844   9.868  1.3130 -1.5810 -0.7095
    2SAPS   C36  227   1.368   1.724   9.786  0.0818 -0.3622  0.1364
    2SAPS   H6X  228   1.285   1.797   9.775  0.5491  0.2179  0.4007
    2SAPS   H6Y  229   1.312   1.634   9.819 -0.6364 -0.9034 -2.5030
    2SAPS   C37  230   1.437   1.707   9.647 -0.3887 -0.0458 -0.4329
    2SAPS   H7X  231   1.500   1.616   9.648  0.3177  0.4374 -0.5864
    2SAPS   H7Y  232   1.507   1.792   9.630 -0.0655 -0.4977 -1.3885
    2SAPS   C38  233   1.340   1.705   9.524  0.3621  1.0018  0.2896
    2SAPS   H8X  234   1.259   1.780   9.538  1.3988  2.2321 -0.2324
    2SAPS   H8Y  235   1.293   1.605   9.509  0.8001  1.1898 -2.5583
    2SAPS   C39  236   1.414   1.716   9.394  0.1861 -0.4704 -0.2256
    2SAPS   H9X  237   1.515   1.670   9.400  0.6914  0.4943 -1.1910
    2SAPS   H9Y  238   1.442   1.822   9.379 -0.3042 -0.0715  1.6264
    2SAPS  C310  239   1.348   1.658   9.272  0.0688 -0.6048  0.8896
    2SAPS  H10X  240   1.297   1.565   9.305  0.2983 -0.0564  2.8798
    2SAPS  H10Y  241   1.424   1.644   9.193 -1.4175  0.9245 -0.8684
    2SAPS  C311  242   1.261   1.756   9.200 -0.6562 -0.3087 -0.4749
    2SAPS  H11X  243   1.324   1.842   9.170  1.8755 -1.9354 -0.0233
    2SAPS  H11Y  244   1.178   1.790   9.265  1.5335  0.0392  2.2261
    2SAPS  C312  245   1.202   1.708   9.067  0.3124 -0.8034 -0.4911
    2SAPS  H12X  246   1.139   1.619   9.087  1.8865 -1.7364  0.4998
    2SAPS  H12Y  247   1.291   1.676   9.009 -0.4341 -2.1588 -0.9026
    2SAPS  C313  248   1.121   1.819   8.990  0.1153 -0.4176  0.1220
    2SAPS  H13X  249   1.197   1.893   8.957  0.1251 -0.4427  0.0884
    2SAPS  H13Y  250   1.054   1.857   9.070  1.2599 -2.7063  2.2047
    2SAPS  C314  251   1.031   1.776   8.869  0.2437 -0.4098  0.5830
    2SAPS  H14X  252   1.098   1.759   8.782 -2.1130  0.1376 -1.3945
    2SAPS  H14Y  253   0.956   1.856   8.851 -1.5337 -1.8944  1.2129
    2SAPS  C315  254   0.951   1.642   8.895 -0.8266 -0.7377 -0.1098
    2SAPS  H15X  255   0.907   1.652   8.996 -0.7487  0.2943 -0.1677
    2SAPS  H15Y  256   1.021   1.556   8.892 -1.8926 -1.6139 -0.0884
    2SAPS  C316  257   0.836   1.630   8.798 -0.2471  0.2874 -0.0299
    2SAPS  H16X  258   0.774   1.722   8.805 -0.8289 -0.0835 -0.2139
    2SAPS  H16Y  259   0.775   1.540   8.822  0.2587 -0.3124 -0.9946
    2SAPS  C317  260   0.868   1.601   8.646  0.5104  0.4738  0.1445
    2SAPS  H17X  261   0.844   1.495   8.623  0.8010  0.3165  0.5546
    2SAPS  H17Y  262   0.976   1.607   8.621  0.5560 -0.4892  0.1113
    2SAPS  C318  263   0.796   1.695   8.550  0.5168  0.9097  0.4430
    2SAPS  H18X  264   0.825   1.661   8.449 -0.8270 -0.7139  0.5880
    2SAPS  H18Y  265   0.845   1.793   8.569  0.1538  1.2511 -0.3623
    2SAPS  H18Z  266   0.689   1.691   8.581  0.9362  0.7031  1.9068
    3SAPS     N  267   2.440   4.776  11.251 -0.5255  0.6060 -0.6626
    3SAPS   HN1  268   2.474   4.701  11.187 -0.5704  0.6865 -0.7791
    3SAPS   HN2  269   2.483   4.860  11.208 -1.2180  0.9637 -0.6509
    3SAPS   HN3  270   2.466   4.749  11.348 -3.3681 -1.5084 -0.4340
    3SAPS   C12  271   2.294   4.774  11.224 -0.0785 -0.1037  0.3921
    3SAPS  H12A  272   2.254   4.691  11.279 -1.1636  1.7645  2.5077
    3SAPS   C13  273   2.215   4.891  11.274  0.9542  0.0032 -0.1995
    3SAPS  O13A  274   2.271   4.988  11.338 -0.2560 -0.1668 -0.2374
    3SAPS  O13B  275   2.090   4.886  11.256 -0.3922  0.6184  0.2334
    3SAPS   C11  276   2.275   4.748  11.078  0.0633  0.7291 -0.0736
    3SAPS  H11A  277   2.293   4.842  11.021  0.3886 -0.4836 -2.0203
    3SAPS  H11B  278   2.165   4.732  11.067  0.3906 -0.2611 -2.1957
    3SAPS     P  279   2.394   4.613  10.885 -0.0379 -0.0473 -0.2721
    3SAPS   O13  280   2.504   4.707  10.855  0.6510 -0.2742 -0.1807
    3SAPS   O14  281   2.430   4.471  10.873 -0.7192  0.0589 -0.5493
    3SAPS   O12  282   2.342   4.631  11.033 -0.0598  0.2697  0.1250
    3SAPS   O11  283   2.269   4.642  10.787  0.0548  0.0543  0.1363
    3SAPS    C1  284   2.142   4.586  10.819  0.2013  0.5435 -0.3569
    3SAPS    HA  285   2.121   4.556  10.924  0.5694  0.4869 -0.2979
    3SAPS    HB  286   2.065   4.663  10.795  0.1334  0.9469  1.1029
    3SAPS    C2  287   2.122   4.465  10.723  0.0064  0.0638  0.0456
    3SAPS    HS  288   2.215   4.406  10.738 -0.0729  0.0785  0.6099
    3SAPS   O21  289   2.115   4.505  10.589  0.0305  0.3191  0.2760
    3SAPS   C21  290   2.174   4.424  10.489  0.2018 -0.0756  0.1060
    3SAPS   O22  291   2.242   4.327  10.518 -0.5089  0.4231 -0.1027
    3SAPS   C22  292   2.145   4.472  10.351  0.4202 -0.1090 -0.0075
    3SAPS   H2R  293   2.043   4.446  10.316  0.8517  0.7162 -1.9272
    3SAPS   H2S  294   2.141   4.581  10.368 -0.1825 -0.1462  0.1008
    3SAPS    C3  295   1.988   4.387  10.771 -0.0479 -0.0224  0.2073
    3SAPS    HX  296   1.905   4.461  10.761 -0.4937 -0.6262 -0.6503
    3SAPS    HY  297   1.998   4.353  10.877  0.3347 -1.3581 -0.2565
    3SAPS   O31  298   1.965   4.272  10.692 -0.2946 -0.2590 -0.5376
    3SAPS   C31  299   2.031   4.159  10.717 -0.9797  0.0182  0.2336
    3SAPS   O32  300   2.125   4.143  10.794  0.1584  0.0432  0.1529
    3SAPS   C32  301   1.970   4.042  10.637  0.3845 -0.3733  0.4054
    3SAPS   H2X  302   1.861   4.059  10.627  0.7650  2.2924  0.5573
    3SAPS   H2Y  303   1.991   3.947  10.692  0.9098 -0.1365  0.6180
    3SAPS   C23  304   2.252   4.443  10.240  0.4121 -0.2905 -0.6518
    3SAPS   H3R  305   2.236   4.341  10.199 -0.6148 -0.4317  0.0664
    3SAPS   H3S  306   2.347   4.462  10.294 -0.4843  1.2095  0.4300
    3SAPS   C24  307   2.236   4.543  10.118 -0.1803  0.4695  0.5960
    3SAPS   H4R  308   2.243   4.648  10.153  1.5404  0.9579 -1.1452
    3SAPS   H4S  309   2.140   4.533  10.064 -0.1290  2.0823  0.1756
    3SAPS   C25  310   2.355   4.515  10.029 -0.2947  0.1711 -0.3228
    3SAPS   H5R  311   2.450   4.518  10.085  0.4559  1.4033 -1.6270
    3SAPS   C26  312   2.360   4.499   9.894 -0.4072  0.0800 -0.7196
    3SAPS   H6R  313   2.457   4.480   9.845 -0.7557 -0.7113 -1.1122
    3SAPS   C27  314   2.246   4.511   9.795  0.4130 -0.3207  0.6042
    3SAPS   H7R  315   2.145   4.519   9.841  0.5254  2.2207  0.4698
    3SAPS   H7S  316   2.235   4.419   9.734 -0.7548  0.4433 -0.3614
    3SAPS   C28  317   2.247   4.625   9.693  0.2468 -0.4261  0.1936
    3SAPS   H8R  318   2.175   4.706   9.712  0.5561 -0.3263  0.9459
    3SAPS   C29  319   2.327   4.643   9.583 -0.8332 -0.3021 -0.2891
    3SAPS   H9R  320   2.311   4.737   9.528  1.5881  1.5100  1.9867
    3SAPS  C210  321   2.437   4.560   9.521  0.3179 -0.2015  0.5568
    3SAPS  H10R  322   2.495   4.530   9.610  1.6977  0.4282 -0.1122
    3SAPS  H10S  323   2.501   4.627   9.459 -1.9799  1.0040 -0.5980
    3SAPS  C211  324   2.392   4.431   9.456 -0.7124 -0.4886  0.1702
    3SAPS  H11R  325   2.333   4.366   9.522 -0.7928  2.0834  2.7446
    3SAPS  C212  326   2.416   4.401   9.331 -0.3863 -0.5215 -0.4446
    3SAPS  H12R  327   2.376   4.308   9.288 -0.7373 -0.8320  0.5459
    3SAPS  C213  328   2.495   4.488   9.236  0.3501  0.2736 -0.2666
    3SAPS  H13R  329   2.581   4.542   9.281 -0.2426  2.7599 -2.0469
    3SAPS  H13S  330   2.430   4.575   9.210 -0.2482  0.3935  1.5827
    3SAPS  C214  331   2.534   4.419   9.101 -0.0649 -0.3226 -0.1167
    3SAPS  H14R  332   2.460   4.358   9.049  0.0009 -0.6906  0.2165
    3SAPS  C215  333   2.651   4.442   9.042  0.5907 -0.0975  0.1451
    3SAPS  H15R  334   2.652   4.397   8.942 -1.1120 -1.2483  0.6228
    3SAPS  C216  335   2.776   4.517   9.091 -0.0198  0.7517  0.1733
    3SAPS  H16R  336   2.864   4.452   9.075 -1.0268 -0.5488 -0.2034
    3SAPS  H16S  337   2.777   4.542   9.199 -1.6465  2.9216 -0.2696
    3SAPS  C217  338   2.793   4.655   9.028 -0.7285  0.7239 -0.4113
    3SAPS  H17R  339   2.887   4.696   9.072 -0.3452 -0.1533 -0.3959
    3SAPS  H17S  340   2.709   4.716   9.067  0.0053  0.7148  1.2357
    3SAPS  C218  341   2.824   4.663   8.876  0.2969  0.0582 -0.0648
    3SAPS  H18R  342   2.748   4.598   8.827 -0.7349 -0.0181  1.5962
    3SAPS  H18S  343   2.925   4.618   8.868 -0.6670 -1.9465 -1.4679
    3SAPS  C219  344   2.833   4.798   8.802  0.1784  0.2575  0.1575
    3SAPS  H19R  345   2.734   4.845   8.821  0.0406  0.2319 -0.4803
    3SAPS  H19S  346   2.848   4.779   8.693 -0.2699 -0.8263  0.2728
    3SAPS  C220  347   2.938   4.894   8.852 -0.5042  0.3101 -0.5415
    3SAPS  H20R  348   3.031   4.839   8.830  0.0981  1.0924  0.0496
    3SAPS  H20S  349   2.918   4.907   8.960 -0.6418  0.6261 -0.6043
    3SAPS  H20T  350   2.937   4.984   8.786 -0.8199  2.0188  1.7386
    3SAPS   C33  351   2.037   4.024  10.502 -0.3765  0.1750  0.4926
    3SAPS   H3X  352   2.026   3.920  10.464 -0.2287 -0.9853  3.5421
    3SAPS   H3Y  353   2.147   4.041  10.507  0.0078 -1.9836 -0.1051
    3SAPS   C34  354   1.969   4.113  10.398 -0.1946 -0.6470  0.7148
    3SAPS   H4X  355   1.990   4.219  10.424 -1.0227 -0.9458  2.6758
    3SAPS   H4Y  356   1.859   4.106  10.388 -0.2805  2.3100 -1.0778
    3SAPS   C35  357   2.027   4.098  10.257  0.7219  0.2884  0.3671
    3SAPS   H5X  358   2.019   3.993  10.220 -2.1866  0.6670 -0.2319
    3SAPS   H5Y  359   2.133   4.131  10.258  0.7438  0.3086 -1.5039
    3SAPS   C36  360   1.960   4.187  10.155  0.4791 -0.1117  0.2119
    3SAPS   H6X  361   1.979   4.296  10.164  3.7912 -0.3363 -3.1274
    3SAPS   H6Y  362   1.851   4.167  10.166  0.7795 -0.2998  3.6042
    3SAPS   C37  363   2.003   4.158  10.013  0.0602 -0.2101 -0.2230
    3SAPS   H7X  364   2.001   4.050   9.988  0.2586 -0.3239  0.2424
    3SAPS   H7Y  365   2.111   4.177   9.993  0.0189 -0.7291 -0.9506
    3SAPS   C38  366   1.923   4.237   9.906  0.3505 -0.7557  0.3247
    3SAPS   H8X  367   1.945   4.346   9.913 -1.2755 -0.3771 -0.2602
    3SAPS   H8Y  368   1.815   4.236   9.930 -0.3060 -1.8069 -2.4695
    3SAPS   C39  369   1.956   4.196   9.756 -0.1930  0.3287 -0.6268
    3SAPS   H9X  370   1.900   4.100   9.745  0.3888  0.1705 -2.4685
    3SAPS   H9Y  371   2.065   4.176   9.759 -0.2671  0.0629  0.4183
    3SAPS  C310  372   1.938   4.301   9.655  0.1059 -0.4232  0.0304
    3SAPS  H10X  373   1.998   4.392   9.680  1.0995 -0.9761 -0.3198
    3SAPS  H10Y  374   1.837   4.346   9.664 -0.0040  0.2717 -3.7360
    3SAPS  C311  375   1.948   4.252   9.508 -0.6443 -0.2964  0.3652
    3SAPS  H11X  376   1.856   4.208   9.464  0.7797 -4.3597  1.3130
    3SAPS  H11Y  377   2.026   4.174   9.499  0.9746  1.2600  0.5826
    3SAPS  C312  378   1.990   4.370   9.422  0.1828  0.1085 -0.3319
    3SAPS  H12X  379   2.089   4.403   9.459 -0.9282  0.6568  2.2913
    3SAPS  H12Y  380   1.915   4.450   9.439  0.1647 -0.1229  0.7288
    3SAPS  C313  381   1.996   4.346   9.271 -0.8981 -0.1062  0.4918
    3SAPS  H13X  382   1.895   4.355   9.226  0.5461  3.8437 -2.2288
    3SAPS  H13Y  383   2.057   4.254   9.256  1.8165  1.9272 -1.4336
    3SAPS  C314  384   2.080   4.459   9.196  0.2422  0.1173  0.2720
    3SAPS  H14X  385   2.158   4.485   9.271  1.3512 -2.9039  0.2357
    3SAPS  H14Y  386   2.011   4.544   9.176 -0.7528 -0.5724  0.7099
    3SAPS  C315  387   2.145   4.412   9.070  0.3018  0.1378  0.2781
    3SAPS  H15X  388   2.172   4.304   9.078  0.3376  0.2201  1.2612
    3SAPS  H15Y  389   2.236   4.470   9.043  0.8016 -0.4060  0.7827
    3SAPS  C316  390   2.047   4.422   8.944 -0.3291 -0.1330 -0.1909
    3SAPS  H16X  391   2.036   4.530   8.920  0.4333 -0.2351 -1.0252
    3SAPS  H16Y  392   1.948   4.381   8.974 -0.7275  0.3428 -0.8599
    3SAPS  C317  393   2.104   4.348   8.824 -0.5616  0.3220  0.5767
    3SAPS  H17X  394   2.118   4.239   8.838  1.4233  0.1587 -2.3713
    3SAPS  H17Y  395   2.208   4.383   8.808 -0.8159  0.3821 -1.0312
    3SAPS  C318  396   2.017   4.369   8.698  0.6144  0.6201  0.1765
    3SAPS  H18X  397   1.909   4.387   8.719 -0.2345  0.7352 -3.7549
    3SAPS  H18Y  398   2.022   4.279   8.632 -0.4194  1.0215 -0.4549
    3SAPS  H18Z  399   2.045   4.456   8.635  1.0072  0.0754 -0.4143
    4SAPS     N  400   4.077   5.114  10.832  0.5568 -0.5980 -0.1468
    4SAPS   HN1  401   4.120   5.037  10.777  1.6961  0.5396 -0.8978
    4SAPS   HN2  402   4.067   5.075  10.928  2.7000  0.9525  0.7589
    4SAPS   HN3  403   3.983   5.123  10.790  0.3805  1.0775  0.5595
    4SAPS   C12  404   4.160   5.229  10.817 -0.2941  0.9223  0.0156
    4SAPS  H12A  405   4.139   5.270  10.719  0.2624  3.0273  0.7335
    4SAPS   C13  406   4.112   5.342  10.921 -0.1222  0.0931  0.1604
    4SAPS  O13A  407   4.006   5.324  10.986 -0.4133  0.7777  0.5708
    4SAPS  O13B  408   4.167   5.452  10.903  0.3688 -0.8106  0.2773
    4SAPS   C11  409   4.315   5.205  10.827 -0.2605 -0.3705 -0.4905
    4SAPS  H11A  410   4.341   5.185  10.933  1.6462 -1.3963 -1.1362
    4SAPS  H11B  411   4.371   5.297  10.798 -2.2884  0.9135 -0.4234
    4SAPS     P  412   4.513   5.066  10.715 -0.0850  0.1339 -0.1155
    4SAPS   O13  413   4.614   5.139  10.799  1.0047 -0.0847  0.5168
    4SAPS   O14  414   4.539   4.922  10.694  0.0045  0.1416 -0.0707
    4SAPS   O12  415   4.363   5.087  10.751  0.1540 -0.3069 -0.1567
    4SAPS   O11  416   4.506   5.137  10.579 -0.7802  0.3971  0.5672
    4SAPS    C1  417   4.396   5.132  10.481 -0.3137  0.1015 -0.4301
    4SAPS    HA  418   4.391   5.033  10.432 -1.1169  0.3576 -0.8688
    4SAPS    HB  419   4.305   5.149  10.542  1.2319 -0.9250  2.2595
    4SAPS    C2  420   4.400   5.244  10.380 -0.0536  0.0841  0.8648
    4SAPS    HS  421   4.297   5.252  10.338  0.6212  0.8413 -0.6802
    4SAPS   O21  422   4.505   5.218  10.286  0.1059 -0.0096  0.9793
    4SAPS   C21  423   4.453   5.169  10.167 -0.3785 -0.8685  0.3765
    4SAPS   O22  424   4.343   5.142  10.151 -0.1548  0.2602 -0.4850
    4SAPS   C22  425   4.565   5.146  10.060  0.1910  0.0009 -0.3548
    4SAPS   H2R  426   4.628   5.238  10.055 -1.7705  1.3216 -1.6986
    4SAPS   H2S  427   4.630   5.062  10.091  0.4416 -1.0176 -3.4795
    4SAPS    C3  428   4.436   5.384  10.452 -0.1713  0.0381  0.4236
    4SAPS    HX  429   4.534   5.375  10.502 -0.2044  1.7345  0.8134
    4SAPS    HY  430   4.369   5.392  10.541 -0.4241 -1.8398  0.4246
    4SAPS   O31  431   4.435   5.506  10.371  0.7301 -1.0996 -0.3122
    4SAPS   C31  432   4.556   5.534  10.317 -0.4946  0.0963  0.2295
    4SAPS   O32  433   4.658   5.470  10.339 -0.0346 -0.3007  0.0495
    4SAPS   C32  434   4.547   5.653  10.235  0.5414  0.1863  0.6553
    4SAPS   H2X  435   4.610   5.725  10.293  2.4220  1.0073 -2.3247
    4SAPS   H2Y  436   4.443   5.690  10.232  0.9830  1.5634  1.7387
    4SAPS   C23  437   4.520   5.114   9.915 -0.1558 -0.6276  0.9103
    4SAPS   H3R  438   4.467   5.199   9.868  0.6049 -0.2228  0.7602
    4SAPS   H3S  439   4.453   5.025   9.910 -3.1053  1.6740 -2.5957
    4SAPS   C24  440   4.643   5.063   9.830  0.2685 -0.4232 -0.0002
    4SAPS   H4R  441   4.654   4.955   9.856 -0.8673 -0.6190 -0.3053
    4SAPS   H4S  442   4.735   5.109   9.872  0.7847 -2.4143  1.1474
    4SAPS   C25  443   4.625   5.069   9.680  0.2690  0.8731  0.4527
    4SAPS   H5R  444   4.649   5.163   9.627 -3.4320  1.6569  0.0204
    4SAPS   C26  445   4.577   4.973   9.604 -0.0798 -0.0355 -0.2219
    4SAPS   H6R  446   4.573   4.984   9.495  0.9737  1.1732 -0.1460
    4SAPS   C27  447   4.533   4.835   9.645  0.7127 -0.3992  0.9506
    4SAPS   H7R  448   4.454   4.801   9.574  0.7497  1.6380 -0.1159
    4SAPS   H7S  449   4.478   4.852   9.740  0.2496 -2.5352  1.0845
    4SAPS   C28  450   4.641   4.738   9.659 -0.1620 -0.4610 -0.1469
    4SAPS   H8R  451   4.679   4.729   9.762 -1.3753  0.3283  0.3933
    4SAPS   C29  452   4.691   4.654   9.563  0.5122  0.1975 -0.7622
    4SAPS   H9R  453   4.769   4.588   9.604 -0.9901 -1.6515 -0.8301
    4SAPS  C210  454   4.641   4.636   9.425 -0.4487 -0.1602  0.1379
    4SAPS  H10R  455   4.552   4.700   9.410  0.3468  0.9588  0.1526
    4SAPS  H10S  456   4.606   4.531   9.421 -1.0086  0.0485 -0.4349
    4SAPS  C211  457   4.751   4.649   9.317  0.1673  0.2204 -0.3978
    4SAPS  H11R  458   4.834   4.581   9.336  0.4495  0.5860 -0.3105
    4SAPS  C212  459   4.738   4.727   9.206  0.5489  1.0254  0.1462
    4SAPS  H12R  460   4.830   4.736   9.145  0.1028  0.9050 -0.5518
    4SAPS  C213  461   4.617   4.817   9.175 -0.4660 -0.1689  0.4445
    4SAPS  H13R  462   4.579   4.869   9.265  0.5326 -1.7778  1.8048
    4SAPS  H13S  463   4.528   4.758   9.144  1.0405 -1.5453 -1.3722
    4SAPS  C214  464   4.638   4.923   9.070  0.2175 -0.3482  0.4939
    4SAPS  H14R  465   4.617   4.885   8.969 -3.0295 -0.0636  1.0279
    4SAPS  C215  466   4.658   5.058   9.080 -1.1893 -0.5599  0.4328
    4SAPS  H15R  467   4.660   5.116   8.987 -0.0486  1.7298  1.8344
    4SAPS  C216  468   4.674   5.139   9.210  0.4637  0.2470  0.2791
    4SAPS  H16R  469   4.772   5.191   9.209  1.0056 -0.7667  0.5520
    4SAPS  H16S  470   4.680   5.067   9.294  0.9469 -0.5132 -0.4074
    4SAPS  C217  471   4.558   5.235   9.221 -0.2737 -0.0114  0.3777
    4SAPS  H17R  472   4.471   5.166   9.230 -1.2303  1.1459  0.0907
    4SAPS  H17S  473   4.547   5.301   9.133 -0.0806 -0.4190  0.0456
    4SAPS  C218  474   4.557   5.321   9.348  0.0367 -0.5034  0.0922
    4SAPS  H18R  475   4.626   5.405   9.326  0.2151 -0.7851 -0.4373
    4SAPS  H18S  476   4.589   5.265   9.439  1.1760  1.7446  1.1079
    4SAPS  C219  477   4.420   5.392   9.369 -0.0551  0.3541  0.7939
    4SAPS  H19R  478   4.356   5.307   9.399  0.4782 -0.4637 -0.3438
    4SAPS  H19S  479   4.391   5.430   9.269 -2.5230 -0.4561  1.1634
    4SAPS  C220  480   4.416   5.503   9.472 -0.0354 -0.3867 -0.3392
    4SAPS  H20R  481   4.471   5.595   9.442  0.8239 -1.0833 -0.9099
    4SAPS  H20S  482   4.477   5.460   9.555 -0.8078  0.9497  0.9461
    4SAPS  H20T  483   4.320   5.523   9.525 -0.2114 -0.7516 -0.5206
    4SAPS   C33  484   4.609   5.630  10.104  0.0291 -0.1757 -0.2618
    4SAPS   H3X  485   4.567   5.541  10.051  1.4264  0.0739 -1.8433
    4SAPS   H3Y  486   4.717   5.613  10.124 -0.1999 -0.4192  0.7924
    4SAPS   C34  487   4.610   5.753  10.017  0.0002 -0.2556  0.3342
    4SAPS   H4X  488   4.690   5.741   9.941 -0.4361  2.1233 -0.5336
    4SAPS   H4Y  489   4.635   5.843  10.076 -2.5419  0.1621  0.8560
    4SAPS   C35  490   4.469   5.805   9.974  0.6207  0.1419 -0.1312
    4SAPS   H5X  491   4.401   5.840  10.055  3.6197  1.3466  1.9562
    4SAPS   H5Y  492   4.426   5.721   9.916 -1.1597 -1.1261  2.8902
    4SAPS   C36  493   4.481   5.922   9.875 -0.5057  0.1899 -0.4117
    4SAPS   H6X  494   4.516   6.012   9.931 -3.6534  1.7215 -0.7806
    4SAPS   H6Y  495   4.376   5.947   9.846 -0.5392 -1.2783 -1.5771
    4SAPS   C37  496   4.569   5.892   9.751  0.3792  0.7587 -0.5765
    4SAPS   H7X  497   4.536   5.795   9.707 -1.0152  1.0339 -0.1609
    4SAPS   H7Y  498   4.676   5.875   9.776 -0.6860 -2.2264  2.2811
    4SAPS   C38  499   4.549   5.997   9.643 -0.4533  0.4673 -0.1435
    4SAPS   H8X  500   4.560   6.100   9.680 -0.4607  0.9323 -1.3968
    4SAPS   H8Y  501   4.446   5.987   9.603 -0.6576  1.4518  0.1430
    4SAPS   C39  502   4.652   5.983   9.528  0.3672  0.1894 -0.3135
    4SAPS   H9X  503   4.758   5.986   9.563 -0.0339  0.2633  0.9261
    4SAPS   H9Y  504   4.650   6.073   9.464 -1.7500 -1.2758 -2.3724
    4SAPS  C310  505   4.632   5.860   9.443 -0.2715  0.2150  0.3612
    4SAPS  H10X  506   4.532   5.856   9.395  0.4079 -0.1949 -1.0649
    4SAPS  H10Y  507   4.628   5.768   9.505 -1.5558 -0.6216 -0.9207
    4SAPS  C311  508   4.739   5.836   9.333 -0.2669  0.9012 -0.6495
    4SAPS  H11X  509   4.694   5.765   9.260  1.0544  1.1594 -1.7390
    4SAPS  H11Y  510   4.827   5.790   9.381  0.3183  2.6653  0.0234
    4SAPS  C312  511   4.778   5.964   9.259 -0.6546 -0.4224 -0.0833
    4SAPS  H12X  512   4.816   6.040   9.331  1.4279  1.3762 -2.9935
    4SAPS  H12Y  513   4.683   6.004   9.216 -1.9274 -2.9789  0.2429
    4SAPS  C313  514   4.886   5.936   9.157  0.6743 -0.0987  0.6218
    4SAPS  H13X  515   4.881   5.826   9.140 -1.1473 -0.1411  1.4029
    4SAPS  H13Y  516   4.982   5.962   9.208  0.3700 -2.0390  2.2761
    4SAPS  C314  517   4.879   6.011   9.027 -0.1945  0.0876  0.3858
    4SAPS  H14X  518   4.895   6.118   9.050  1.1095 -0.6189  3.0157
    4SAPS  H14Y  519   4.780   5.998   8.978  0.3935  0.8265 -1.0265
    4SAPS  C315  520   4.972   5.961   8.914  0.5682  0.3773 -1.0127
    4SAPS  H15X  521   4.955   5.853   8.895 -0.1451 -0.0674  1.8704
    4SAPS  H15Y  522   5.081   5.970   8.934  0.4861 -0.6122 -0.0780
    4SAPS  C316  523   4.944   6.028   8.784  0.6677 -0.6087 -0.5439
    4SAPS  H16X  524   4.962   6.137   8.777 -2.1592 -0.0859 -0.4175
    4SAPS  H16Y  525   4.833   6.023   8.781  0.4154  2.0510  2.2790
    4SAPS  C317  526   5.007   5.964   8.655 -0.3041  0.0135 -0.8498
    4SAPS  H17X  527   4.960   5.864   8.655 -0.7532  0.2220 -0.7066
    4SAPS  H17Y  528   5.115   5.962   8.683 -0.7339 -1.2182  0.7764
    4SAPS  C318  529   4.978   6.031   8.517  0.6814  0.2020 -0.2934
    4SAPS  H18X  530   5.026   5.968   8.439  1.4762 -0.1129  0.4427
    4SAPS  H18Y  531   5.003   6.139   8.518  0.6692  0.2071 -0.6987
    4SAPS  H18Z  532   4.867   6.029   8.512  0.6595 -0.1273  0.2720
    5SAPS     N  533   0.925   4.488  11.172 -0.2631 -0.0637  0.6162
    5SAPS   HN1  534   0.845   4.548  11.144  0.8256  1.5034  0.8025
    5SAPS   HN2  535   0.952   4.439  11.084 -1.1951  0.6005 -0.0423
    5SAPS   HN3  536   0.889   4.411  11.232 -2.7285 -0.4867 -1.3296
    5SAPS   C12  537   1.023   4.575  11.246  0.2291  0.0916 -0.7342
    5SAPS  H12A  538   1.012   4.674  11.204  0.9540 -0.6743 -2.7718
    5SAPS   C13  539   0.999   4.587  11.395 -0.2158  0.0268 -0.8815
    5SAPS  O13A  540   0.902   4.522  11.446  0.1111 -0.3276  0.2598
    5SAPS  O13B  541   1.071   4.666  11.457  0.4966 -0.1769  0.2496
    5SAPS   C11  542   1.162   4.512  11.221 -0.1747  0.4922 -0.4390
    5SAPS  H11A  543   1.151   4.410  11.262  0.9515 -0.2962 -2.0734
    5SAPS  H11B  544   1.238   4.568  11.280 -1.0288 -0.1543  1.3311
    5SAPS     P  545   1.200   4.378  10.997 -0.1036  0.0247 -0.3044
    5SAPS   O13  546   1.291   4.279  11.064  0.6626  0.3556 -0.1628
    5SAPS   O14  547   1.063   4.335  10.970  0.2720  0.2721  0.2267
    5SAPS   O12  548   1.192   4.512  11.082 -0.8237 -0.0241 -0.0930
    5SAPS   O11  549   1.270   4.417  10.863  0.4634  0.1186  0.3934
    5SAPS    C1  550   1.378   4.520  10.864  0.3455  0.9836 -0.0672
    5SAPS    HA  551   1.338   4.616  10.903  0.5886  0.0132  2.7130
    5SAPS    HB  552   1.460   4.487  10.932  1.4277 -1.3768 -2.4274
    5SAPS    C2  553   1.447   4.533  10.723 -0.0195  0.9453 -0.0242
    5SAPS    HS  554   1.526   4.611  10.724 -1.1698  2.1582  2.3344
    5SAPS   O21  555   1.359   4.549  10.616  0.1957  0.2090  0.6018
    5SAPS   C21  556   1.312   4.680  10.614 -0.7574  0.2551  0.4059
    5SAPS   O22  557   1.343   4.770  10.688  0.5962  0.4874 -0.8298
    5SAPS   C22  558   1.207   4.700  10.502  0.0244 -0.3074  0.2560
    5SAPS   H2R  559   1.223   4.614  10.433 -0.5597  0.3896 -0.7555
    5SAPS   H2S  560   1.110   4.702  10.556  0.4189 -2.2196  1.0772
    5SAPS    C3  561   1.525   4.401  10.702 -0.2127 -0.5159 -0.4469
    5SAPS    HX  562   1.466   4.316  10.743 -1.2825  1.2463  1.7301
    5SAPS    HY  563   1.618   4.404  10.762 -0.4678 -1.2101 -0.0126
    5SAPS   O31  564   1.565   4.377  10.562  0.1247  0.7357  0.0222
    5SAPS   C31  565   1.478   4.330  10.482  0.1792 -0.5689 -1.1136
    5SAPS   O32  566   1.368   4.287  10.508 -0.2545  0.0325  0.2523
    5SAPS   C32  567   1.534   4.338  10.338 -0.2486 -0.7725  0.3773
    5SAPS   H2X  568   1.576   4.239  10.310  2.2002  0.0380  1.0892
    5SAPS   H2Y  569   1.616   4.410  10.319 -1.3063  0.7559  1.4374
    5SAPS   C23  570   1.238   4.825  10.426  0.2818 -0.1476 -0.2112
    5SAPS   H3R  571   1.240   4.917  10.488  0.5354 -0.6510  0.5356
    5SAPS   H3S  572   1.152   4.838  10.356 -0.1171  1.9990  0.6336
    5SAPS   C24  573   1.365   4.823  10.340 -0.2579 -0.0529  0.6128
    5SAPS   H4R  574   1.362   4.737  10.269  1.0289  1.3194 -1.1399
    5SAPS   H4S  575   1.448   4.806  10.413  1.4953  0.2411 -1.2705
    5SAPS   C25  576   1.388   4.952  10.270 -0.2859  0.0316  0.3378
    5SAPS   H5R  577   1.355   5.034  10.335 -2.5474 -0.4436 -0.1469
    5SAPS   C26  578   1.416   4.965  10.139  0.1796  0.3121 -0.2727
    5SAPS   H6R  579   1.411   5.066  10.094 -0.3289  0.2645 -0.3321
    5SAPS   C27  580   1.443   4.856  10.041  0.1833 -0.8137 -0.3353
    5SAPS   H7R  581   1.477   4.761  10.088  2.0061 -0.5022 -0.9992
    5SAPS   H7S  582   1.521   4.876   9.965 -0.1765 -1.9906 -1.0222
    5SAPS   C28  583   1.330   4.817   9.959 -0.8414  0.0181 -0.1086
    5SAPS   H8R  584   1.281   4.726   9.998 -0.9978 -0.6985 -1.9320
    5SAPS   C29  585   1.296   4.875   9.840  0.7602  0.0200 -0.1189
    5SAPS   H9R  586   1.200   4.843   9.799  1.3343  0.0747 -1.5233
    5SAPS  C210  587   1.363   4.994   9.776  0.6854  0.1384 -0.5772
    5SAPS  H10R  588   1.432   4.953   9.699  1.4660  0.3200  0.0091
    5SAPS  H10S  589   1.439   5.035   9.846 -1.5803  0.8650  1.5127
    5SAPS  C211  590   1.273   5.098   9.713  0.1732 -0.2907 -0.3534
    5SAPS  H11R  591   1.209   5.146   9.788 -1.3547 -2.8080  0.0126
    5SAPS  C212  592   1.267   5.128   9.587 -0.7837  0.1081 -0.3253
    5SAPS  H12R  593   1.198   5.205   9.550 -0.1414  0.5350 -0.6452
    5SAPS  C213  594   1.345   5.058   9.485  1.1459 -0.2758 -0.7710
    5SAPS  H13R  595   1.380   4.958   9.519  1.2505 -0.1537 -0.5227
    5SAPS  H13S  596   1.439   5.116   9.471  1.3497 -0.6796 -1.0815
    5SAPS  C214  597   1.284   5.063   9.341 -0.0916  0.1669  0.1407
    5SAPS  H14R  598   1.174   5.068   9.333 -0.0615  0.0712 -0.3345
    5SAPS  C215  599   1.348   5.071   9.225 -0.1401 -0.3380 -0.1257
    5SAPS  H15R  600   1.290   5.084   9.132  0.2396  2.1604 -0.0311
    5SAPS  C216  601   1.497   5.066   9.208  0.3277  0.0228 -0.2094
    5SAPS  H16R  602   1.560   5.057   9.299 -0.0616  0.6265  0.1192
    5SAPS  H16S  603   1.516   5.166   9.164 -1.9707  1.1655  1.2999
    5SAPS  C217  604   1.523   4.958   9.096 -0.2162  0.6693 -0.1673
    5SAPS  H17R  605   1.454   4.977   9.011 -2.7663 -0.4922  1.5569
    5SAPS  H17S  606   1.502   4.858   9.140  1.2625  0.6380  0.4925
    5SAPS  C218  607   1.666   4.971   9.052 -0.4595  0.0554  0.8767
    5SAPS  H18R  608   1.674   5.079   9.027 -0.5141 -0.0210  0.5281
    5SAPS  H18S  609   1.735   4.935   9.132 -0.7815  0.5501  1.3829
    5SAPS  C219  610   1.695   4.882   8.928  0.2086 -0.5050 -0.5221
    5SAPS  H19R  611   1.611   4.898   8.857  0.4598 -1.2935 -0.9987
    5SAPS  H19S  612   1.687   4.773   8.945 -2.1523 -0.1529  0.9366
    5SAPS  C220  613   1.840   4.923   8.868 -0.2176  0.6968  0.3318
    5SAPS  H20R  614   1.820   5.020   8.819 -1.2861  1.4128  2.1430
    5SAPS  H20S  615   1.874   4.853   8.789  2.7257  2.6204 -0.1558
    5SAPS  H20T  616   1.915   4.924   8.950 -0.2421  1.2984  0.3450
    5SAPS   C33  617   1.430   4.365  10.225  0.0054  0.1718  0.0840
    5SAPS   H3X  618   1.395   4.470  10.234 -0.4049 -0.1955  3.7591
    5SAPS   H3Y  619   1.339   4.302  10.238 -0.2850  0.9486  2.0696
    5SAPS   C34  620   1.492   4.350  10.084  0.5875  0.5921  0.1277
    5SAPS   H4X  621   1.512   4.242  10.068 -0.6398 -0.0625  2.7041
    5SAPS   H4Y  622   1.590   4.403  10.084  0.3180  1.1875 -3.1943
    5SAPS   C35  623   1.405   4.412   9.980 -0.3660 -0.1671  0.3735
    5SAPS   H5X  624   1.406   4.523   9.986  0.3538  0.0104 -2.4472
    5SAPS   H5Y  625   1.299   4.380   9.988 -0.1308 -1.5902 -1.6105
    5SAPS   C36  626   1.435   4.362   9.836 -0.6744 -0.3894 -0.6167
    5SAPS   H6X  627   1.543   4.348   9.818 -0.5885 -0.3725 -0.1136
    5SAPS   H6Y  628   1.409   4.446   9.767  0.9190 -1.1399 -2.1479
    5SAPS   C37  629   1.346   4.243   9.791 -0.3135 -0.4933 -0.1911
    5SAPS   H7X  630   1.236   4.254   9.804  0.0055  1.6009  1.0726
    5SAPS   H7Y  631   1.370   4.148   9.844 -1.8115 -1.1888 -0.7451
    5SAPS   C38  632   1.381   4.214   9.644 -0.2154 -0.2209 -0.3288
    5SAPS   H8X  633   1.357   4.108   9.620 -0.8410 -0.7203  2.3737
    5SAPS   H8Y  634   1.490   4.229   9.628 -0.3243 -0.8840 -1.8448
    5SAPS   C39  635   1.296   4.298   9.542  0.8559 -0.4630 -0.1524
    5SAPS   H9X  636   1.298   4.408   9.562  1.1266 -0.2271 -1.4330
    5SAPS   H9Y  637   1.193   4.257   9.550  1.4852 -2.1384 -0.6054
    5SAPS  C310  638   1.334   4.268   9.400 -0.2250 -0.1550  0.0693
    5SAPS  H10X  639   1.445   4.274   9.394 -0.2897 -1.3267 -3.4568
    5SAPS  H10Y  640   1.298   4.336   9.319  1.5395  0.8576  0.1018
    5SAPS  C311  641   1.287   4.132   9.354  0.1639  0.3054 -0.9802
    5SAPS  H11X  642   1.180   4.114   9.374  0.2709  0.3083 -0.4093
    5SAPS  H11Y  643   1.345   4.048   9.398 -1.5560 -1.6319 -2.3086
    5SAPS  C312  644   1.308   4.119   9.197 -0.1434  0.2879  0.0214
    5SAPS  H12X  645   1.337   4.015   9.171  1.2414  0.1826  1.9061
    5SAPS  H12Y  646   1.383   4.192   9.159 -1.1164  1.2687 -0.0383
    5SAPS  C313  647   1.176   4.137   9.120 -0.0760  0.0391 -0.0419
    5SAPS  H13X  648   1.113   4.217   9.165  1.9007  2.4235 -1.3556
    5SAPS  H13Y  649   1.118   4.043   9.120  0.5176 -0.3310  0.0843
    5SAPS  C314  650   1.219   4.167   8.976  0.3778 -0.4905  0.0990
    5SAPS  H14X  651   1.302   4.094   8.958  2.3305  1.2398  1.8041
    5SAPS  H14Y  652   1.268   4.266   8.962 -0.6183 -0.0283 -0.0985
    5SAPS  C315  653   1.104   4.141   8.876 -0.6703  0.7787  0.0718
    5SAPS  H15X  654   1.057   4.040   8.882 -1.0317  0.8564 -1.1344
    5SAPS  H15Y  655   1.150   4.139   8.775 -0.7818 -2.4682  0.0344
    5SAPS  C316  656   0.988   4.240   8.889 -0.2646 -0.2141  0.5397
    5SAPS  H16X  657   1.038   4.339   8.880 -1.3301  0.3030  0.0955
    5SAPS  H16Y  658   0.933   4.248   8.985 -2.2207 -0.9494 -0.4892
    5SAPS  C317  659   0.892   4.229   8.772  1.0020 -0.7915 -0.1300
    5SAPS  H17X  660   0.838   4.132   8.780 -2.3680  0.9008 -1.4476
    5SAPS  H17Y  661   0.935   4.231   8.670 -1.6904 -0.4756 -1.2887
    5SAPS  C318  662   0.789   4.343   8.765  0.7314  0.8326  0.8569
    5SAPS  H18X  663   0.736   4.342   8.667  0.9915 -1.2540  0.7288
    5SAPS  H18Y  664   0.853   4.432   8.785  0.0233  1.0878  2.0009
    5SAPS  H18Z  665   0.715   4.337   8.847 -1.3241  0.2245 -1.0046
    6SAPS     N  666   1.079   3.761  11.085  0.9611  0.1037  0.6679
    6SAPS   HN1  667   1.171   3.745  11.132  0.4411  1.2597  2.1107
    6SAPS   HN2  668   1.010   3.683  11.089  2.5381 -1.3129  1.3158
    6SAPS   HN3  669   1.100   3.798  10.990  1.6095 -1.5976  0.1160
    6SAPS   C12  670   1.029   3.881  11.149 -0.3279 -0.0007  0.4551
    6SAPS  H12A  671   0.929   3.869  11.186 -0.4115  1.1728  0.6238
    6SAPS   C13  672   1.101   3.939  11.272  0.0914  0.0368  0.1194
    6SAPS  O13A  673   1.211   3.896  11.299 -0.3197  0.3137  0.1507
    6SAPS  O13B  674   1.052   4.045  11.329 -0.0304 -0.3173 -0.6387
    6SAPS   C11  675   1.034   3.982  11.033 -0.5827  0.0411 -0.0949
    6SAPS  H11A  676   1.135   4.009  10.996 -1.1012 -0.0034 -1.5885
    6SAPS  H11B  677   1.015   4.082  11.079 -1.8004  0.4172 -1.3590
    6SAPS     P  678   0.833   4.031  10.881 -0.0983 -0.1262 -0.4372
    6SAPS   O13  679   0.774   4.092  11.006  0.1784  0.2539  0.1778
    6SAPS   O14  680   0.869   4.121  10.770 -0.1124 -0.4110 -0.0749
    6SAPS   O12  681   0.957   3.947  10.921 -0.0370  0.5028  0.0694
    6SAPS   O11  682   0.726   3.930  10.836  0.4655  0.1823 -0.1485
    6SAPS    C1  683   0.755   3.792  10.823  0.0277 -0.4126  0.9321
    6SAPS    HA  684   0.861   3.761  10.835  0.3383 -0.0704 -0.7894
    6SAPS    HB  685   0.685   3.745  10.896 -1.0338 -1.5531 -0.7783
    6SAPS    C2  686   0.703   3.737  10.686 -0.2525  0.0464 -0.4858
    6SAPS    HS  687   0.735   3.633  10.667 -2.0043 -0.7103  0.6146
    6SAPS   O21  688   0.731   3.820  10.574 -0.3852 -0.4555  0.0204
    6SAPS   C21  689   0.820   3.779  10.481  0.3930 -0.6852 -0.2483
    6SAPS   O22  690   0.870   3.670  10.479 -0.1789 -0.5554 -0.4064
    6SAPS   C22  691   0.819   3.875  10.359  0.1564  0.4002 -0.0015
    6SAPS   H2R  692   0.713   3.873  10.326  0.1352  2.0319 -0.0597
    6SAPS   H2S  693   0.832   3.980  10.394 -0.3459  0.3942  0.2071
    6SAPS    C3  694   0.545   3.731  10.690 -0.0132  0.4186  0.0698
    6SAPS    HX  695   0.517   3.838  10.703  1.4205  0.6390  1.6130
    6SAPS    HY  696   0.512   3.689  10.788  1.3566  2.4734  1.4785
    6SAPS   O31  697   0.471   3.676  10.581  0.4381 -0.5449 -0.0720
    6SAPS   C31  698   0.456   3.541  10.584  0.1476 -0.9479  1.2352
    6SAPS   O32  699   0.502   3.470  10.669  0.0825  0.4084  0.1304
    6SAPS   C32  700   0.367   3.501  10.480 -0.0658  0.2312  0.0820
    6SAPS   H2X  701   0.337   3.586  10.415 -0.1385 -1.3413 -2.0244
    6SAPS   H2Y  702   0.276   3.465  10.531 -1.0565  0.3435 -1.5539
    6SAPS   C23  703   0.909   3.821  10.247 -0.2661  0.0626 -0.0762
    6SAPS   H3R  704   0.895   3.877  10.153  0.8749 -1.8695 -1.4318
    6SAPS   H3S  705   0.891   3.713  10.229 -1.9525  0.6382 -2.0249
    6SAPS   C24  706   1.055   3.825  10.283 -0.5403 -0.3566 -0.5347
    6SAPS   H4R  707   1.127   3.794  10.205  1.2729 -0.3181  1.0809
    6SAPS   H4S  708   1.078   3.749  10.361 -1.4844 -3.1576 -2.8904
    6SAPS   C25  709   1.118   3.957  10.318 -0.1125  0.0276 -0.6928
    6SAPS   H5R  710   1.126   3.969  10.428  1.6164 -1.6473 -0.6038
    6SAPS   C26  711   1.166   4.057  10.241  0.1191 -0.0279 -0.0905
    6SAPS   H6R  712   1.209   4.150  10.280 -1.9155  1.3512 -1.0533
    6SAPS   C27  713   1.185   4.067  10.092 -0.2537 -0.7433 -0.2415
    6SAPS   H7R  714   1.246   3.976  10.071  0.6809 -0.1321 -0.1720
    6SAPS   H7S  715   1.243   4.160  10.075  0.7510 -1.5407 -1.2614
    6SAPS   C28  716   1.059   4.064  10.006 -0.2903  0.2568 -0.4054
    6SAPS   H8R  717   0.982   4.137  10.037 -1.3930 -0.7071 -0.8384
    6SAPS   C29  718   1.032   3.986   9.903 -1.0822  0.3259  0.2810
    6SAPS   H9R  719   0.945   3.999   9.837 -1.4923 -0.0171  0.7433
    6SAPS  C210  720   1.133   3.895   9.839 -0.4039  0.8134 -0.5438
    6SAPS  H10R  721   1.193   3.839   9.914 -2.6538  1.1230  1.5561
    6SAPS  H10S  722   1.212   3.953   9.787  0.1762  1.3203  0.8982
    6SAPS  C211  723   1.064   3.792   9.755  0.0673  0.1893  0.5062
    6SAPS  H11R  724   1.023   3.706   9.809  1.6402 -0.1493  1.2083
    6SAPS  C212  725   1.058   3.786   9.620  0.5080  0.1845  0.8560
    6SAPS  H12R  726   1.014   3.700   9.567 -0.2002  1.9968 -1.5917
    6SAPS  C213  727   1.118   3.889   9.528  0.2000 -0.2322  0.0572
    6SAPS  H13R  728   1.229   3.890   9.538  0.3039  1.4792 -1.0797
    6SAPS  H13S  729   1.094   3.993   9.559  1.9425 -0.4469  2.3168
    6SAPS  C214  730   1.084   3.867   9.388  0.2373 -0.3964 -0.1086
    6SAPS  H14R  731   1.003   3.932   9.352  1.0348 -0.1704 -1.5571
    6SAPS  C215  732   1.163   3.800   9.300  0.1933 -0.3450  0.1012
    6SAPS  H15R  733   1.131   3.788   9.196 -2.3640  1.5638  0.6074
    6SAPS  C216  734   1.289   3.723   9.338  0.2407  0.1713  0.5886
    6SAPS  H16R  735   1.256   3.620   9.359  3.7153 -0.4884  3.2147
    6SAPS  H16S  736   1.336   3.739   9.437 -0.9733  2.3510  0.8438
    6SAPS  C217  737   1.405   3.716   9.233 -0.0002 -0.7420  0.1853
    6SAPS  H17R  738   1.468   3.626   9.252  1.2168  0.1461  0.4422
    6SAPS  H17S  739   1.472   3.804   9.248 -0.1849 -0.2732 -1.7147
    6SAPS  C218  740   1.353   3.704   9.082  0.4296  0.2166  0.1005
    6SAPS  H18R  741   1.277   3.782   9.060  0.7756  0.7826  0.9000
    6SAPS  H18S  742   1.304   3.605   9.082 -1.2881  1.0462  0.3202
    6SAPS  C219  743   1.470   3.695   8.977  0.6191  0.5070 -0.0656
    6SAPS  H19R  744   1.535   3.607   8.996  2.1961  0.9929 -2.9630
    6SAPS  H19S  745   1.523   3.792   8.992  2.6532 -0.4050 -1.1399
    6SAPS  C220  746   1.423   3.687   8.835 -0.1384 -0.2619 -0.0981
    6SAPS  H20R  747   1.347   3.607   8.825 -0.4665  0.1845 -1.3448
    6SAPS  H20S  748   1.508   3.660   8.769  0.1664 -1.5542  0.8205
    6SAPS  H20T  749   1.384   3.787   8.806  1.7358  0.2528 -0.9244
    6SAPS   C33  750   0.426   3.377  10.404 -0.4743  0.0563  0.2131
    6SAPS   H3X  751   0.506   3.328  10.462  0.6619  1.4186 -0.1804
    6SAPS   H3Y  752   0.474   3.424  10.316 -0.8057  3.6195  1.8489
    6SAPS   C34  753   0.311   3.278  10.352 -0.1127  0.4316  0.3368
    6SAPS   H4X  754   0.220   3.340  10.337 -1.0023 -1.1889 -1.0994
    6SAPS   H4Y  755   0.282   3.223  10.444  0.1989 -1.0964 -0.4651
    6SAPS   C35  756   0.325   3.193  10.233 -0.2519 -0.6618 -0.4041
    6SAPS   H5X  757   0.226   3.149  10.209 -0.6777  0.9756 -1.7407
    6SAPS   H5Y  758   0.387   3.103  10.252 -1.9691 -0.9755  4.2074
    6SAPS   C36  759   0.378   3.263  10.111 -0.1423 -0.7384  0.0754
    6SAPS   H6X  760   0.487   3.268  10.133 -0.5614  3.6440  1.7183
    6SAPS   H6Y  761   0.347   3.370  10.102  0.5030 -0.4599  1.0242
    6SAPS   C37  762   0.348   3.196   9.977  0.7282  0.2215  0.5029
    6SAPS   H7X  763   0.239   3.206   9.960  0.4914 -0.9426  1.2849
    6SAPS   H7Y  764   0.390   3.093   9.986  0.1860  0.0346  0.8874
    6SAPS   C38  765   0.437   3.249   9.867 -0.0823 -0.0171 -0.3633
    6SAPS   H8X  766   0.545   3.232   9.891 -0.2264 -0.1903  0.1691
    6SAPS   H8Y  767   0.423   3.358   9.851  0.0611  0.1051  0.3223
    6SAPS   C39  768   0.407   3.173   9.736 -0.1074  0.4507 -0.4167
    6SAPS   H9X  769   0.299   3.183   9.711  0.3306  2.4374 -1.6125
    6SAPS   H9Y  770   0.416   3.064   9.756  0.9374  0.5000 -0.6027
    6SAPS  C310  771   0.495   3.194   9.619 -0.5714  0.1874  0.2001
    6SAPS  H10X  772   0.591   3.147   9.649  1.3590  2.1019 -2.7189
    6SAPS  H10Y  773   0.512   3.301   9.594  0.3219 -0.4271 -2.0451
    6SAPS  C311  774   0.453   3.120   9.488 -0.4377 -0.1047  0.1191
    6SAPS  H11X  775   0.361   3.170   9.450 -0.1306 -0.5012 -1.1679
    6SAPS  H11Y  776   0.436   3.013   9.512  0.3689 -0.0380  1.0276
    6SAPS  C312  777   0.556   3.135   9.369  0.1133  0.3310  0.1821
    6SAPS  H12X  778   0.652   3.090   9.401 -0.4001  0.2474  1.6671
    6SAPS  H12Y  779   0.580   3.242   9.351 -0.1467  0.2804 -0.4884
    6SAPS  C313  780   0.513   3.066   9.235 -0.2125  0.0421  0.1514
    6SAPS  H13X  781   0.411   3.107   9.218 -0.0691  0.4406  0.2564
    6SAPS  H13Y  782   0.517   2.957   9.258  0.1513 -0.3719 -1.8193
    6SAPS  C314  783   0.600   3.123   9.118 -0.2982 -0.0282 -0.0384
    6SAPS  H14X  784   0.710   3.116   9.132 -0.3262  0.3941  0.4142
    6SAPS  H14Y  785   0.578   3.231   9.106  1.9845  0.4956  0.2581
    6SAPS  C315  786   0.559   3.051   8.985  0.2616 -0.0160  0.2557
    6SAPS  H15X  787   0.451   3.060   8.960  1.1014 -0.8829 -3.9639
    6SAPS  H15Y  788   0.575   2.942   8.999 -0.8197 -0.3629 -1.0868
    6SAPS  C316  789   0.649   3.091   8.862 -0.4228 -0.0416 -0.6093
    6SAPS  H16X  790   0.755   3.086   8.894  0.3350 -1.1540 -3.1493
    6SAPS  H16Y  791   0.619   3.197   8.850 -1.3020 -0.2847 -0.6536
    6SAPS  C317  792   0.617   3.023   8.728 -0.6117  0.3701 -0.9317
    6SAPS  H17X  793   0.679   3.080   8.656  0.9281 -1.5854 -1.2148
    6SAPS  H17Y  794   0.509   3.019   8.700 -0.7760  0.7518 -0.3389
    6SAPS  C318  795   0.666   2.877   8.715 -0.1018 -0.1746 -0.0315
    6SAPS  H18X  796   0.772   2.866   8.748 -0.2046 -2.2524 -0.3233
    6SAPS  H18Y  797   0.652   2.836   8.613 -0.1787 -1.0499  0.3293
    6SAPS  H18Z  798   0.615   2.816   8.792 -1.0861 -2.5867 -2.5207
    7SAPS     N  799   2.727   4.823  10.934 -0.1291  0.2798  0.3100
    7SAPS   HN1  800   2.641   4.770  10.906  1.9824 -2.4105 -1.2902
    7SAPS   HN2  801   2.685   4.887  11.004  0.4392  0.2117  0.7100
    7SAPS   HN3  802   2.751   4.878  10.850 -0.0744 -1.0826 -0.5878
    7SAPS   C12  803   2.843   4.750  10.990  0.2686  0.7043 -0.0671
    7SAPS  H12A  804   2.901   4.820  11.049  0.4743  0.1349  0.4046
    7SAPS   C13  805   2.805   4.648  11.101  0.2914 -0.1553  0.1966
    7SAPS  O13A  806   2.687   4.620  11.117 -0.1219  0.3155 -0.5229
    7SAPS  O13B  807   2.897   4.589  11.157 -0.4341  0.2988 -0.1501
    7SAPS   C11  808   2.928   4.673  10.885 -0.4263  0.3896  0.7278
    7SAPS  H11A  809   2.865   4.588  10.852  1.0150 -0.6765  0.6733
    7SAPS  H11B  810   3.019   4.631  10.932 -1.4523 -0.3688  2.0598
    7SAPS     P  811   3.056   4.730  10.671  0.3080  0.1482 -0.4191
    7SAPS   O13  812   3.056   4.845  10.575  0.1184 -0.3081  0.1469
    7SAPS   O14  813   3.186   4.695  10.728  0.7253 -0.1883 -0.2806
    7SAPS   O12  814   2.956   4.769  10.786 -0.0086 -0.5769 -0.0979
    7SAPS   O11  815   2.987   4.605  10.611  0.0927 -0.1816  0.7071
    7SAPS    C1  816   2.854   4.622  10.555 -0.0441 -0.0920 -0.1147
    7SAPS    HA  817   2.796   4.530  10.580 -0.5780  0.2718  0.0045
    7SAPS    HB  818   2.795   4.706  10.598 -1.6844 -0.9570 -0.6110
    7SAPS    C2  819   2.851   4.611  10.405 -0.1206  0.5960  0.1256
    7SAPS    HS  820   2.899   4.515  10.378  0.3818  0.8927 -0.0596
    7SAPS   O21  821   2.922   4.720  10.343 -0.0218  0.3645  0.0992
    7SAPS   C21  822   2.995   4.687  10.232  0.1887  0.0705  0.2817
    7SAPS   O22  823   3.021   4.577  10.191  0.0986  0.1146  0.0531
    7SAPS   C22  824   3.037   4.818  10.166 -0.3829 -0.1761  0.2896
    7SAPS   H2R  825   3.075   4.884  10.247  0.0386 -2.4622  2.0273
    7SAPS   H2S  826   3.119   4.801  10.093 -0.2925  1.5981 -0.0399
    7SAPS    C3  827   2.701   4.607  10.359 -0.1610  0.3691 -0.0380
    7SAPS    HX  828   2.649   4.702  10.383  1.9227  1.0471  2.0416
    7SAPS    HY  829   2.654   4.527  10.419 -0.7812 -0.0461 -1.0787
    7SAPS   O31  830   2.690   4.590  10.222 -0.4832  0.4852 -0.0396
    7SAPS   C31  831   2.724   4.463  10.173 -0.2637  0.7040 -0.2624
    7SAPS   O32  832   2.747   4.369  10.248  0.0707  0.4420 -0.4406
    7SAPS   C32  833   2.735   4.456  10.018  0.0308  0.4243  0.5050
    7SAPS   H2X  834   2.810   4.533   9.990  0.7135 -0.6701 -0.7491
    7SAPS   H2Y  835   2.629   4.471   9.989 -1.0032 -2.9673  2.1524
    7SAPS   C23  836   2.922   4.878  10.085  0.4505  0.3052  0.4506
    7SAPS   H3R  837   2.839   4.908  10.152 -1.2860  2.3980 -2.5303
    7SAPS   H3S  838   2.881   4.800  10.018 -1.3170  2.1730 -0.6607
    7SAPS   C24  839   2.974   4.995  10.004  0.4878  0.3280 -0.2931
    7SAPS   H4R  840   2.899   5.049   9.943  2.4750  1.9587 -1.3505
    7SAPS   H4S  841   3.048   4.961   9.928  1.3437  1.7901 -0.1326
    7SAPS   C25  842   3.043   5.100  10.092 -0.2192  0.3227 -0.0181
    7SAPS   H5R  843   3.024   5.093  10.200  3.0042 -1.5546  0.4851
    7SAPS   C26  844   3.128   5.196  10.048  0.1255  0.0386 -0.4731
    7SAPS   H6R  845   3.182   5.263  10.117 -1.1483 -0.0494  0.6228
    7SAPS   C27  846   3.158   5.223   9.897 -0.2750 -0.6468 -0.4544
    7SAPS   H7R  847   3.084   5.158   9.844 -1.5996 -0.1686  0.7759
    7SAPS   H7S  848   3.257   5.176   9.876 -0.4572 -2.0444  1.6415
    7SAPS   C28  849   3.165   5.364   9.844  0.3010 -0.7697  0.6822
    7SAPS   H8R  850   3.231   5.429   9.904  0.3867  0.5626 -0.8240
    7SAPS   C29  851   3.099   5.415   9.733  0.2168  0.4324 -0.3907
    7SAPS   H9R  852   3.114   5.520   9.708  0.4589  0.6365  0.5814
    7SAPS  C210  853   3.006   5.345   9.643  0.1837 -0.3969 -0.1922
    7SAPS  H10R  854   3.037   5.241   9.619  3.4500  0.2844  0.7173
    7SAPS  H10S  855   2.994   5.395   9.544 -1.1089 -2.3634 -1.0587
    7SAPS  C211  856   2.869   5.333   9.707  0.3253 -0.1177  0.2013
    7SAPS  H11R  857   2.850   5.250   9.776  0.6837  0.0977  0.5587
    7SAPS  C212  858   2.765   5.406   9.669  0.2291  0.4992 -0.0376
    7SAPS  H12R  859   2.669   5.390   9.720 -0.1636 -1.2074 -1.2810
    7SAPS  C213  860   2.769   5.527   9.575  0.3471  0.3655  0.0371
    7SAPS  H13R  861   2.793   5.477   9.479  2.9533  2.2134 -0.3419
    7SAPS  H13S  862   2.865   5.582   9.583  0.2188  0.5889  0.0286
    7SAPS  C214  863   2.643   5.613   9.560  0.2724 -0.5951 -0.0452
    7SAPS  H14R  864   2.552   5.568   9.601  0.2911 -0.9198 -0.3590
    7SAPS  C215  865   2.650   5.731   9.500  0.5439  1.0057 -0.1640
    7SAPS  H15R  866   2.552   5.776   9.478 -0.5394 -1.2002 -0.0061
    7SAPS  C216  867   2.771   5.792   9.436 -0.2480 -0.2279  0.0840
    7SAPS  H16R  868   2.857   5.726   9.411  1.6340  1.4622  1.8401
    7SAPS  H16S  869   2.806   5.866   9.511  1.5413  0.3860 -1.3224
    7SAPS  C217  870   2.737   5.872   9.306 -0.1735 -0.1696 -0.9098
    7SAPS  H17R  871   2.822   5.941   9.286 -0.5562  1.3503  2.3981
    7SAPS  H17S  872   2.649   5.938   9.314  0.5874  0.8985 -1.2632
    7SAPS  C218  873   2.711   5.776   9.188 -0.1927  0.4882  0.3369
    7SAPS  H18R  874   2.623   5.710   9.208 -1.2397  1.2792 -1.5304
    7SAPS  H18S  875   2.806   5.722   9.170  0.5777  1.5427  1.2024
    7SAPS  C219  876   2.680   5.845   9.053 -0.1917  0.5094 -0.0318
    7SAPS  H19R  877   2.752   5.926   9.028 -1.0577  1.6967  1.2164
    7SAPS  H19S  878   2.586   5.904   9.064 -1.5203 -1.9757  2.6265
    7SAPS  C220  879   2.651   5.751   8.933  0.1397 -0.5560 -0.3209
    7SAPS  H20R  880   2.572   5.682   8.970  0.5072 -0.6210  0.3608
    7SAPS  H20S  881   2.744   5.700   8.899  0.1976 -1.0731  0.5725
    7SAPS  H20T  882   2.599   5.791   8.844 -4.0113 -0.4866  2.0174
    7SAPS   C33  883   2.800   4.326   9.963  0.0931 -0.0609 -0.0611
    7SAPS   H3X  884   2.728   4.242   9.966 -0.4612  0.2907 -2.4204
    7SAPS   H3Y  885   2.871   4.288  10.040 -1.2481 -1.2059  0.6350
    7SAPS   C34  886   2.869   4.339   9.828 -0.1638 -0.6642  0.8391
    7SAPS   H4X  887   2.922   4.243   9.816  2.1649  0.7121 -0.1841
    7SAPS   H4Y  888   2.953   4.412   9.829  1.0186 -1.9794 -0.8664
    7SAPS   C35  889   2.776   4.347   9.711  0.4972  0.3458 -0.4503
    7SAPS   H5X  890   2.742   4.453   9.717  0.9370  0.3404  2.9389
    7SAPS   H5Y  891   2.695   4.274   9.732  0.3297  0.9955  1.2520
    7SAPS   C36  892   2.827   4.325   9.569 -0.1042  0.0118 -0.5740
    7SAPS   H6X  893   2.768   4.380   9.493 -0.2981  0.5915 -0.0070
    7SAPS   H6Y  894   2.815   4.215   9.557 -1.0353  0.2269 -1.5927
    7SAPS   C37  895   2.976   4.366   9.562 -0.0871 -0.6231  0.5070
    7SAPS   H7X  896   3.038   4.337   9.650  2.4280  0.1358 -0.9585
    7SAPS   H7Y  897   2.985   4.476   9.551 -0.8365 -0.4021  2.0757
    7SAPS   C38  898   3.038   4.304   9.437 -0.0729 -0.1974 -0.2394
    7SAPS   H8X  899   2.964   4.325   9.357  2.1296 -0.7986 -2.5044
    7SAPS   H8Y  900   3.054   4.195   9.451 -1.8475 -0.6264 -1.4276
    7SAPS   C39  901   3.171   4.370   9.385 -0.6442  0.3376  0.4283
    7SAPS   H9X  902   3.261   4.323   9.430 -1.0587 -1.3786 -0.4979
    7SAPS   H9Y  903   3.165   4.473   9.427  0.1752  1.2173 -1.5422
    7SAPS  C310  904   3.187   4.362   9.235 -0.2113  0.2296  0.4688
    7SAPS  H10X  905   3.085   4.370   9.194 -0.8914  1.8892  2.3706
    7SAPS  H10Y  906   3.227   4.264   9.202  0.0838 -0.7140  3.4791
    7SAPS  C311  907   3.282   4.468   9.170 -0.1854 -0.1515  0.0769
    7SAPS  H11X  908   3.383   4.470   9.216  0.5330 -1.6428 -1.3888
    7SAPS  H11Y  909   3.245   4.572   9.177  1.0769  0.3986 -1.0473
    7SAPS  C312  910   3.294   4.420   9.024  0.0945  0.2568 -0.3615
    7SAPS  H12X  911   3.190   4.415   8.985 -0.4714  0.0592  1.1370
    7SAPS  H12Y  912   3.345   4.321   9.019  1.2424  0.8736 -1.1551
    7SAPS  C313  913   3.372   4.524   8.936  0.1368 -0.0537 -0.5282
    7SAPS  H13X  914   3.481   4.510   8.953  0.2765  3.0540  1.4534
    7SAPS  H13Y  915   3.360   4.629   8.970  0.8310  0.0606 -0.6195
    7SAPS  C314  916   3.349   4.506   8.784 -0.2704  0.7740 -0.1717
    7SAPS  H14X  917   3.365   4.398   8.763  2.9207  0.2394  4.3236
    7SAPS  H14Y  918   3.433   4.560   8.735  0.6551 -0.6178 -0.1510
    7SAPS  C315  919   3.211   4.553   8.736 -0.4616 -0.3152 -0.6304
    7SAPS  H15X  920   3.191   4.659   8.763  2.1564 -0.1808  1.0392
    7SAPS  H15Y  921   3.136   4.486   8.784  0.7354 -0.4023  1.1880
    7SAPS  C316  922   3.201   4.534   8.583 -0.5772 -0.4387 -0.4596
    7SAPS  H16X  923   3.234   4.431   8.559  1.0241  0.1250 -0.7444
    7SAPS  H16Y  924   3.254   4.612   8.523  0.1294 -0.2833  0.3525
    7SAPS  C317  925   3.054   4.540   8.538 -0.0096 -0.3070  0.6703
    7SAPS  H17X  926   3.017   4.645   8.543 -0.7537 -0.5259 -0.0164
    7SAPS  H17Y  927   2.995   4.494   8.620  0.2224 -1.1467  0.3722
    7SAPS  C318  928   3.016   4.488   8.402 -0.1444 -0.4113  0.5144
    7SAPS  H18X  929   3.065   4.388   8.397 -0.4604 -0.5475  0.1620
    7SAPS  H18Y  930   3.058   4.545   8.316 -0.3019 -0.5633  0.3369
    7SAPS  H18Z  931   2.906   4.490   8.387 -0.0485  0.3429 -0.1435
    8SAPS     N  932   6.779   5.915  11.367  0.0208 -0.9295 -0.5599
    8SAPS   HN1  933   6.768   6.013  11.399  2.3648 -1.5676  2.4598
    8SAPS   HN2  934   6.696   5.889  11.310  0.1081 -0.9473 -0.6807
    8SAPS   HN3  935   6.780   5.855  11.452 -0.9724  0.6671  0.6021
    8SAPS   C12  936   6.900   5.893  11.290  0.2975  0.3958  0.1138
    8SAPS  H12A  937   6.909   5.957  11.204  0.8666 -0.1893 -0.2705
    8SAPS   C13  938   7.038   5.908  11.351 -0.6726  0.4321  0.7982
    8SAPS  O13A  939   7.041   5.932  11.476 -0.2260 -0.3735 -0.5855
    8SAPS  O13B  940   7.143   5.900  11.278  0.3669 -0.7200  0.3938
    8SAPS   C11  941   6.898   5.740  11.244  0.2306 -0.2714 -0.0551
    8SAPS  H11A  942   6.906   5.681  11.338 -0.9477  1.7743  1.3617
    8SAPS  H11B  943   6.992   5.720  11.187  1.5653 -2.7116  2.8679
    8SAPS     P  944   6.771   5.720  11.017 -0.4425  0.0917  0.1029
    8SAPS   O13  945   6.662   5.640  10.967 -0.0856  0.4791  0.2700
    8SAPS   O14  946   6.757   5.861  10.989  0.5646 -0.4477 -0.1388
    8SAPS   O12  947   6.785   5.697  11.169  0.1148  0.1010 -0.1673
    8SAPS   O11  948   6.902   5.672  10.953 -0.1446  0.2297  0.1352
    8SAPS    C1  949   7.004   5.747  10.891  0.4933 -0.9055  0.2466
    8SAPS    HA  950   7.033   5.841  10.944 -0.3754 -0.5456  0.0957
    8SAPS    HB  951   7.097   5.689  10.875 -0.1052 -1.1802 -2.5237
    8SAPS    C2  952   6.954   5.788  10.748 -0.3141 -0.2294  0.3463
    8SAPS    HS  953   6.866   5.856  10.752  0.3616  0.6492  0.2384
    8SAPS   O21  954   6.945   5.671  10.668  0.0521  0.2099 -0.9139
    8SAPS   C21  955   6.818   5.625  10.660  0.0359 -0.5170  0.3950
    8SAPS   O22  956   6.721   5.697  10.682 -0.1947  0.7079 -0.2346
    8SAPS   C22  957   6.809   5.483  10.596  0.0273  0.5956  0.4513
    8SAPS   H2R  958   6.911   5.440  10.603  0.5576  2.0524  1.8161
    8SAPS   H2S  959   6.739   5.429  10.663  0.6507 -1.3950 -0.4724
    8SAPS    C3  960   7.067   5.863  10.667  0.3856 -0.3683 -0.1803
    8SAPS    HX  961   7.159   5.800  10.670  2.4151  2.4107 -1.8008
    8SAPS    HY  962   7.084   5.951  10.731  0.8954 -0.6298  0.0484
    8SAPS   O31  963   7.044   5.900  10.531 -0.8133  0.7323  0.0123
    8SAPS   C31  964   7.132   5.974  10.479  0.3967 -0.2241  0.6481
    8SAPS   O32  965   7.239   6.004  10.527 -0.2318 -0.0103  0.6708
    8SAPS   C32  966   7.077   6.038  10.348 -0.4119 -0.0409  0.4361
    8SAPS   H2X  967   7.037   6.136  10.383 -3.2007 -1.5320  1.6535
    8SAPS   H2Y  968   6.998   5.973  10.303 -0.9638  1.9614 -1.5979
    8SAPS   C23  969   6.747   5.479  10.452  0.0322 -0.0209 -0.9202
    8SAPS   H3R  970   6.640   5.510  10.444  0.2823  1.3876  0.7513
    8SAPS   H3S  971   6.738   5.371  10.429 -0.7401  0.0114 -0.7933
    8SAPS   C24  972   6.838   5.553  10.357 -0.4547  0.1013 -0.5152
    8SAPS   H4R  973   6.859   5.660  10.379  0.3481  0.1583 -1.4961
    8SAPS   H4S  974   6.776   5.551  10.265  0.3266 -1.4003 -1.0356
    8SAPS   C25  975   6.977   5.497  10.328  0.0010 -0.0800 -1.0553
    8SAPS   H5R  976   7.021   5.460  10.421 -0.7309  1.2098 -0.1763
    8SAPS   C26  977   7.050   5.484  10.217 -0.3605 -0.0188 -0.2745
    8SAPS   H6R  978   7.147   5.434  10.223  0.1610  1.1723  1.9388
    8SAPS   C27  979   7.015   5.529  10.084 -0.3406  0.3982 -0.6779
    8SAPS   H7R  980   6.904   5.527  10.078 -0.3428 -1.6571 -0.1797
    8SAPS   H7S  981   7.045   5.455  10.007  2.6227  2.6090 -1.7816
    8SAPS   C28  982   7.068   5.663  10.038  0.7406 -0.6717  0.0062
    8SAPS   H8R  983   7.138   5.711  10.107  0.9271  1.1312 -1.4086
    8SAPS   C29  984   7.033   5.722   9.921  0.0501 -0.0488  0.8347
    8SAPS   H9R  985   7.088   5.813   9.893  0.3551 -0.5149 -0.1199
    8SAPS  C210  986   6.937   5.670   9.821 -0.0273  0.4855  0.3303
    8SAPS  H10R  987   6.851   5.619   9.869 -2.5480  2.0419 -2.3630
    8SAPS  H10S  988   6.985   5.595   9.754  1.1803 -0.0420  1.7612
    8SAPS  C211  989   6.873   5.783   9.749 -0.3882 -0.0519  0.3703
    8SAPS  H11R  990   6.789   5.824   9.807 -0.9600 -1.4889  0.5992
    8SAPS  C212  991   6.897   5.805   9.617 -0.5253  0.6971  0.1693
    8SAPS  H12R  992   6.846   5.886   9.565  1.0083  0.0422 -2.4335
    8SAPS  C213  993   7.006   5.744   9.529  0.3344 -0.6769 -0.1537
    8SAPS  H13R  994   7.070   5.674   9.587 -0.1029 -0.4724  0.5727
    8SAPS  H13S  995   7.075   5.824   9.496  2.1999 -1.7176  1.1221
    8SAPS  C214  996   6.950   5.680   9.403  0.0228 -0.7839 -0.7182
    8SAPS  H14R  997   6.917   5.578   9.426 -0.6562 -0.6569 -1.1105
    8SAPS  C215  998   6.947   5.726   9.278 -0.2878  0.2084  0.2570
    8SAPS  H15R  999   6.894   5.669   9.200  0.3358 -2.6285  1.8281
    8SAPS  C216 1000   6.996   5.863   9.229  0.0396  0.3406  0.4751
    8SAPS  H16R 1001   7.044   5.856   9.130 -0.8453 -2.9563  0.2339
    8SAPS  H16S 1002   7.073   5.901   9.299  0.1971  3.2817 -1.2295
    8SAPS  C217 1003   6.893   5.976   9.215 -0.7010 -0.6683  0.7935
    8SAPS  H17R 1004   6.911   6.037   9.306  1.0624  0.6948 -0.4375
    8SAPS  H17S 1005   6.793   5.931   9.234 -1.0298 -0.5730 -0.6634
    8SAPS  C218 1006   6.893   6.051   9.086  1.0292  0.5392 -0.3453
    8SAPS  H18R 1007   6.869   5.996   8.992 -0.6770  1.3092 -0.3652
    8SAPS  H18S 1008   6.995   6.092   9.070  2.0113 -1.0806  1.5482
    8SAPS  C219 1009   6.789   6.174   9.075  0.6544 -0.7846  0.0566
    8SAPS  H19R 1010   6.828   6.260   9.133 -2.5557  1.0907 -0.4341
    8SAPS  H19S 1011   6.697   6.132   9.121 -0.5791  1.3446 -0.4199
    8SAPS  C220 1012   6.768   6.209   8.927  0.4432 -0.3405 -0.8697
    8SAPS  H20R 1013   6.698   6.294   8.912 -0.8181 -1.4351 -1.3142
    8SAPS  H20S 1014   6.716   6.134   8.863 -1.0312  0.0455 -0.1395
    8SAPS  H20T 1015   6.864   6.231   8.875  1.0229  4.6783  2.0273
    8SAPS   C33 1016   7.192   6.072  10.254 -0.4398 -0.5234  0.3034
    8SAPS   H3X 1017   7.259   5.988  10.228  0.3474 -0.4776  2.1206
    8SAPS   H3Y 1018   7.266   6.140  10.303  0.3613 -2.3315  1.6568
    8SAPS   C34 1019   7.141   6.101  10.110 -0.6372  0.0291 -0.2399
    8SAPS   H4X 1020   7.060   6.176  10.107 -0.4768  0.2718  0.9172
    8SAPS   H4Y 1021   7.096   6.006  10.075 -1.7392  0.5656 -0.2876
    8SAPS   C35 1022   7.260   6.141  10.020 -0.8307 -0.1118  0.0360
    8SAPS   H5X 1023   7.333   6.058  10.024  1.9266  2.2105 -0.0432
    8SAPS   H5Y 1024   7.310   6.231  10.062  0.6085 -1.7173  1.7946
    8SAPS   C36 1025   7.233   6.158   9.864 -0.5220 -0.4235  0.5153
    8SAPS   H6X 1026   7.160   6.241   9.853  0.3076  1.0489  4.8942
    8SAPS   H6Y 1027   7.172   6.068   9.842 -2.8582  0.5952  2.5714
    8SAPS   C37 1028   7.359   6.170   9.781  0.3868 -0.1000  0.1802
    8SAPS   H7X 1029   7.417   6.075   9.781  0.6807  0.0591  2.5075
    8SAPS   H7Y 1030   7.434   6.238   9.827 -0.1875  0.5430  0.1734
    8SAPS   C38 1031   7.331   6.214   9.629  0.1437  0.3222  0.1817
    8SAPS   H8X 1032   7.429   6.222   9.578 -0.1174 -1.1325 -0.5766
    8SAPS   H8Y 1033   7.277   6.311   9.636  0.2026  0.5473 -2.0674
    8SAPS   C39 1034   7.252   6.111   9.549  0.6445  0.0713 -0.0789
    8SAPS   H9X 1035   7.150   6.105   9.593 -0.2438  1.9783 -1.8379
    8SAPS   H9Y 1036   7.305   6.015   9.568 -0.7914 -0.2971  2.3299
    8SAPS  C310 1037   7.237   6.139   9.402 -1.0903  0.4315 -0.3109
    8SAPS  H10X 1038   7.192   6.241   9.409 -0.0556  0.9668 -1.3649
    8SAPS  H10Y 1039   7.163   6.070   9.357 -0.9192  0.1007 -0.0880
    8SAPS  C311 1040   7.374   6.157   9.330 -0.3052  0.9125  0.4185
    8SAPS  H11X 1041   7.444   6.076   9.358 -2.7641 -1.0517  0.9982
    8SAPS  H11Y 1042   7.423   6.253   9.358  0.4633  0.5309  0.3840
    8SAPS  C312 1043   7.361   6.139   9.184 -0.6362 -0.3270  0.4876
    8SAPS  H12X 1044   7.279   6.068   9.160 -0.4325  0.5224 -3.0263
    8SAPS  H12Y 1045   7.446   6.083   9.140 -2.4460 -2.8303  0.0546
    8SAPS  C313 1046   7.332   6.266   9.106 -0.1118 -0.3593 -0.0890
    8SAPS  H13X 1047   7.405   6.349   9.108 -0.1205 -0.3143 -1.3849
    8SAPS  H13Y 1048   7.236   6.310   9.140 -0.1964 -1.7609  1.5699
    8SAPS  C314 1049   7.304   6.238   8.957 -0.4004  0.5747 -0.4353
    8SAPS  H14X 1050   7.227   6.160   8.934 -0.4740  0.8868 -1.2792
    8SAPS  H14Y 1051   7.400   6.204   8.914 -0.9743 -1.6657 -0.0377
    8SAPS  C315 1052   7.227   6.351   8.892 -0.0930 -0.3563 -0.6394
    8SAPS  H15X 1053   7.287   6.444   8.901 -1.8455  0.6374  1.3982
    8SAPS  H15Y 1054   7.143   6.372   8.963  0.4564 -2.3528  0.6352
    8SAPS  C316 1055   7.183   6.329   8.746 -0.1569  0.4020  0.0649
    8SAPS  H16X 1056   7.104   6.402   8.721  1.0781  1.6046 -0.3709
    8SAPS  H16Y 1057   7.139   6.227   8.747 -0.9165  0.7253 -0.0035
    8SAPS  C317 1058   7.303   6.345   8.657 -0.0913  0.5689 -0.0059
    8SAPS  H17X 1059   7.386   6.294   8.709  0.9710  3.1227  0.8915
    8SAPS  H17Y 1060   7.324   6.454   8.658  3.1214  0.0253  3.9414
    8SAPS  C318 1061   7.266   6.300   8.516 -0.4196  0.2407  0.4809
    8SAPS  H18X 1062   7.323   6.356   8.440 -0.2346  0.3460  0.6983
    8SAPS  H18Y 1063   7.157   6.315   8.499 -0.9514 -1.6069  2.0531
    8SAPS  H18Z 1064   7.293   6.192   8.511  1.3977  0.7108 -0.0188
    9SAPS     N 1065   3.136   1.365   6.449  0.0370 -0.0912 -0.2258
    9SAPS   HN1 1066   3.113   1.451   6.395 -0.4307  2.0724  3.2462
    9SAPS   HN2 1067   3.191   1.292   6.399 -1.1350 -1.4216  0.3703
    9SAPS   HN3 1068   3.052   1.312   6.480 -0.6478  1.1404  0.0598
    9SAPS   C12 1069   3.223   1.412   6.559  0.0395 -0.0576  1.2517
    9SAPS  H12A 1070   3.175   1.462   6.642 -2.1842 -0.0129 -0.0039
    9SAPS   C13 1071   3.301   1.303   6.632 -0.0171  0.5021  0.8610
    9SAPS  O13A 1072   3.276   1.181   6.611  0.5066  0.2925 -0.3381
    9SAPS  O13B 1073   3.366   1.327   6.736 -0.2869 -0.0956  0.2732
    9SAPS   C11 1074   3.318   1.505   6.489  0.0814  0.9567  0.1133
    9SAPS  H11A 1075   3.373   1.449   6.410 -0.9870 -0.5040  0.3931
    9SAPS  H11B 1076   3.408   1.529   6.550  0.4636 -2.6657  1.1158
    9SAPS     P 1077   3.201   1.734   6.492 -0.6820  0.1649  0.2254
    9SAPS   O13 1078   3.200   1.844   6.392  0.0083 -0.5916 -0.3949
    9SAPS   O14 1079   3.069   1.689   6.546  0.0227 -0.3117 -0.2689
    9SAPS   O12 1080   3.256   1.610   6.413 -0.2635 -0.2061  0.1741
    9SAPS   O11 1081   3.312   1.762   6.601 -0.7771  0.3490 -0.4263
    9SAPS    C1 1082   3.298   1.737   6.743 -0.5722  0.1038  0.8901
    9SAPS    HA 1083   3.217   1.663   6.761 -0.0296 -1.1175 -1.4928
    9SAPS    HB 1084   3.391   1.691   6.782 -0.8892 -0.9676  0.3990
    9SAPS    C2 1085   3.275   1.870   6.818  0.3505  0.6618  0.2218
    9SAPS    HS 1086   3.183   1.917   6.777  0.2655 -0.1390 -0.5210
    9SAPS   O21 1087   3.395   1.953   6.812  0.5584 -0.5593 -0.0705
    9SAPS   C21 1088   3.366   2.091   6.811  0.1243 -0.5331  0.2911
    9SAPS   O22 1089   3.261   2.143   6.794 -0.5804  0.3682 -0.1415
    9SAPS   C22 1090   3.502   2.164   6.831  0.0858 -0.6325  0.5136
    9SAPS   H2R 1091   3.548   2.160   6.729  0.5584 -0.2763  0.7111
    9SAPS   H2S 1092   3.474   2.268   6.856  0.5738 -0.7149  1.4148
    9SAPS    C3 1093   3.244   1.832   6.966  0.6694  0.1958  0.4837
    9SAPS    HX 1094   3.337   1.785   7.005  0.1205 -2.3204 -1.1773
    9SAPS    HY 1095   3.172   1.748   6.957  1.2111 -0.3420  1.1328
    9SAPS   O31 1096   3.185   1.946   7.034 -0.6656  0.2251  0.1009
    9SAPS   C31 1097   3.267   2.013   7.121 -0.6930  0.7857 -0.2036
    9SAPS   O32 1098   3.368   1.960   7.161 -0.3814 -0.1353 -0.3909
    9SAPS   C32 1099   3.220   2.150   7.156  0.2169  0.1889 -0.9219
    9SAPS   H2X 1100   3.162   2.195   7.073  0.0323 -0.2577 -1.0349
    9SAPS   H2Y 1101   3.302   2.224   7.169  1.6144 -1.4009 -0.5827
    9SAPS   C23 1102   3.591   2.105   6.939  0.1376  0.0515 -0.0434
    9SAPS   H3R 1103   3.607   1.995   6.939  0.4653  0.0959 -1.2363
    9SAPS   H3S 1104   3.554   2.117   7.043 -0.8891 -2.7404 -0.0307
    9SAPS   C24 1105   3.731   2.171   6.939 -0.6952 -0.7652 -0.1180
    9SAPS   H4R 1106   3.751   2.219   7.038 -0.6265 -2.0945  0.5156
    9SAPS   H4S 1107   3.732   2.259   6.871  2.6974 -1.2696 -0.7753
    9SAPS   C25 1108   3.845   2.082   6.896 -0.1729 -0.4301 -0.1207
    9SAPS   H5R 1109   3.840   2.054   6.789  0.8591  0.5060 -0.4104
    9SAPS   C26 1110   3.951   2.035   6.966 -0.4630 -0.5529  0.0550
    9SAPS   H6R 1111   4.025   1.984   6.902 -0.5007 -0.6364  0.0785
    9SAPS   C27 1112   3.984   2.063   7.111 -0.3344  0.2352 -0.8639
    9SAPS   H7R 1113   3.895   2.108   7.160  0.4939  0.7008  0.2456
    9SAPS   H7S 1114   4.074   2.128   7.116 -0.0750 -0.0796 -1.4171
    9SAPS   C28 1115   4.018   1.941   7.188  0.4075  0.1029 -0.3023
    9SAPS   H8R 1116   4.052   1.855   7.130  0.4197  0.2470 -0.5115
    9SAPS   C29 1117   4.012   1.933   7.324 -1.0081  0.2908  0.7556
    9SAPS   H9R 1118   4.038   1.832   7.362  1.3514  0.3862 -0.5038
    9SAPS  C210 1119   3.981   2.048   7.423  0.9540  0.1679 -0.1067
    9SAPS  H10R 1120   3.882   2.039   7.471  0.9573 -0.3204 -0.1835
    9SAPS  H10S 1121   3.974   2.148   7.375  0.8948  0.9823  1.5811
    9SAPS  C211 1122   4.080   2.044   7.536  0.0146 -0.0614 -0.4505
    9SAPS  H11R 1123   4.169   2.105   7.513 -1.0209  2.0584  1.0165
    9SAPS  C212 1124   4.072   1.977   7.650  0.0759 -0.2249 -0.1724
    9SAPS  H12R 1125   4.156   1.990   7.720  0.8286 -0.6271 -0.9899
    9SAPS  C213 1126   3.958   1.886   7.681  1.0177 -0.3763 -0.2963
    9SAPS  H13R 1127   3.918   1.834   7.592  0.3165  0.6249 -0.5654
    9SAPS  H13S 1128   3.879   1.957   7.712 -0.0972 -1.5150 -0.5121
    9SAPS  C214 1129   3.995   1.783   7.788  0.4101 -0.4921  0.0036
    9SAPS  H14R 1130   4.092   1.734   7.767  0.0802 -0.6074 -1.3139
    9SAPS  C215 1131   3.919   1.742   7.890 -0.4349  0.6158 -0.3682
    9SAPS  H15R 1132   3.953   1.669   7.966 -0.1273  1.6213  0.4714
    9SAPS  C216 1133   3.781   1.792   7.927  0.1643  0.5332 -0.2697
    9SAPS  H16R 1134   3.701   1.762   7.856 -0.2298 -1.4261  0.9538
    9SAPS  H16S 1135   3.774   1.902   7.922 -1.1627  0.7576  3.9636
    9SAPS  C217 1136   3.734   1.752   8.076 -0.0556 -0.4892 -0.5284
    9SAPS  H17R 1137   3.649   1.822   8.091  2.4351  2.4311  0.4806
    9SAPS  H17S 1138   3.810   1.784   8.151 -0.7214  0.1180 -0.1078
    9SAPS  C218 1139   3.688   1.602   8.083  0.4467 -0.5310 -0.4935
    9SAPS  H18R 1140   3.773   1.536   8.055  0.6168 -0.6484  0.2734
    9SAPS  H18S 1141   3.610   1.593   8.005 -1.2445 -1.4379  1.2553
    9SAPS  C219 1142   3.629   1.565   8.221 -0.2963  0.5024 -0.7429
    9SAPS  H19R 1143   3.598   1.459   8.213 -2.1981  1.0692 -1.1308
    9SAPS  H19S 1144   3.538   1.628   8.229  0.9752  2.6706 -2.8398
    9SAPS  C220 1145   3.722   1.595   8.345  0.2928  0.1922  0.7238
    9SAPS  H20R 1146   3.672   1.574   8.442 -0.9880 -0.3280 -0.0302
    9SAPS  H20S 1147   3.748   1.703   8.341 -1.1590  0.5964  1.9447
    9SAPS  H20T 1148   3.812   1.530   8.333 -0.0261  0.2488 -2.2463
    9SAPS   C33 1149   3.133   2.148   7.283  0.6283  0.0333  0.4090
    9SAPS   H3X 1150   3.183   2.133   7.381 -0.0096  0.2351  0.7684
    9SAPS   H3Y 1151   3.060   2.065   7.276  1.4080 -0.7806  1.8019
    9SAPS   C34 1152   3.033   2.271   7.300 -0.4741 -0.2638 -0.1368
    9SAPS   H4X 1153   2.966   2.255   7.387 -0.1372 -3.0060 -0.3324
    9SAPS   H4Y 1154   2.972   2.284   7.208  0.4758 -0.2040 -0.7681
    9SAPS   C35 1155   3.111   2.404   7.337  0.6215 -0.5865 -0.6630
    9SAPS   H5X 1156   3.031   2.481   7.340  1.8214  0.7693 -2.3142
    9SAPS   H5Y 1157   3.177   2.434   7.252  0.2458 -0.6178 -0.9654
    9SAPS   C36 1158   3.197   2.405   7.464 -0.2466 -1.0562  0.0515
    9SAPS   H6X 1159   3.255   2.499   7.458 -1.0404 -0.4194  1.8236
    9SAPS   H6Y 1160   3.261   2.314   7.463 -2.2494 -2.4945  0.5267
    9SAPS   C37 1161   3.126   2.416   7.605 -0.6762  0.4879 -0.5705
    9SAPS   H7X 1162   3.210   2.425   7.677 -0.0898 -3.5666 -0.6231
    9SAPS   H7Y 1163   3.070   2.324   7.632 -1.5907  1.0896 -0.3741
    9SAPS   C38 1164   3.035   2.541   7.613  0.6431  0.7586 -0.9652
    9SAPS   H8X 1165   2.938   2.510   7.569  1.1224 -2.5729  0.1601
    9SAPS   H8Y 1166   3.070   2.629   7.554  2.2745 -0.2996 -1.6131
    9SAPS   C39 1167   3.011   2.579   7.762  0.2289 -0.1075  0.3876
    9SAPS   H9X 1168   3.101   2.561   7.824  1.1119  1.9573 -0.2543
    9SAPS   H9Y 1169   2.937   2.515   7.814  1.3183  0.2346  2.3874
    9SAPS  C310 1170   2.972   2.725   7.784 -0.2977 -0.6492 -0.1007
    9SAPS  H10X 1171   2.893   2.758   7.713  0.8115  0.9350 -0.6196
    9SAPS  H10Y 1172   3.055   2.791   7.751 -1.1322 -0.1640 -1.2918
    9SAPS  C311 1173   2.965   2.752   7.936  0.2409  0.0711  0.0282
    9SAPS  H11X 1174   3.062   2.745   7.989  0.3229 -0.0985 -0.1449
    9SAPS  H11Y 1175   2.893   2.678   7.978  0.4592 -0.3161 -0.2796
    9SAPS  C312 1176   2.909   2.891   7.961  0.7398 -1.2640 -1.0201
    9SAPS  H12X 1177   2.831   2.904   7.882  0.5024 -0.1742 -0.6147
    9SAPS  H12Y 1178   2.981   2.974   7.944  0.5742 -1.1896 -1.3766
    9SAPS  C313 1179   2.836   2.917   8.092  0.9227 -0.5190  0.5075
    9SAPS  H13X 1180   2.755   2.843   8.109 -0.6657  0.9850 -0.3776
    9SAPS  H13Y 1181   2.779   3.012   8.092  0.2702 -0.8732 -1.9917
    9SAPS  C314 1182   2.940   2.917   8.211  0.0990 -0.4673 -0.1899
    9SAPS  H14X 1183   3.016   2.993   8.181 -0.7740  0.9495  1.0721
    9SAPS  H14Y 1184   2.988   2.818   8.225  0.2295 -0.0947  2.2208
    9SAPS  C315 1185   2.885   2.966   8.341  0.6749 -0.5936 -0.9864
    9SAPS  H15X 1186   2.819   3.050   8.310 -0.9753 -1.7598 -0.6347
    9SAPS  H15Y 1187   2.962   3.020   8.400 -1.0749  0.5600  0.2894
    9SAPS  C316 1188   2.818   2.858   8.424  0.6222  0.0766 -0.1326
    9SAPS  H16X 1189   2.785   2.775   8.359 -1.7787  0.6286  0.3106
    9SAPS  H16Y 1190   2.734   2.894   8.488 -0.3217  0.9046 -1.7865
    9SAPS  C317 1191   2.918   2.786   8.513 -0.2179  0.1786  0.4862
    9SAPS  H17X 1192   2.976   2.866   8.566 -0.8214  1.1905 -0.3525
    9SAPS  H17Y 1193   2.983   2.717   8.456  2.3326  1.0710  2.1659
    9SAPS  C318 1194   2.848   2.702   8.623 -0.2844 -0.0530 -0.2605
    9SAPS  H18X 1195   2.917   2.664   8.702  1.3817  3.3640  0.0100
    9SAPS  H18Y 1196   2.802   2.619   8.565  1.4758 -0.3020 -1.3109
    9SAPS  H18Z 1197   2.763   2.761   8.663 -1.4166 -0.9771 -1.2672
   10SAPS     N 1198   3.160   0.986   6.456 -0.5473 -0.2239  0.5448
   10SAPS   HN1 1199   3.080   1.036   6.412 -2.0226 -3.3808 -0.5530
   10SAPS   HN2 1200   3.118   0.907   6.508  0.4216  0.4145  2.3204
   10SAPS   HN3 1201   3.214   1.039   6.527 -0.4304  0.8353 -0.3244
   10SAPS   C12 1202   3.257   0.946   6.348  0.1103 -0.6616 -0.1584
   10SAPS  H12A 1203   3.223   0.864   6.287  0.6512  0.6279 -2.2208
   10SAPS   C13 1204   3.287   1.068   6.242 -0.1240  0.0696  0.3357
   10SAPS  O13A 1205   3.245   1.182   6.270  0.8689  0.4171 -0.4609
   10SAPS  O13B 1206   3.384   1.049   6.163  0.2926 -0.0227 -0.1382
   10SAPS   C11 1207   3.392   0.911   6.411 -0.0502  0.8626 -0.6517
   10SAPS  H11A 1208   3.440   0.992   6.471  1.5056 -0.3571 -0.2140
   10SAPS  H11B 1209   3.462   0.888   6.328  0.9595 -0.6101  0.5667
   10SAPS     P 1210   3.392   0.783   6.651 -0.2623  0.2281  0.4992
   10SAPS   O13 1211   3.266   0.834   6.719  0.3492 -0.0474 -0.1866
   10SAPS   O14 1212   3.440   0.648   6.689  0.0629 -0.3199  0.2471
   10SAPS   O12 1213   3.375   0.791   6.496 -0.2531 -0.0666 -0.2660
   10SAPS   O11 1214   3.502   0.888   6.673  0.2930 -0.3428 -0.3648
   10SAPS    C1 1215   3.630   0.856   6.721  0.4034  0.0735  0.6270
   10SAPS    HA 1216   3.665   0.750   6.720  0.6666  0.1530  1.1867
   10SAPS    HB 1217   3.708   0.901   6.656  2.1098  1.1050  3.3131
   10SAPS    C2 1218   3.653   0.909   6.870  0.2214  0.4020 -0.4023
   10SAPS    HS 1219   3.759   0.884   6.892  0.4807  0.8176 -1.1881
   10SAPS   O21 1220   3.559   0.842   6.957  0.0472 -0.0515 -0.7499
   10SAPS   C21 1221   3.593   0.714   6.988  0.7132  0.3561  1.2105
   10SAPS   O22 1222   3.701   0.669   6.959  0.8621  0.0647  0.4007
   10SAPS   C22 1223   3.485   0.641   7.066 -0.7934 -0.1386 -0.1644
   10SAPS   H2R 1224   3.409   0.714   7.100  0.8337  0.7837  1.5213
   10SAPS   H2S 1225   3.436   0.566   6.999  0.4983 -0.8060 -0.3759
   10SAPS    C3 1226   3.637   1.060   6.876  0.6705 -0.8524  0.4863
   10SAPS    HX 1227   3.532   1.089   6.853  0.8925  0.3548  0.9723
   10SAPS    HY 1228   3.696   1.090   6.787 -2.4179 -0.6444 -1.5914
   10SAPS   O31 1229   3.690   1.118   6.996  0.7898 -0.3541 -0.6756
   10SAPS   C31 1230   3.596   1.135   7.089 -0.1516  0.4411  0.4793
   10SAPS   O32 1231   3.476   1.114   7.064 -0.3023 -0.0930 -0.1342
   10SAPS   C32 1232   3.650   1.204   7.216  0.8102 -0.6578 -0.0183
   10SAPS   H2X 1233   3.605   1.306   7.206  0.1633 -1.1903 -3.1523
   10SAPS   H2Y 1234   3.761   1.206   7.211  0.9749 -1.8619  2.6181
   10SAPS   C23 1235   3.538   0.562   7.186 -0.1782  0.7205 -0.6656
   10SAPS   H3R 1236   3.611   0.483   7.158  2.1973  1.2260  3.6185
   10SAPS   H3S 1237   3.451   0.498   7.213  0.1050  0.6675  0.1485
   10SAPS   C24 1238   3.589   0.643   7.308  0.2797 -0.3310  0.2221
   10SAPS   H4R 1239   3.675   0.708   7.282 -0.1183 -0.1282 -0.5991
   10SAPS   H4S 1240   3.612   0.571   7.389 -1.4785 -0.2362  0.8285
   10SAPS   C25 1241   3.486   0.742   7.356  0.1827  0.1756 -0.2756
   10SAPS   H5R 1242   3.471   0.835   7.299  0.7159 -0.1570 -0.9711
   10SAPS   C26 1243   3.395   0.717   7.452 -0.1414 -0.0399 -0.0797
   10SAPS   H6R 1244   3.323   0.796   7.477  1.0416  1.6155 -1.7523
   10SAPS   C27 1245   3.385   0.588   7.523  0.3064 -0.2626  0.1312
   10SAPS   H7R 1246   3.483   0.544   7.550  1.5434 -0.4378 -4.2677
   10SAPS   H7S 1247   3.336   0.515   7.455  1.8073 -2.3706  1.2628
   10SAPS   C28 1248   3.293   0.606   7.645  0.1148 -0.0555 -0.5370
   10SAPS   H8R 1249   3.189   0.596   7.612 -0.5112  3.2543  0.2590
   10SAPS   C29 1250   3.331   0.615   7.776  1.3985  0.2340  0.7098
   10SAPS   H9R 1251   3.254   0.616   7.855  0.2916 -0.2348 -0.3575
   10SAPS  C210 1252   3.473   0.622   7.814 -0.1908 -0.0585 -0.0713
   10SAPS  H10R 1253   3.482   0.711   7.880 -1.6761 -0.8682  1.2674
   10SAPS  H10S 1254   3.545   0.639   7.731 -1.6313  1.7798 -0.9676
   10SAPS  C211 1255   3.512   0.494   7.892 -0.2886  0.5861  0.0835
   10SAPS  H11R 1256   3.552   0.418   7.823  3.2753  2.5914 -0.1803
   10SAPS  C212 1257   3.485   0.479   8.028 -1.1355 -0.2979 -0.2961
   10SAPS  H12R 1258   3.522   0.389   8.079  1.6515  1.3629  0.7804
   10SAPS  C213 1259   3.430   0.579   8.124 -0.1610 -0.7765 -0.2899
   10SAPS  H13R 1260   3.454   0.678   8.078 -0.1772  0.4451  2.2429
   10SAPS  H13S 1261   3.479   0.568   8.223 -2.0810 -0.0759  0.7543
   10SAPS  C214 1262   3.279   0.582   8.138 -0.3334  0.2007 -0.1930
   10SAPS  H14R 1263   3.225   0.636   8.059 -0.1045  1.1218  0.2676
   10SAPS  C215 1264   3.213   0.525   8.240  0.2965  0.3427  0.6399
   10SAPS  H15R 1265   3.104   0.539   8.242  0.5083  2.1811  0.2427
   10SAPS  C216 1266   3.271   0.446   8.363 -0.3191 -0.0329 -0.0933
   10SAPS  H16R 1267   3.370   0.398   8.343  1.1681  3.3995 -1.3740
   10SAPS  H16S 1268   3.205   0.366   8.404 -0.6914  0.9679  1.3085
   10SAPS  C217 1269   3.288   0.535   8.492 -0.6279  0.5159  0.4680
   10SAPS  H17R 1270   3.300   0.481   8.588  1.5597  1.6306  0.8425
   10SAPS  H17S 1271   3.190   0.588   8.502 -0.3094  1.2728 -0.3266
   10SAPS  C218 1272   3.394   0.642   8.481  0.1265 -0.3784 -0.0362
   10SAPS  H18R 1273   3.361   0.710   8.400 -0.8864  1.0434  1.5399
   10SAPS  H18S 1274   3.495   0.604   8.451  0.3672 -1.1536  1.6774
   10SAPS  C219 1275   3.414   0.722   8.613  0.1105 -0.4877 -0.6220
   10SAPS  H19R 1276   3.514   0.771   8.609  1.3041 -2.9386 -1.3981
   10SAPS  H19S 1277   3.403   0.656   8.702 -0.0990 -0.8034 -0.8847
   10SAPS  C220 1278   3.310   0.839   8.644  0.9485  0.7652 -0.4681
   10SAPS  H20R 1279   3.298   0.914   8.563 -0.9856  3.0255  1.8260
   10SAPS  H20S 1280   3.336   0.879   8.743  1.9081 -0.6114 -0.1480
   10SAPS  H20T 1281   3.212   0.787   8.648  0.8466  0.8907 -1.1465
   10SAPS   C33 1282   3.591   1.141   7.343  0.1505  0.6994  0.3577
   10SAPS   H3X 1283   3.603   1.030   7.349  1.5394  0.9140  1.9392
   10SAPS   H3Y 1284   3.482   1.158   7.358  0.1131  2.9333 -2.1756
   10SAPS   C34 1285   3.658   1.187   7.472 -1.0177 -0.4226  0.6539
   10SAPS   H4X 1286   3.620   1.290   7.493 -0.3405 -0.1980  0.7728
   10SAPS   H4Y 1287   3.769   1.192   7.477 -0.9398 -1.1754 -0.2392
   10SAPS   C35 1288   3.619   1.092   7.588  0.2503  0.3865  0.8067
   10SAPS   H5X 1289   3.659   0.989   7.588 -0.4923  0.0893  1.1608
   10SAPS   H5Y 1290   3.509   1.081   7.579  0.2995  1.9609 -2.1254
   10SAPS   C36 1291   3.660   1.151   7.719  0.2430  0.4171  0.2196
   10SAPS   H6X 1292   3.655   1.262   7.722  0.6994  0.4251  1.0460
   10SAPS   H6Y 1293   3.761   1.122   7.755  0.9439  0.2178 -1.8431
   10SAPS   C37 1294   3.566   1.105   7.825 -0.0589  0.3309 -0.1226
   10SAPS   H7X 1295   3.540   0.997   7.813  0.0960  0.1118  1.3703
   10SAPS   H7Y 1296   3.470   1.161   7.820 -0.7036 -0.6499  0.8160
   10SAPS   C38 1297   3.619   1.108   7.970  0.2032  0.8482  0.8644
   10SAPS   H8X 1298   3.657   1.210   7.991  0.8783  0.8375 -0.2890
   10SAPS   H8Y 1299   3.701   1.033   7.971 -1.9273 -1.5794  4.6172
   10SAPS   C39 1300   3.505   1.066   8.066 -0.0751  0.2377  0.5060
   10SAPS   H9X 1301   3.448   0.980   8.025 -1.7383  1.6916 -0.2824
   10SAPS   H9Y 1302   3.433   1.149   8.084  0.1368  1.2730 -3.1174
   10SAPS  C310 1303   3.560   1.047   8.205 -0.3997 -0.3620  0.4258
   10SAPS  H10X 1304   3.613   1.140   8.233 -2.6909  0.9851  0.4626
   10SAPS  H10Y 1305   3.625   0.957   8.199  1.6845  1.1894 -0.6048
   10SAPS  C311 1306   3.466   1.015   8.327 -0.4017  0.3760 -0.2211
   10SAPS  H11X 1307   3.527   1.016   8.420 -0.9150  1.7023  0.1228
   10SAPS  H11Y 1308   3.428   0.911   8.322 -1.0190  0.6664 -1.7349
   10SAPS  C312 1309   3.349   1.117   8.346  0.1923 -0.0903 -0.7610
   10SAPS  H12X 1310   3.288   1.085   8.433 -0.9963  2.7836 -0.4884
   10SAPS  H12Y 1311   3.288   1.107   8.253 -0.7949 -2.1758  0.0708
   10SAPS  C313 1312   3.397   1.261   8.372  0.1180  0.6254 -1.0513
   10SAPS  H13X 1313   3.444   1.313   8.286  0.1201 -0.7019 -1.8556
   10SAPS  H13Y 1314   3.469   1.256   8.456 -1.6870  1.7746  0.6164
   10SAPS  C314 1315   3.285   1.358   8.418 -0.1187  0.2364  0.1674
   10SAPS  H14X 1316   3.212   1.318   8.492  1.2500  0.3289  1.6000
   10SAPS  H14Y 1317   3.221   1.369   8.328  1.4447 -1.6237 -1.2010
   10SAPS  C315 1318   3.352   1.488   8.470 -0.3870  0.2588  0.1328
   10SAPS  H15X 1319   3.405   1.525   8.380 -1.6138 -0.0200 -0.7145
   10SAPS  H15Y 1320   3.422   1.467   8.554  0.6620  3.2450  0.0539
   10SAPS  C316 1321   3.239   1.595   8.500 -0.4863 -0.3656  0.3789
   10SAPS  H16X 1322   3.178   1.540   8.574  1.2783 -0.3407  1.8998
   10SAPS  H16Y 1323   3.190   1.628   8.406 -4.1571 -1.5740  1.7946
   10SAPS  C317 1324   3.301   1.723   8.576 -0.0894  0.3423  0.3667
   10SAPS  H17X 1325   3.350   1.696   8.672  1.2129  1.6163  0.0722
   10SAPS  H17Y 1326   3.210   1.783   8.595 -2.3604 -2.5746 -0.8180
   10SAPS  C318 1327   3.402   1.810   8.494  0.0507  0.0122 -0.1962
   10SAPS  H18X 1328   3.494   1.753   8.469  1.1290  1.0127  1.3494
   10SAPS  H18Y 1329   3.446   1.898   8.547  1.6198 -1.2871  0.7150
   10SAPS  H18Z 1330   3.368   1.838   8.393  0.4727  0.5167 -0.2045
   11SAPS     N 1331   5.648   3.506   5.675 -0.6517  0.0779 -0.3760
   11SAPS   HN1 1332   5.658   3.527   5.777 -2.2800  3.1244 -0.7954
   11SAPS   HN2 1333   5.552   3.468   5.678 -1.1201  1.1767 -1.0789
   11SAPS   HN3 1334   5.712   3.429   5.648  1.7489  1.0040  2.2977
   11SAPS   C12 1335   5.657   3.623   5.587 -0.6010  0.0650 -0.2162
   11SAPS  H12A 1336   5.747   3.618   5.527 -1.7102  0.3922 -1.9679
   11SAPS   C13 1337   5.545   3.626   5.486 -0.5097 -0.2866 -0.6147
   11SAPS  O13A 1338   5.458   3.533   5.469 -0.9390  0.0208  0.5979
   11SAPS  O13B 1339   5.540   3.725   5.411  0.0225 -0.5518  0.0295
   11SAPS   C11 1340   5.640   3.746   5.676 -0.0786  0.8817 -0.6417
   11SAPS  H11A 1341   5.546   3.740   5.735 -0.3434 -2.0282 -1.2893
   11SAPS  H11B 1342   5.629   3.831   5.605  0.3606  1.2245 -0.3056
   11SAPS     P 1343   5.798   3.888   5.842 -0.1663  0.0774  0.1010
   11SAPS   O13 1344   5.919   3.845   5.921  0.2945 -0.1204 -0.5375
   11SAPS   O14 1345   5.812   3.998   5.744  0.1147  0.0376 -0.2307
   11SAPS   O12 1346   5.754   3.754   5.764 -0.0847  0.7427  0.8160
   11SAPS   O11 1347   5.677   3.924   5.939  0.4501 -0.1664 -0.1489
   11SAPS    C1 1348   5.629   3.820   6.030 -0.3395 -0.6075  0.2465
   11SAPS    HA 1349   5.532   3.794   5.983 -0.1786 -0.4351 -0.1866
   11SAPS    HB 1350   5.671   3.718   6.019  0.5587 -0.4673  2.0954
   11SAPS    C2 1351   5.621   3.870   6.182  0.1862 -0.3678  0.1502
   11SAPS    HS 1352   5.551   3.809   6.244 -3.5584  2.3664 -1.1988
   11SAPS   O21 1353   5.589   4.005   6.187  0.4145 -0.1046  0.1666
   11SAPS   C21 1354   5.458   4.022   6.163  0.2520  0.4225 -0.7391
   11SAPS   O22 1355   5.376   3.930   6.168 -0.2024  0.2283 -0.3029
   11SAPS   C22 1356   5.429   4.169   6.170 -0.0474  0.1532 -0.1154
   11SAPS   H2R 1357   5.470   4.211   6.264 -1.1605  1.7079 -0.3026
   11SAPS   H2S 1358   5.474   4.212   6.077 -2.3870  0.7319 -1.0220
   11SAPS    C3 1359   5.755   3.842   6.253 -0.3061 -0.0043  0.6012
   11SAPS    HX 1360   5.831   3.887   6.186  0.2510 -1.5789  0.1549
   11SAPS    HY 1361   5.763   3.731   6.256 -2.3894 -0.2064 -0.5117
   11SAPS   O31 1362   5.754   3.908   6.381  0.0562 -0.2171 -0.0158
   11SAPS   C31 1363   5.733   3.822   6.485 -0.1836  0.0415 -0.7588
   11SAPS   O32 1364   5.722   3.699   6.470 -0.0825 -0.3336  0.5304
   11SAPS   C32 1365   5.743   3.906   6.612 -0.0622 -0.6217  0.2900
   11SAPS   H2X 1366   5.649   3.964   6.622 -0.2124 -1.1416  2.0495
   11SAPS   H2Y 1367   5.829   3.975   6.597 -0.0432 -0.3924  1.4445
   11SAPS   C23 1368   5.278   4.196   6.145  0.4236 -0.2505 -0.4733
   11SAPS   H3R 1369   5.257   4.135   6.054 -0.2662 -2.6909  1.2852
   11SAPS   H3S 1370   5.272   4.304   6.118  2.5160  0.0768  0.2661
   11SAPS   C24 1371   5.192   4.164   6.273 -0.0727  0.4156 -0.7902
   11SAPS   H4R 1372   5.230   4.231   6.353 -2.5218 -0.2785  1.0164
   11SAPS   H4S 1373   5.207   4.062   6.315 -0.5336  0.9156  0.5859
   11SAPS   C25 1374   5.047   4.188   6.256  0.1151 -0.7765 -0.8050
   11SAPS   H5R 1375   5.019   4.196   6.150 -1.4967  0.0130 -0.3197
   11SAPS   C26 1376   4.946   4.191   6.344 -0.0138 -0.2127 -0.6092
   11SAPS   H6R 1377   4.842   4.197   6.310 -1.0814  1.5863  2.7333
   11SAPS   C27 1378   4.955   4.180   6.490 -0.0826 -0.1404  0.5839
   11SAPS   H7R 1379   4.910   4.268   6.541 -2.9352 -0.4312 -1.3608
   11SAPS   H7S 1380   5.059   4.188   6.529 -0.7246 -0.9106  2.5378
   11SAPS   C28 1381   4.912   4.047   6.542  0.0417  0.4199  0.1655
   11SAPS   H8R 1382   4.891   3.966   6.470 -0.5252  0.6658  0.0511
   11SAPS   C29 1383   4.889   4.013   6.676 -0.1136  0.6628  0.7292
   11SAPS   H9R 1384   4.852   3.913   6.701 -0.0547  0.4817  0.1101
   11SAPS  C210 1385   4.892   4.114   6.788  0.2770  0.2257  0.3630
   11SAPS  H10R 1386   4.979   4.181   6.774  0.5415 -0.2519 -0.3003
   11SAPS  H10S 1387   4.911   4.070   6.889 -1.5433 -0.7079  0.3363
   11SAPS  C211 1388   4.763   4.199   6.781 -0.1857  0.2401 -0.4306
   11SAPS  H11R 1389   4.725   4.212   6.678  0.0755  1.1589 -0.4099
   11SAPS  C212 1390   4.704   4.251   6.886  0.0708  0.4635  0.1744
   11SAPS  H12R 1391   4.612   4.309   6.867  1.0517  1.9682 -0.1329
   11SAPS  C213 1392   4.744   4.246   7.029  0.2096 -0.4316  0.0357
   11SAPS  H13R 1393   4.785   4.344   7.059  0.7969 -0.6744  0.0375
   11SAPS  H13S 1394   4.818   4.166   7.050 -1.6468 -1.9477  0.9415
   11SAPS  C214 1395   4.635   4.217   7.128  0.1091 -0.7736 -0.5083
   11SAPS  H14R 1396   4.533   4.240   7.094  0.7494  2.0021 -0.6847
   11SAPS  C215 1397   4.640   4.179   7.253  0.0303 -0.9030 -0.3807
   11SAPS  H15R 1398   4.544   4.177   7.306  0.6427 -0.9754  0.7478
   11SAPS  C216 1399   4.756   4.134   7.338 -0.1409 -0.2299  0.0490
   11SAPS  H16R 1400   4.840   4.112   7.269  1.1811  2.7464  0.6446
   11SAPS  H16S 1401   4.739   4.042   7.398 -2.0265  1.2476  1.8604
   11SAPS  C217 1402   4.817   4.235   7.431 -0.2465  0.2892 -0.3686
   11SAPS  H17R 1403   4.829   4.329   7.372 -0.1097  0.3654 -0.2193
   11SAPS  H17S 1404   4.912   4.197   7.474  0.6226  2.3667 -0.4076
   11SAPS  C218 1405   4.727   4.230   7.560 -0.0414 -0.2573  0.2623
   11SAPS  H18R 1406   4.749   4.141   7.623 -0.2861 -0.7550 -0.3467
   11SAPS  H18S 1407   4.619   4.228   7.536 -0.7278  1.0077  3.1211
   11SAPS  C219 1408   4.757   4.358   7.651 -0.0098 -0.3257 -0.2167
   11SAPS  H19R 1409   4.749   4.452   7.594 -0.2158 -0.7711 -0.9264
   11SAPS  H19S 1410   4.866   4.352   7.673 -0.3846 -0.1931  1.7678
   11SAPS  C220 1411   4.671   4.374   7.775 -0.5143 -0.1117 -0.3923
   11SAPS  H20R 1412   4.673   4.481   7.805  5.3338  0.0770 -0.9947
   11SAPS  H20S 1413   4.707   4.315   7.862 -1.3505  0.3504  0.2768
   11SAPS  H20T 1414   4.566   4.337   7.768 -0.6315 -0.1013  1.1425
   11SAPS   C33 1415   5.761   3.823   6.748  0.7132 -0.4488 -0.2160
   11SAPS   H3X 1416   5.851   3.758   6.749  0.3700 -0.9635 -1.5642
   11SAPS   H3Y 1417   5.677   3.751   6.745  1.4970 -1.3874  0.2386
   11SAPS   C34 1418   5.739   3.913   6.871  0.2477 -0.7213 -0.0627
   11SAPS   H4X 1419   5.640   3.960   6.856  1.7488  2.2670 -1.1078
   11SAPS   H4Y 1420   5.809   4.000   6.873  3.2111 -3.0121 -0.8872
   11SAPS   C35 1421   5.733   3.837   7.008  0.0640  0.5859 -0.2725
   11SAPS   H5X 1422   5.824   3.776   7.025  0.8630  1.2608 -2.0117
   11SAPS   H5Y 1423   5.647   3.766   7.013  1.5601 -1.2945 -0.7903
   11SAPS   C36 1424   5.712   3.924   7.121  0.4561  0.0320 -0.2668
   11SAPS   H6X 1425   5.619   3.983   7.107  1.2699  1.1251 -1.1196
   11SAPS   H6Y 1426   5.789   4.003   7.134 -0.1860  0.6062  0.0812
   11SAPS   C37 1427   5.686   3.842   7.245 -0.8672 -0.5597  0.2804
   11SAPS   H7X 1428   5.779   3.782   7.260 -2.1549 -2.8314 -0.6533
   11SAPS   H7Y 1429   5.612   3.760   7.236 -1.8053  0.0177  2.3977
   11SAPS   C38 1430   5.648   3.930   7.365  0.0900 -0.1129  0.5264
   11SAPS   H8X 1431   5.537   3.932   7.372  0.1427 -0.3284  1.4767
   11SAPS   H8Y 1432   5.684   4.033   7.346 -0.9708  0.3389  0.9582
   11SAPS   C39 1433   5.704   3.888   7.501  0.9791 -0.2374 -0.2950
   11SAPS   H9X 1434   5.811   3.914   7.510  1.4335 -1.5047 -1.8163
   11SAPS   H9Y 1435   5.695   3.777   7.513 -1.1205 -0.0908 -0.2374
   11SAPS  C310 1436   5.636   3.960   7.616 -0.6170  0.3332  0.0194
   11SAPS  H10X 1437   5.526   3.950   7.605 -0.5833  0.2045 -0.2268
   11SAPS  H10Y 1438   5.666   4.067   7.614 -1.2560  0.4943 -2.0510
   11SAPS  C311 1439   5.663   3.887   7.748 -0.2857 -0.3973 -0.0404
   11SAPS  H11X 1440   5.767   3.851   7.732  0.5266  0.6726  2.5549
   11SAPS  H11Y 1441   5.594   3.801   7.761  0.9540 -1.3047  0.5681
   11SAPS  C312 1442   5.655   3.978   7.875 -0.1269 -0.1073 -0.0321
   11SAPS  H12X 1443   5.702   4.075   7.851 -0.7546  0.6790  1.8283
   11SAPS  H12Y 1444   5.727   3.931   7.945 -0.2055  0.9630  0.7690
   11SAPS  C313 1445   5.512   3.988   7.941  0.2516 -0.0947  0.3003
   11SAPS  H13X 1446   5.450   3.897   7.924 -0.5814  0.5374 -0.1359
   11SAPS  H13Y 1447   5.454   4.067   7.887 -0.5329 -0.5138  0.5251
   11SAPS  C314 1448   5.523   4.008   8.090  0.7222  0.3834 -0.4053
   11SAPS  H14X 1449   5.626   3.983   8.125  0.2059 -2.9959 -1.0783
   11SAPS  H14Y 1450   5.450   3.946   8.146  1.4781  0.0003  0.1840
   11SAPS  C315 1451   5.505   4.161   8.127 -0.0418  0.5426  0.1475
   11SAPS  H15X 1452   5.402   4.199   8.111 -0.5688 -0.2139  1.5955
   11SAPS  H15Y 1453   5.577   4.218   8.065 -0.4237  0.5863 -0.2566
   11SAPS  C316 1454   5.525   4.189   8.278  0.1678  0.3070 -0.7019
   11SAPS  H16X 1455   5.459   4.128   8.343  0.7919  0.9109  0.5037
   11SAPS  H16Y 1456   5.505   4.295   8.302 -1.5626 -0.1126 -0.2669
   11SAPS  C317 1457   5.668   4.172   8.337 -0.1415  0.6646 -0.1328
   11SAPS  H17X 1458   5.713   4.074   8.310 -0.1479  0.7340 -0.3940
   11SAPS  H17Y 1459   5.675   4.170   8.448  2.5361 -2.3836 -0.2599
   11SAPS  C318 1460   5.770   4.284   8.305  0.5840 -0.2177  0.0327
   11SAPS  H18X 1461   5.869   4.245   8.337 -0.0567 -1.8332  0.1162
   11SAPS  H18Y 1462   5.753   4.386   8.346 -0.9647 -1.1181  1.6792
   11SAPS  H18Z 1463   5.766   4.288   8.194  2.9068  1.6468 -0.0273
   12SAPS     N 1464   5.264   5.500   6.150 -0.2083 -0.2342 -0.2452
   12SAPS   HN1 1465   5.357   5.528   6.188 -0.0946 -0.8832 -0.0490
   12SAPS   HN2 1466   5.249   5.400   6.172  2.1040 -0.5163  0.1897
   12SAPS   HN3 1467   5.262   5.528   6.050  1.2381 -1.0105 -0.4976
   12SAPS   C12 1468   5.165   5.580   6.223 -0.4617 -0.1246 -0.0535
   12SAPS  H12A 1469   5.184   5.584   6.329  1.0025 -0.2081 -0.3037
   12SAPS   C13 1470   5.160   5.729   6.162 -0.0185  0.3858 -0.0187
   12SAPS  O13A 1471   5.267   5.784   6.125 -0.1215 -0.2172 -0.0846
   12SAPS  O13B 1472   5.080   5.806   6.227 -0.4645 -0.1007  0.4304
   12SAPS   C11 1473   5.027   5.502   6.191  0.0421 -0.6650 -0.2342
   12SAPS  H11A 1474   5.030   5.489   6.081 -0.4320 -0.3933 -0.2822
   12SAPS  H11B 1475   4.935   5.558   6.219  0.7142  0.0876  0.4939
   12SAPS     P 1476   4.896   5.313   6.317  0.2194 -0.0349  0.3514
   12SAPS   O13 1477   4.789   5.415   6.338  0.3044 -1.0083  0.1694
   12SAPS   O14 1478   4.868   5.201   6.222 -0.1120  0.0535 -0.0224
   12SAPS   O12 1479   5.026   5.377   6.254 -0.0551 -0.4642  0.5587
   12SAPS   O11 1480   4.941   5.265   6.457  0.0865  1.0354 -0.2600
   12SAPS    C1 1481   5.053   5.174   6.483 -0.6730  0.3040 -0.1514
   12SAPS    HA 1482   5.016   5.088   6.544 -1.9930  3.6458  4.0325
   12SAPS    HB 1483   5.092   5.134   6.388 -1.1992  1.3478 -0.8199
   12SAPS    C2 1484   5.167   5.231   6.570  0.4852  1.1206 -0.8060
   12SAPS    HS 1485   5.250   5.158   6.571  0.4539  1.0804  0.7901
   12SAPS   O21 1486   5.098   5.259   6.697 -0.0773 -0.0670  0.4930
   12SAPS   C21 1487   5.093   5.147   6.777 -0.1359  0.3576  0.4802
   12SAPS   O22 1488   5.161   5.048   6.767 -0.2049  0.1094 -0.5476
   12SAPS   C22 1489   5.005   5.170   6.902  0.3220  0.2905  0.3632
   12SAPS   H2R 1490   4.934   5.253   6.880 -0.2304 -0.7361 -1.8943
   12SAPS   H2S 1491   4.944   5.078   6.919 -0.0855  0.0510 -2.1256
   12SAPS    C3 1492   5.240   5.356   6.516 -0.1098  0.0148 -0.5299
   12SAPS    HX 1493   5.180   5.415   6.444  2.4392  0.6736 -2.1795
   12SAPS    HY 1494   5.323   5.315   6.454  1.0873 -1.1554  1.7993
   12SAPS   O31 1495   5.304   5.422   6.627  0.0082  0.3874  0.5565
   12SAPS   C31 1496   5.248   5.543   6.657  0.5862  0.9870  0.1955
   12SAPS   O32 1497   5.170   5.605   6.587 -0.3578  0.1316 -0.6874
   12SAPS   C32 1498   5.296   5.584   6.794  0.0810 -0.2702 -0.3775
   12SAPS   H2X 1499   5.389   5.644   6.799 -1.0321  1.4086  0.8016
   12SAPS   H2Y 1500   5.315   5.489   6.847  0.4906  0.0123 -0.0167
   12SAPS   C23 1501   5.085   5.203   7.030  0.0711  0.2483  0.5158
   12SAPS   H3R 1502   5.158   5.282   7.003  2.2649 -1.7509  0.4013
   12SAPS   H3S 1503   5.147   5.114   7.055  1.5083  0.7704 -1.0706
   12SAPS   C24 1504   4.995   5.250   7.142 -0.0392 -0.4568 -0.2494
   12SAPS   H4R 1505   4.924   5.318   7.090  2.8601  1.6545 -1.5511
   12SAPS   H4S 1506   5.051   5.314   7.212 -0.9070 -0.6541  0.6404
   12SAPS   C25 1507   4.921   5.128   7.196 -0.2737 -0.0011 -0.0761
   12SAPS   H5R 1508   4.901   5.044   7.129  0.2551 -1.4178  1.5049
   12SAPS   C26 1509   4.874   5.118   7.322  0.2050  0.3982  0.2936
   12SAPS   H6R 1510   4.810   5.035   7.355 -0.0234  0.2549 -0.5050
   12SAPS   C27 1511   4.877   5.226   7.432  0.1302 -0.4651 -0.1987
   12SAPS   H7R 1512   4.796   5.234   7.507 -0.1207  1.2922 -0.6484
   12SAPS   H7S 1513   4.875   5.333   7.401  0.2953 -0.2434  0.5422
   12SAPS   C28 1514   5.011   5.209   7.507  0.8739  0.1785 -0.4503
   12SAPS   H8R 1515   5.095   5.176   7.444 -0.8484 -1.7929 -1.7703
   12SAPS   C29 1516   5.029   5.220   7.640  0.6188  0.1006  0.4700
   12SAPS   H9R 1517   5.132   5.236   7.676  0.8836 -1.9392  0.6702
   12SAPS  C210 1518   4.922   5.234   7.739  0.1184 -0.1792  0.4582
   12SAPS  H10R 1519   4.958   5.191   7.835 -0.1497 -0.0336  0.6223
   12SAPS  H10S 1520   4.843   5.163   7.707  1.3550 -0.1531 -2.9449
   12SAPS  C211 1521   4.866   5.375   7.750  0.1633  0.1081  0.1390
   12SAPS  H11R 1522   4.798   5.389   7.664  0.3183  0.7089  0.1126
   12SAPS  C212 1523   4.880   5.466   7.849  0.6351 -0.3019  0.3271
   12SAPS  H12R 1524   4.827   5.561   7.830  1.8212  0.4028  0.5203
   12SAPS  C213 1525   4.951   5.450   7.980 -0.0993 -0.5302  0.3576
   12SAPS  H13R 1526   5.031   5.527   7.991 -0.3902  0.0863 -1.5543
   12SAPS  H13S 1527   5.021   5.364   7.988  0.9129  0.2831  0.4424
   12SAPS  C214 1528   4.862   5.456   8.102  0.2030  0.5179 -0.1061
   12SAPS  H14R 1529   4.815   5.359   8.122  0.2225  0.1735 -1.6287
   12SAPS  C215 1530   4.829   5.555   8.189 -0.0932  0.2462  1.2455
   12SAPS  H15R 1531   4.766   5.535   8.276 -0.1569 -1.4869  0.8249
   12SAPS  C216 1532   4.882   5.694   8.176 -0.1954 -0.9173 -0.4109
   12SAPS  H16R 1533   4.801   5.769   8.189  0.4331 -0.1900 -0.5955
   12SAPS  H16S 1534   4.924   5.715   8.076 -0.8418 -1.9310 -0.9021
   12SAPS  C217 1535   4.971   5.717   8.307 -0.1587 -0.6898  0.0181
   12SAPS  H17R 1536   4.903   5.735   8.393 -1.8589 -0.3511 -1.3628
   12SAPS  H17S 1537   5.026   5.811   8.284  1.4449 -2.2096 -2.5519
   12SAPS  C218 1538   5.084   5.621   8.335 -0.3501 -0.2369 -0.2594
   12SAPS  H18R 1539   5.147   5.611   8.244  1.3221  0.3484  0.8118
   12SAPS  H18S 1540   5.045   5.520   8.358 -1.6288  0.5770  1.2736
   12SAPS  C219 1541   5.169   5.652   8.460 -0.5662  0.6199 -0.1795
   12SAPS  H19R 1542   5.246   5.573   8.472 -0.0183  1.1319 -0.2987
   12SAPS  H19S 1543   5.116   5.648   8.558  1.3027 -1.0080  0.8051
   12SAPS  C220 1544   5.247   5.783   8.450  0.5441 -0.1210  0.2946
   12SAPS  H20R 1545   5.329   5.784   8.525 -0.1907  1.6201  1.1140
   12SAPS  H20S 1546   5.189   5.874   8.475  0.6049 -0.1462  0.5336
   12SAPS  H20T 1547   5.299   5.791   8.352  0.9409  0.9605  0.5926
   12SAPS   C33 1548   5.193   5.661   6.876  0.0082 -0.3630 -0.3801
   12SAPS   H3X 1549   5.127   5.728   6.817 -1.0878 -0.6348  0.5261
   12SAPS   H3Y 1550   5.247   5.728   6.947 -3.4541  1.1402  0.9596
   12SAPS   C34 1551   5.101   5.579   6.960 -0.4506  0.6121  0.1125
   12SAPS   H4X 1552   5.162   5.508   7.020  0.9073 -0.3259 -2.3020
   12SAPS   H4Y 1553   5.031   5.517   6.899 -1.3703 -0.4636  2.2027
   12SAPS   C35 1554   5.011   5.671   7.049  0.4939  0.2984 -0.2916
   12SAPS   H5X 1555   4.918   5.616   7.074  1.4431 -1.6966 -1.0401
   12SAPS   H5Y 1556   4.981   5.762   6.993  1.8413  0.5986 -0.5629
   12SAPS   C36 1557   5.078   5.722   7.174 -0.3318  0.2914  0.0413
   12SAPS   H6X 1558   5.053   5.824   7.211 -0.0700 -0.0966  1.3235
   12SAPS   H6Y 1559   5.188   5.722   7.156 -0.2145  2.6739  0.4959
   12SAPS   C37 1560   5.052   5.632   7.301 -0.4548  0.8740  0.0161
   12SAPS   H7X 1561   5.067   5.524   7.278 -0.0227  0.8693  0.3151
   12SAPS   H7Y 1562   4.944   5.645   7.324 -0.3879  0.1550  0.7823
   12SAPS   C38 1563   5.122   5.678   7.434  1.0417 -0.1957 -0.3200
   12SAPS   H8X 1564   5.050   5.753   7.473 -0.4721 -1.4433 -0.6095
   12SAPS   H8Y 1565   5.221   5.719   7.408  0.4549 -0.0098 -2.3619
   12SAPS   C39 1566   5.144   5.564   7.532  0.0062 -0.4057  0.4099
   12SAPS   H9X 1567   5.193   5.480   7.478  1.8159 -0.3422  1.8921
   12SAPS   H9Y 1568   5.053   5.513   7.572  1.2501 -0.4770  3.3091
   12SAPS  C310 1569   5.230   5.605   7.650  0.4124 -0.3127 -0.0910
   12SAPS  H10X 1570   5.166   5.683   7.695  2.2111  0.8404  0.4926
   12SAPS  H10Y 1571   5.322   5.659   7.619  0.1539 -0.8648 -1.9210
   12SAPS  C311 1572   5.264   5.515   7.762  0.3667  0.3038  0.1822
   12SAPS  H11X 1573   5.336   5.441   7.722  1.6017  2.1260 -1.0355
   12SAPS  H11Y 1574   5.174   5.456   7.790 -1.2421  2.3907 -0.4152
   12SAPS  C312 1575   5.301   5.594   7.894  0.7609  0.7876 -0.3143
   12SAPS  H12X 1576   5.212   5.637   7.945  0.4147  0.4303 -0.6130
   12SAPS  H12Y 1577   5.375   5.672   7.868  1.4837  0.4960  0.8557
   12SAPS  C313 1578   5.367   5.495   7.990  0.0884 -0.6369  0.2689
   12SAPS  H13X 1579   5.398   5.554   8.079 -0.3387 -2.2400  1.5060
   12SAPS  H13Y 1580   5.459   5.455   7.941 -0.1870  0.2219 -0.9760
   12SAPS  C314 1581   5.286   5.383   8.042  0.1402  0.2738 -0.1886
   12SAPS  H14X 1582   5.231   5.324   7.966  1.1937 -1.2172  0.1750
   12SAPS  H14Y 1583   5.202   5.414   8.107 -0.3822 -0.5727 -0.4609
   12SAPS  C315 1584   5.371   5.281   8.114  0.1109 -0.3574 -0.2782
   12SAPS  H15X 1585   5.423   5.343   8.191  3.2047 -1.8255 -1.1356
   12SAPS  H15Y 1586   5.447   5.243   8.043  0.5551  2.6512 -1.5051
   12SAPS  C316 1587   5.295   5.170   8.190 -1.3339  0.0641 -0.5050
   12SAPS  H16X 1588   5.239   5.233   8.263 -1.6332  0.7563 -1.3238
   12SAPS  H16Y 1589   5.366   5.109   8.250  0.2874 -0.5493 -2.9641
   12SAPS  C317 1590   5.207   5.090   8.095 -0.2082  0.5541 -0.1247
   12SAPS  H17X 1591   5.274   5.033   8.028  0.0314 -0.2873  0.8133
   12SAPS  H17Y 1592   5.145   5.169   8.046  0.0375  1.1157  0.4494
   12SAPS  C318 1593   5.105   4.995   8.162 -0.2551  0.3407 -0.1922
   12SAPS  H18X 1594   5.152   4.926   8.236  0.7783 -0.6350 -1.7313
   12SAPS  H18Y 1595   5.054   4.935   8.084  0.2046 -1.5674  0.9285
   12SAPS  H18Z 1596   5.031   5.054   8.219 -1.1492 -1.7808  0.8775
   13SAPS     N 1597   5.759   2.782   5.985  0.0131 -0.1380 -0.1642
   13SAPS   HN1 1598   5.715   2.752   6.074 -1.5645 -0.6184 -1.0888
   13SAPS   HN2 1599   5.858   2.808   6.006 -0.4706  1.2855  0.4261
   13SAPS   HN3 1600   5.703   2.859   5.942 -2.5151  0.4656  3.9022
   13SAPS   C12 1601   5.759   2.655   5.898  0.5356  0.4900 -0.0774
   13SAPS  H12A 1602   5.655   2.629   5.883  0.8888 -1.6014  0.8734
   13SAPS   C13 1603   5.814   2.686   5.757  0.5503  0.2285  0.1263
   13SAPS  O13A 1604   5.828   2.810   5.727  0.6439  0.0818  0.3437
   13SAPS  O13B 1605   5.787   2.603   5.668 -0.3308 -0.8611  0.5389
   13SAPS   C11 1606   5.840   2.534   5.960  0.3852 -0.1186 -0.3294
   13SAPS  H11A 1607   5.946   2.567   5.966  0.3831 -0.4485  1.8040
   13SAPS  H11B 1608   5.860   2.453   5.886  0.3183 -0.4177 -0.0184
   13SAPS     P 1609   5.674   2.400   6.114  0.4702  0.0952  0.0793
   13SAPS   O13 1610   5.566   2.504   6.140  0.1670  0.5358  0.1115
   13SAPS   O14 1611   5.658   2.298   6.008 -0.6926 -0.3059  0.3860
   13SAPS   O12 1612   5.799   2.490   6.089 -0.3980 -0.1040  0.7360
   13SAPS   O11 1613   5.691   2.330   6.257  0.0002 -0.0295  0.5148
   13SAPS    C1 1614   5.794   2.365   6.355  0.7165  0.1987 -0.1187
   13SAPS    HA 1615   5.887   2.309   6.331 -0.1880 -1.4363  0.1149
   13SAPS    HB 1616   5.817   2.474   6.360 -2.3198  0.9194 -1.0362
   13SAPS    C2 1617   5.751   2.307   6.497  0.0636  0.6843  0.2151
   13SAPS    HS 1618   5.759   2.196   6.489 -2.7329  0.2755  2.0969
   13SAPS   O21 1619   5.617   2.351   6.530 -0.2893  0.7370 -0.0015
   13SAPS   C21 1620   5.548   2.259   6.601 -0.5753  0.0788  0.5447
   13SAPS   O22 1621   5.591   2.150   6.630  0.5826 -1.0109 -0.1141
   13SAPS   C22 1622   5.409   2.316   6.649 -0.4826 -0.1125  0.6479
   13SAPS   H2R 1623   5.421   2.426   6.644 -1.8612 -0.0088 -1.0565
   13SAPS   H2S 1624   5.329   2.287   6.577  1.5567  0.7225 -2.0235
   13SAPS    C3 1625   5.851   2.359   6.605  0.3164 -0.4269  0.6030
   13SAPS    HX 1626   5.839   2.469   6.594 -0.0220 -0.5312 -0.0765
   13SAPS    HY 1627   5.956   2.329   6.582  0.7207  0.4193  1.2870
   13SAPS   O31 1628   5.820   2.334   6.739 -0.2075  0.3422 -0.8215
   13SAPS   C31 1629   5.851   2.218   6.793  0.1538  0.0248 -0.0251
   13SAPS   O32 1630   5.909   2.128   6.739 -0.2578  0.4526 -0.3072
   13SAPS   C32 1631   5.804   2.212   6.933  0.4149 -0.2369 -0.4384
   13SAPS   H2X 1632   5.697   2.185   6.921  0.1950  0.3204  0.1908
   13SAPS   H2Y 1633   5.806   2.314   6.977 -0.7800 -1.4825  2.7422
   13SAPS   C23 1634   5.385   2.282   6.798 -1.0825  0.0338 -0.7980
   13SAPS   H3R 1635   5.468   2.334   6.850  0.6099 -2.6548 -0.6795
   13SAPS   H3S 1636   5.414   2.177   6.823 -1.1735  0.2158  0.0874
   13SAPS   C24 1637   5.251   2.318   6.846 -0.3337  0.5583  0.5498
   13SAPS   H4R 1638   5.238   2.263   6.942  0.3553 -2.0349 -0.8194
   13SAPS   H4S 1639   5.177   2.270   6.780  2.0690  0.3112 -2.0272
   13SAPS   C25 1640   5.243   2.464   6.862 -0.2935 -0.1560  0.0706
   13SAPS   H5R 1641   5.211   2.524   6.776  0.8295 -0.6248 -0.6953
   13SAPS   C26 1642   5.280   2.521   6.980  0.8830  0.1203  0.7975
   13SAPS   H6R 1643   5.273   2.630   6.991  0.1645  0.1244  0.3178
   13SAPS   C27 1644   5.326   2.452   7.106 -0.1113  0.1979  0.1122
   13SAPS   H7R 1645   5.437   2.458   7.102 -0.1372  1.0615  0.6612
   13SAPS   H7S 1646   5.303   2.344   7.108  0.2872  0.1278  1.0829
   13SAPS   C28 1647   5.285   2.507   7.242 -0.7746  0.8114  0.1596
   13SAPS   H8R 1648   5.182   2.488   7.276 -1.2960  0.8358 -1.3746
   13SAPS   C29 1649   5.362   2.564   7.334 -0.8027 -0.8158 -0.1973
   13SAPS   H9R 1650   5.317   2.589   7.431  0.7337  1.9815 -0.1389
   13SAPS  C210 1651   5.508   2.606   7.325  0.0770 -0.0350  0.1531
   13SAPS  H10R 1652   5.527   2.713   7.347  2.4141 -0.6970  1.5457
   13SAPS  H10S 1653   5.548   2.597   7.222  1.8873 -1.1660  0.9251
   13SAPS  C211 1654   5.585   2.523   7.422  0.2168  0.2602  0.3181
   13SAPS  H11R 1655   5.623   2.429   7.379 -1.9065  0.5131 -2.2734
   13SAPS  C212 1656   5.606   2.548   7.558 -0.8863  0.1108  0.3893
   13SAPS  H12R 1657   5.656   2.466   7.612 -2.7585 -1.0041  0.4929
   13SAPS  C213 1658   5.551   2.677   7.622 -0.2873 -0.7481 -0.2786
   13SAPS  H13R 1659   5.530   2.754   7.545  0.4759  1.8105  1.9898
   13SAPS  H13S 1660   5.641   2.717   7.674  0.4990 -1.7737 -0.8315
   13SAPS  C214 1661   5.440   2.668   7.722 -0.0100 -0.0947 -0.2041
   13SAPS  H14R 1662   5.342   2.654   7.675  0.2866 -2.6093 -0.1560
   13SAPS  C215 1663   5.456   2.648   7.857  0.5154 -0.4167  0.7192
   13SAPS  H15R 1664   5.363   2.642   7.915 -0.6424 -2.7505 -1.2885
   13SAPS  C216 1665   5.586   2.646   7.931 -0.0030 -1.1868 -0.0985
   13SAPS  H16R 1666   5.682   2.631   7.878 -0.5489 -2.0287 -0.8618
   13SAPS  H16S 1667   5.585   2.561   8.003 -1.4118 -0.3289  0.9218
   13SAPS  C217 1668   5.605   2.775   8.018  0.3261  0.8700  0.4437
   13SAPS  H17R 1669   5.680   2.761   8.098  1.3681  1.8442 -0.3462
   13SAPS  H17S 1670   5.512   2.793   8.076  0.6712  1.7207  0.7412
   13SAPS  C218 1671   5.641   2.897   7.936  0.4375 -0.6471 -0.2643
   13SAPS  H18R 1672   5.569   2.897   7.851  0.2332  2.3923 -0.1604
   13SAPS  H18S 1673   5.747   2.897   7.905  0.2786  1.2642 -0.8798
   13SAPS  C219 1674   5.633   3.025   8.012 -0.2702  0.2325  0.3238
   13SAPS  H19R 1675   5.689   3.025   8.109  0.9644  0.0765 -0.3710
   13SAPS  H19S 1676   5.529   3.036   8.047 -0.5501 -0.0938 -0.3973
   13SAPS  C220 1677   5.678   3.154   7.938  0.6562 -0.2341  0.0341
   13SAPS  H20R 1678   5.670   3.244   8.002 -1.0577  0.8085 -1.5967
   13SAPS  H20S 1679   5.614   3.159   7.848  4.1438  0.2308 -2.5484
   13SAPS  H20T 1680   5.783   3.138   7.903  1.7763  0.4224  2.9188
   13SAPS   C33 1681   5.877   2.120   7.033  0.6015  0.3762 -0.5420
   13SAPS   H3X 1682   5.982   2.155   7.023  0.6860 -0.0510 -1.2232
   13SAPS   H3Y 1683   5.873   2.014   7.000 -0.0408  0.4781 -0.7998
   13SAPS   C34 1684   5.821   2.142   7.178  0.0257  0.2155 -0.6291
   13SAPS   H4X 1685   5.734   2.073   7.183 -1.0612  1.5778 -0.5252
   13SAPS   H4Y 1686   5.795   2.247   7.203 -3.0214 -0.1819 -1.8921
   13SAPS   C35 1687   5.919   2.101   7.287 -0.3537 -0.2098  1.0524
   13SAPS   H5X 1688   6.006   2.170   7.281  0.2649 -0.8454  2.4152
   13SAPS   H5Y 1689   5.960   2.002   7.260 -1.7605 -0.3917 -0.5422
   13SAPS   C36 1690   5.861   2.125   7.424 -0.1151  0.1050 -1.0445
   13SAPS   H6X 1691   5.769   2.063   7.421 -0.1246 -0.0385  1.0325
   13SAPS   H6Y 1692   5.840   2.232   7.446 -2.0299 -0.8098  1.8177
   13SAPS   C37 1693   5.946   2.052   7.535  0.3665  0.4530  0.8074
   13SAPS   H7X 1694   6.045   2.101   7.528 -0.0273  1.2109  0.4441
   13SAPS   H7Y 1695   5.955   1.942   7.519 -1.4200  0.5206 -0.7970
   13SAPS   C38 1696   5.892   2.072   7.673  0.0793 -0.3719 -0.1197
   13SAPS   H8X 1697   5.792   2.026   7.686 -0.7261  0.9199 -1.5905
   13SAPS   H8Y 1698   5.891   2.182   7.684  2.8031 -0.4292  1.2853
   13SAPS   C39 1699   5.989   2.013   7.771  0.0135  0.1757 -0.4504
   13SAPS   H9X 1700   6.092   2.034   7.733  0.8647  0.8565  2.0757
   13SAPS   H9Y 1701   5.983   1.903   7.758 -1.5786 -0.1971  2.8777
   13SAPS  C310 1702   5.965   2.057   7.915 -0.2210 -0.0735 -0.4364
   13SAPS  H10X 1703   5.858   2.044   7.942  0.5845 -0.6164  2.7775
   13SAPS  H10Y 1704   5.970   2.168   7.920  2.2264 -0.1580 -0.5688
   13SAPS  C311 1705   6.053   1.999   8.022  0.2693  0.8148  0.7545
   13SAPS  H11X 1706   6.155   1.994   7.978 -0.3327 -2.8502 -0.4410
   13SAPS  H11Y 1707   6.020   1.893   8.032  2.6821  0.0898  1.2122
   13SAPS  C312 1708   6.034   2.075   8.150  0.1801 -0.0849 -0.2128
   13SAPS  H12X 1709   5.928   2.107   8.154  0.7717  1.9571 -0.6277
   13SAPS  H12Y 1710   6.095   2.166   8.134  1.3201 -0.8389 -0.2448
   13SAPS  C313 1711   6.044   1.985   8.279 -0.2711 -0.0022  0.5977
   13SAPS  H13X 1712   6.118   1.905   8.254 -1.0063 -0.1538 -1.1773
   13SAPS  H13Y 1713   5.956   1.929   8.317 -0.3302 -0.8826 -0.8185
   13SAPS  C314 1714   6.106   2.064   8.395  0.0427  0.3038 -0.2198
   13SAPS  H14X 1715   6.185   2.131   8.355  0.2982 -0.3763 -0.8683
   13SAPS  H14Y 1716   6.146   1.991   8.469 -0.7151 -3.5299 -3.4271
   13SAPS  C315 1717   6.009   2.167   8.459  0.3742 -0.0064 -0.5124
   13SAPS  H15X 1718   5.952   2.221   8.381 -0.7010  0.4640  0.5860
   13SAPS  H15Y 1719   6.077   2.243   8.503 -0.5440  1.0755 -0.9360
   13SAPS  C316 1720   5.936   2.113   8.577 -0.6815 -0.8746 -0.3313
   13SAPS  H16X 1721   6.008   2.071   8.651  0.1041  1.9221  0.5654
   13SAPS  H16Y 1722   5.878   2.023   8.548  0.0482 -1.2797 -0.5628
   13SAPS  C317 1723   5.855   2.219   8.669 -0.5434  0.1153  0.3176
   13SAPS  H17X 1724   5.924   2.303   8.695  0.8074 -0.3895 -1.5309
   13SAPS  H17Y 1725   5.828   2.168   8.764  2.0592 -1.4552  0.2560
   13SAPS  C318 1726   5.726   2.278   8.610 -0.2295 -0.5278  0.6768
   13SAPS  H18X 1727   5.732   2.327   8.511 -1.6147  1.7187  1.6609
   13SAPS  H18Y 1728   5.685   2.350   8.684 -0.7210 -0.5174  0.3894
   13SAPS  H18Z 1729   5.650   2.199   8.598  0.4062 -0.9318 -0.8557
   14SAPS     N 1730   4.589   4.841   5.640  0.2456  0.3946 -0.3437
   14SAPS   HN1 1731   4.540   4.864   5.551 -2.4410 -0.7222  0.8095
   14SAPS   HN2 1732   4.630   4.746   5.647 -0.2047  0.3066  1.3732
   14SAPS   HN3 1733   4.526   4.844   5.722  1.6502 -0.4040  0.7863
   14SAPS   C12 1734   4.687   4.945   5.670 -0.4240 -0.1355  0.0342
   14SAPS  H12A 1735   4.783   4.921   5.628 -0.8113  0.2447 -1.0941
   14SAPS   C13 1736   4.650   5.084   5.604  0.1461  0.6443 -0.6221
   14SAPS  O13A 1737   4.561   5.086   5.510 -0.4050  0.0503 -0.1685
   14SAPS  O13B 1738   4.727   5.177   5.635 -0.0364  0.2879 -0.3227
   14SAPS   C11 1739   4.701   4.965   5.831  0.2327  0.3461  0.1736
   14SAPS  H11A 1740   4.598   4.994   5.862  0.3316  1.2109 -0.2664
   14SAPS  H11B 1741   4.767   5.050   5.859 -0.0750  1.1977 -1.5674
   14SAPS     P 1742   4.879   4.789   5.896  0.1029 -0.2481 -0.2764
   14SAPS   O13 1743   4.872   4.648   5.931  0.0750  0.0528 -0.2265
   14SAPS   O14 1744   4.958   4.829   5.779  0.0720 -0.4741 -0.2523
   14SAPS   O12 1745   4.733   4.838   5.888 -0.0465  0.1444  0.2778
   14SAPS   O11 1746   4.938   4.869   6.014  0.1955  0.4735 -0.2763
   14SAPS    C1 1747   4.856   4.879   6.130 -0.4264  0.0962  0.2653
   14SAPS    HA 1748   4.799   4.974   6.137 -0.5431 -0.0011  0.7317
   14SAPS    HB 1749   4.783   4.796   6.144 -0.2768  0.0712  0.9350
   14SAPS    C2 1750   4.939   4.867   6.271  0.0377 -0.4196 -0.1059
   14SAPS    HS 1751   5.004   4.955   6.290  2.1097 -1.6715 -1.2380
   14SAPS   O21 1752   5.029   4.751   6.261 -0.8532 -0.4581 -0.3994
   14SAPS   C21 1753   5.157   4.772   6.213  0.1554  0.7405  0.2898
   14SAPS   O22 1754   5.197   4.882   6.185 -0.7165  0.1943  0.0381
   14SAPS   C22 1755   5.233   4.644   6.198 -0.0531 -0.0497 -0.5426
   14SAPS   H2R 1756   5.171   4.574   6.138  1.7306 -0.5246 -1.8679
   14SAPS   H2S 1757   5.332   4.655   6.148 -0.1669 -2.5548 -1.4255
   14SAPS    C3 1758   4.846   4.843   6.397 -0.3850 -0.4888  0.1162
   14SAPS    HX 1759   4.763   4.772   6.379 -0.3068 -0.3345 -0.8804
   14SAPS    HY 1760   4.796   4.942   6.404 -1.1205 -0.9247  1.1257
   14SAPS   O31 1761   4.923   4.827   6.518  0.0219 -0.4658  0.6535
   14SAPS   C31 1762   4.936   4.705   6.558 -0.3693 -0.1482  0.7901
   14SAPS   O32 1763   4.891   4.606   6.498  0.2152 -0.2857 -0.2257
   14SAPS   C32 1764   5.005   4.693   6.692  0.2593 -0.2456  0.7656
   14SAPS   H2X 1765   5.078   4.777   6.691  1.8649 -1.6113  0.5522
   14SAPS   H2Y 1766   5.060   4.598   6.671  0.9329  0.3411 -0.2036
   14SAPS   C23 1767   5.259   4.582   6.342  0.0947  0.8986 -0.2913
   14SAPS   H3R 1768   5.292   4.480   6.316  0.1519  0.8335  0.0308
   14SAPS   H3S 1769   5.160   4.576   6.392  1.7015  0.1087  3.0099
   14SAPS   C24 1770   5.373   4.642   6.413 -0.3292 -0.1251 -0.2267
   14SAPS   H4R 1771   5.459   4.649   6.344 -0.6738  2.7710 -0.4182
   14SAPS   H4S 1772   5.397   4.564   6.489 -3.2173 -1.3707 -0.5251
   14SAPS   C25 1773   5.339   4.769   6.490 -0.3913 -0.5874 -1.3027
   14SAPS   H5R 1774   5.318   4.857   6.427  1.6850  0.4997 -0.5200
   14SAPS   C26 1775   5.355   4.808   6.621 -0.1105  0.2178  0.2085
   14SAPS   H6R 1776   5.338   4.913   6.650  0.9570  0.0922  1.3391
   14SAPS   C27 1777   5.410   4.733   6.745 -0.6051 -0.2086  0.2510
   14SAPS   H7R 1778   5.434   4.807   6.824 -0.4768 -0.5725  0.5537
   14SAPS   H7S 1779   5.508   4.689   6.718 -1.9272 -2.6304 -0.7389
   14SAPS   C28 1780   5.328   4.611   6.776  0.0375  0.5080 -0.1474
   14SAPS   H8R 1781   5.291   4.543   6.698 -0.2399  0.5730 -0.0722
   14SAPS   C29 1782   5.324   4.566   6.903 -0.5194  0.4292  0.2970
   14SAPS   H9R 1783   5.275   4.470   6.924  0.5683 -0.3564 -0.7310
   14SAPS  C210 1784   5.395   4.627   7.024  0.2320 -1.0746 -0.0990
   14SAPS  H10R 1785   5.493   4.668   6.994 -0.7620 -0.2059 -2.2619
   14SAPS  H10S 1786   5.406   4.543   7.097  0.4648 -0.0795  1.0226
   14SAPS  C211 1787   5.306   4.742   7.079  0.2266 -0.1548 -0.3721
   14SAPS  H11R 1788   5.276   4.815   7.002 -0.1313  0.6218  0.4946
   14SAPS  C212 1789   5.275   4.766   7.209 -0.2450 -0.7901  0.2158
   14SAPS  H12R 1790   5.206   4.850   7.224 -1.9853 -2.0098 -0.6390
   14SAPS  C213 1791   5.322   4.695   7.334  0.0898 -0.0890  0.3055
   14SAPS  H13R 1792   5.383   4.602   7.328 -0.7539 -0.8207  2.5777
   14SAPS  H13S 1793   5.230   4.654   7.380  0.3539 -0.3700  0.5864
   14SAPS  C214 1794   5.395   4.807   7.407  0.2355 -0.3438  0.1941
   14SAPS  H14R 1795   5.459   4.881   7.356 -2.0886  1.8167  0.2847
   14SAPS  C215 1796   5.387   4.826   7.539 -0.5201 -0.3417  0.1234
   14SAPS  H15R 1797   5.437   4.917   7.575 -3.0802  0.8137  0.8534
   14SAPS  C216 1798   5.320   4.745   7.646  0.0154  0.8770 -0.3112
   14SAPS  H16R 1799   5.392   4.710   7.722 -1.6737  0.7378  1.2489
   14SAPS  H16S 1800   5.295   4.648   7.597 -0.9183  0.6144  0.6755
   14SAPS  C217 1801   5.202   4.797   7.727  0.1271  0.4463 -0.1935
   14SAPS  H17R 1802   5.143   4.856   7.654 -0.3139 -0.7298 -0.7916
   14SAPS  H17S 1803   5.236   4.867   7.807 -0.3650 -0.5900  0.9414
   14SAPS  C218 1804   5.114   4.690   7.799 -0.0121  0.3998 -1.0442
   14SAPS  H18R 1805   5.066   4.622   7.725 -0.4732 -1.0761  0.5722
   14SAPS  H18S 1806   5.032   4.742   7.854  0.7073  2.2894 -1.7036
   14SAPS  C219 1807   5.200   4.596   7.894 -0.0167  0.7421 -0.2768
   14SAPS  H19R 1808   5.281   4.553   7.831 -0.2187  1.6148 -1.1386
   14SAPS  H19S 1809   5.129   4.514   7.917 -0.9363  1.0841 -1.8530
   14SAPS  C220 1810   5.259   4.665   8.020 -0.5414 -0.0601 -0.3365
   14SAPS  H20R 1811   5.359   4.704   7.991 -0.4249 -0.4078 -0.4087
   14SAPS  H20S 1812   5.276   4.608   8.113  2.6374 -0.5058 -1.1204
   14SAPS  H20T 1813   5.194   4.749   8.051 -1.7394 -1.1181  0.0473
   14SAPS   C33 1814   4.909   4.684   6.807 -0.7744 -0.1671  0.3917
   14SAPS   H3X 1815   4.855   4.589   6.829 -0.4017 -0.4084  0.2515
   14SAPS   H3Y 1816   4.827   4.753   6.777 -1.8256 -0.9094  1.4656
   14SAPS   C34 1817   4.968   4.735   6.939  0.1983  0.7655 -0.1829
   14SAPS   H4X 1818   5.023   4.830   6.925  1.9685  0.0228  1.4775
   14SAPS   H4Y 1819   5.046   4.664   6.972 -0.9009 -0.8742 -1.0428
   14SAPS   C35 1820   4.858   4.744   7.047  0.8431  0.4501  1.1152
   14SAPS   H5X 1821   4.793   4.655   7.033 -0.4840  1.3954  1.1296
   14SAPS   H5Y 1822   4.786   4.822   7.014  0.4841 -0.0506  0.7131
   14SAPS   C36 1823   4.913   4.760   7.191  0.4433  0.7929 -0.2998
   14SAPS   H6X 1824   4.992   4.837   7.196  2.0021 -0.8901  2.4095
   14SAPS   H6Y 1825   4.967   4.666   7.218  0.5590  0.4157 -1.8003
   14SAPS   C37 1826   4.806   4.769   7.302  0.3499 -0.3375  0.3588
   14SAPS   H7X 1827   4.741   4.681   7.284 -0.6070  0.0580  1.8429
   14SAPS   H7Y 1828   4.750   4.864   7.289  1.8754  0.6010  0.4074
   14SAPS   C38 1829   4.869   4.766   7.445 -0.1269 -0.1243 -0.1832
   14SAPS   H8X 1830   4.950   4.841   7.434  0.6402 -1.1688 -1.9126
   14SAPS   H8Y 1831   4.914   4.666   7.464 -1.6464 -0.8435 -0.2646
   14SAPS   C39 1832   4.762   4.793   7.554 -0.3598  0.1771  0.5612
   14SAPS   H9X 1833   4.679   4.721   7.538 -1.5228  1.0726  2.3604
   14SAPS   H9Y 1834   4.725   4.898   7.545  0.9707  0.6131  0.1010
   14SAPS  C310 1835   4.803   4.795   7.700  0.9232  0.2962 -0.3392
   14SAPS  H10X 1836   4.888   4.865   7.712  1.1351 -0.0698  0.3304
   14SAPS  H10Y 1837   4.836   4.691   7.720  1.8052  0.5747 -0.3482
   14SAPS  C311 1838   4.700   4.832   7.807  0.5506  0.3061 -0.7875
   14SAPS  H11X 1839   4.625   4.750   7.814 -0.4773  1.2803 -0.1976
   14SAPS  H11Y 1840   4.652   4.928   7.777 -0.8249  0.3132  1.3173
   14SAPS  C312 1841   4.762   4.842   7.947  0.0249 -0.1254  0.4592
   14SAPS  H12X 1842   4.685   4.901   8.000  0.1464  1.5966 -1.2356
   14SAPS  H12Y 1843   4.858   4.898   7.947  1.5209 -2.5974  1.6669
   14SAPS  C313 1844   4.779   4.703   8.014 -0.3905 -0.3380  0.2255
   14SAPS  H13X 1845   4.831   4.643   7.937 -1.1654 -0.8250  0.0759
   14SAPS  H13Y 1846   4.678   4.661   8.031 -0.2949 -0.0738  1.5496
   14SAPS  C314 1847   4.869   4.706   8.138 -0.3417  0.5100  0.0842
   14SAPS  H14X 1848   4.818   4.745   8.228 -2.6471  2.4891 -2.0188
   14SAPS  H14Y 1849   4.960   4.760   8.104 -0.9923  0.4109 -1.9225
   14SAPS  C315 1850   4.922   4.562   8.169 -0.5993 -0.7328 -0.2861
   14SAPS  H15X 1851   5.005   4.565   8.243 -0.8329 -0.5683 -0.0326
   14SAPS  H15Y 1852   4.966   4.519   8.077 -2.2564 -3.2561  0.0664
   14SAPS  C316 1853   4.826   4.466   8.238  0.8923  0.5124  0.3644
   14SAPS  H16X 1854   4.738   4.452   8.172  0.1826 -0.2975  1.4657
   14SAPS  H16Y 1855   4.789   4.517   8.329 -0.6368  0.9586 -0.4930
   14SAPS  C317 1856   4.892   4.325   8.260  0.2872  1.0934 -0.2501
   14SAPS  H17X 1857   4.986   4.335   8.320 -0.7815  0.8301  1.5098
   14SAPS  H17Y 1858   4.924   4.279   8.164 -4.0751  0.5261 -1.5345
   14SAPS  C318 1859   4.793   4.231   8.329  0.2956 -0.0161  0.1003
   14SAPS  H18X 1860   4.692   4.222   8.284  0.2713 -1.8496  0.4636
   14SAPS  H18Y 1861   4.761   4.263   8.431 -0.7369 -1.3706  0.2230
   14SAPS  H18Z 1862   4.838   4.129   8.338  1.5083  0.5220  0.2559
   15SAPS     N 1863   6.163   3.842   6.021 -0.1794 -0.0270  0.5008
   15SAPS   HN1 1864   6.077   3.858   5.964 -1.2765  0.2923  2.2019
   15SAPS   HN2 1865   6.158   3.742   6.047  1.4209 -0.2771 -0.1067
   15SAPS   HN3 1866   6.159   3.895   6.111  1.2032 -1.1937  1.2787
   15SAPS   C12 1867   6.293   3.876   5.948  0.3636 -0.4034  0.5739
   15SAPS  H12A 1868   6.370   3.875   6.024  1.0207 -1.5093 -0.0953
   15SAPS   C13 1869   6.329   3.766   5.841 -0.1418 -0.0215 -0.5969
   15SAPS  O13A 1870   6.263   3.661   5.835  0.3612  0.7305 -0.3436
   15SAPS  O13B 1871   6.443   3.777   5.783 -0.0867 -0.3201 -0.2462
   15SAPS   C11 1872   6.272   4.011   5.873  0.1771 -0.5572 -0.1330
   15SAPS  H11A 1873   6.190   3.998   5.800  0.1702 -0.9327 -0.0573
   15SAPS  H11B 1874   6.364   4.050   5.824  0.0676  0.3251  0.3543
   15SAPS     P 1875   6.207   4.264   5.923  0.1829  0.0902  0.0673
   15SAPS   O13 1876   6.330   4.340   5.926 -0.3647 -0.9479  0.0481
   15SAPS   O14 1877   6.137   4.267   5.798 -0.0484 -0.2580  0.4609
   15SAPS   O12 1878   6.239   4.112   5.967 -0.1197 -0.1338 -0.2845
   15SAPS   O11 1879   6.116   4.323   6.036  0.2063  0.3144 -0.4230
   15SAPS    C1 1880   5.992   4.252   6.075  0.0522 -0.4160 -0.3504
   15SAPS    HA 1881   5.917   4.260   5.993  0.2476 -0.4960 -0.5363
   15SAPS    HB 1882   6.004   4.144   6.098 -0.2318 -0.2177  0.7559
   15SAPS    C2 1883   5.937   4.319   6.203 -0.3323  0.1420  0.8126
   15SAPS    HS 1884   5.901   4.422   6.184  0.2806  0.6064  2.0817
   15SAPS   O21 1885   6.033   4.315   6.303 -0.4987  0.2978  0.0553
   15SAPS   C21 1886   6.127   4.402   6.313 -0.8642  0.5724 -0.6534
   15SAPS   O22 1887   6.129   4.512   6.261 -0.3367 -0.6293 -0.1672
   15SAPS   C22 1888   6.243   4.343   6.397  0.3595 -0.5158 -0.6983
   15SAPS   H2R 1889   6.227   4.235   6.419 -0.5122 -0.3970 -0.7353
   15SAPS   H2S 1890   6.338   4.349   6.341  1.4324 -1.0647  1.0003
   15SAPS    C3 1891   5.809   4.254   6.252  0.0884  0.4386  0.2251
   15SAPS    HX 1892   5.823   4.144   6.260  1.3271  0.4757 -1.2424
   15SAPS    HY 1893   5.740   4.265   6.166 -2.2055 -2.4412  1.5840
   15SAPS   O31 1894   5.754   4.305   6.380  0.2956 -0.1596  0.2259
   15SAPS   C31 1895   5.678   4.409   6.380 -0.0623  0.2288  0.8784
   15SAPS   O32 1896   5.628   4.464   6.284  0.3458  0.1972 -0.2891
   15SAPS   C32 1897   5.651   4.448   6.522 -0.0862  0.9678 -0.3527
   15SAPS   H2X 1898   5.606   4.549   6.528 -3.3814 -0.5481  2.7831
   15SAPS   H2Y 1899   5.752   4.453   6.568 -0.5131  0.0815  0.6969
   15SAPS   C23 1900   6.262   4.418   6.526 -0.2657 -0.2705  0.4210
   15SAPS   H3R 1901   6.307   4.509   6.480  0.5044 -0.8828 -0.0588
   15SAPS   H3S 1902   6.341   4.380   6.594  0.1330  1.2951  0.8672
   15SAPS   C24 1903   6.139   4.459   6.605  0.6291 -0.6095 -0.1462
   15SAPS   H4R 1904   6.073   4.517   6.536  0.1644  0.2791  1.0198
   15SAPS   H4S 1905   6.166   4.529   6.688 -0.5125  1.5336 -1.5201
   15SAPS   C25 1906   6.051   4.340   6.649 -0.0192 -0.0081  0.8802
   15SAPS   H5R 1907   6.023   4.270   6.569  0.4294  1.7403 -0.8444
   15SAPS   C26 1908   6.029   4.326   6.779  0.1698 -0.5007  0.9097
   15SAPS   H6R 1909   5.994   4.225   6.801  1.5670 -0.9865  0.9865
   15SAPS   C27 1910   6.077   4.405   6.902 -0.0183 -0.9240  0.0083
   15SAPS   H7R 1911   5.976   4.435   6.938  0.2585 -1.4542  1.2543
   15SAPS   H7S 1912   6.137   4.498   6.890 -0.4096 -0.5032  1.2304
   15SAPS   C28 1913   6.158   4.320   6.996 -0.6498  0.0839  0.3771
   15SAPS   H8R 1914   6.229   4.251   6.949  0.8121  0.5971  1.7654
   15SAPS   C29 1915   6.141   4.321   7.132 -0.1579  0.4309 -0.5471
   15SAPS   H9R 1916   6.201   4.252   7.193  1.2878  1.1974 -1.0752
   15SAPS  C210 1917   6.046   4.407   7.215  0.6270 -0.3299 -0.8815
   15SAPS  H10R 1918   5.952   4.349   7.229 -0.5977  1.4233 -1.6679
   15SAPS  H10S 1919   6.007   4.482   7.143  0.9759  0.8953  0.2015
   15SAPS  C211 1920   6.101   4.477   7.338  0.0127  0.1515  0.6234
   15SAPS  H11R 1921   6.127   4.578   7.304  1.2340 -0.1769  0.5647
   15SAPS  C212 1922   6.104   4.433   7.466 -0.0917 -0.4078  0.1896
   15SAPS  H12R 1923   6.153   4.494   7.543  1.5913  0.3498 -1.4231
   15SAPS  C213 1924   6.053   4.295   7.507  0.4063 -0.0991  0.6323
   15SAPS  H13R 1925   6.039   4.220   7.426  1.0435  1.3013 -0.8166
   15SAPS  H13S 1926   5.956   4.303   7.560 -0.1047 -0.9512 -0.1547
   15SAPS  C214 1927   6.164   4.242   7.609  0.2201  0.1030  0.2123
   15SAPS  H14R 1928   6.240   4.179   7.562 -1.3827 -1.3974 -0.4363
   15SAPS  C215 1929   6.181   4.263   7.741 -0.2019  0.0586 -0.2793
   15SAPS  H15R 1930   6.248   4.192   7.793 -2.0456 -2.6725 -1.5051
   15SAPS  C216 1931   6.091   4.350   7.824  0.0061 -0.4587  0.4432
   15SAPS  H16R 1932   6.025   4.281   7.882 -0.6670  0.1617  0.4265
   15SAPS  H16S 1933   6.021   4.412   7.763 -0.0874  1.2658  2.2809
   15SAPS  C217 1934   6.156   4.437   7.930  0.4797  0.4540  0.1201
   15SAPS  H17R 1935   6.215   4.518   7.883 -0.0299 -0.5028 -2.2118
   15SAPS  H17S 1936   6.218   4.371   7.994 -0.3072 -1.4640 -1.0793
   15SAPS  C218 1937   6.043   4.497   8.011  0.1182 -0.3075 -0.7216
   15SAPS  H18R 1938   5.989   4.409   8.051 -0.0118  0.3536  0.6039
   15SAPS  H18S 1939   5.972   4.549   7.943 -2.7296  1.2461  3.2192
   15SAPS  C219 1940   6.082   4.584   8.138  0.2471  0.2075 -0.0521
   15SAPS  H19R 1941   5.989   4.636   8.168 -1.2727 -2.7916  0.6387
   15SAPS  H19S 1942   6.148   4.670   8.114  0.1995  0.5977  1.1853
   15SAPS  C220 1943   6.129   4.490   8.250  0.4596  0.0261 -0.1049
   15SAPS  H20R 1944   6.145   4.548   8.344  1.2717 -2.0399  1.0743
   15SAPS  H20S 1945   6.221   4.441   8.213  1.7408  3.8438 -2.2769
   15SAPS  H20T 1946   6.052   4.417   8.284  0.8299  0.7127  2.3044
   15SAPS   C33 1947   5.561   4.345   6.591  0.0756  0.8690  0.0166
   15SAPS   H3X 1948   5.594   4.244   6.558 -1.7473 -0.1352  1.2451
   15SAPS   H3Y 1949   5.453   4.345   6.568  0.2252 -2.1736 -0.9218
   15SAPS   C34 1950   5.564   4.345   6.745 -0.2223 -0.3074  0.1551
   15SAPS   H4X 1951   5.467   4.307   6.782 -2.2390  0.9851 -3.4988
   15SAPS   H4Y 1952   5.564   4.452   6.774 -0.3281 -0.1875 -0.2827
   15SAPS   C35 1953   5.690   4.270   6.790  0.1090 -0.4725  0.2665
   15SAPS   H5X 1954   5.771   4.339   6.756  0.2782 -1.3198 -1.1164
   15SAPS   H5Y 1955   5.708   4.174   6.736  0.3686 -0.1270 -0.2626
   15SAPS   C36 1956   5.701   4.246   6.945  0.2957 -0.2174 -0.8746
   15SAPS   H6X 1957   5.806   4.210   6.947 -0.4047 -2.3306 -0.8285
   15SAPS   H6Y 1958   5.632   4.168   6.984  0.3410  1.3392  2.4654
   15SAPS   C37 1959   5.685   4.364   7.045 -0.9724  0.4415  0.4244
   15SAPS   H7X 1960   5.604   4.431   7.010 -0.1054  1.1715 -0.2156
   15SAPS   H7Y 1961   5.772   4.432   7.038 -0.7538  0.0758 -0.5218
   15SAPS   C38 1962   5.655   4.309   7.185 -0.3287  0.0161 -0.0820
   15SAPS   H8X 1963   5.733   4.238   7.220 -0.0882  0.9413  1.2980
   15SAPS   H8Y 1964   5.558   4.257   7.174  0.0797 -0.6316 -0.6681
   15SAPS   C39 1965   5.639   4.403   7.303  0.2254 -0.5417  0.1042
   15SAPS   H9X 1966   5.542   4.455   7.290  0.6094  0.1323 -0.0960
   15SAPS   H9Y 1967   5.726   4.472   7.304  0.0224 -0.2786 -0.4470
   15SAPS  C310 1968   5.640   4.335   7.441 -0.5907 -0.0963  0.0228
   15SAPS  H10X 1969   5.740   4.286   7.447 -0.8539 -0.6708 -0.1762
   15SAPS  H10Y 1970   5.556   4.262   7.441 -0.7631  0.0925 -0.8158
   15SAPS  C311 1971   5.622   4.444   7.546  0.3394  0.1252 -0.3972
   15SAPS  H11X 1972   5.520   4.487   7.539 -1.1241 -2.8589  1.5834
   15SAPS  H11Y 1973   5.704   4.520   7.545 -0.9391  1.5634  1.0384
   15SAPS  C312 1974   5.633   4.387   7.687 -0.5680 -0.0968  0.0846
   15SAPS  H12X 1975   5.741   4.361   7.692  0.0531  2.1239 -1.2829
   15SAPS  H12Y 1976   5.566   4.299   7.705  4.0992 -3.7892  0.4112
   15SAPS  C313 1977   5.603   4.493   7.797 -0.2871  0.7646 -0.3815
   15SAPS  H13X 1978   5.604   4.436   7.893 -0.4221 -0.8989 -1.3554
   15SAPS  H13Y 1979   5.498   4.522   7.775 -0.0939  1.8499  0.0987
   15SAPS  C314 1980   5.693   4.617   7.788  0.0060 -0.5214 -0.9983
   15SAPS  H14X 1981   5.669   4.665   7.691 -0.8683 -1.3653 -1.2049
   15SAPS  H14Y 1982   5.801   4.594   7.794 -0.3372 -1.6034  2.1116
   15SAPS  C315 1983   5.658   4.720   7.898 -0.0859 -0.5309  0.3245
   15SAPS  H15X 1984   5.550   4.748   7.899  0.1062  0.2051  1.5658
   15SAPS  H15Y 1985   5.722   4.811   7.891 -2.2401  0.9997 -0.0793
   15SAPS  C316 1986   5.692   4.676   8.043  0.1175  0.5159  0.1174
   15SAPS  H16X 1987   5.789   4.622   8.047  0.4599  1.1608  0.5901
   15SAPS  H16Y 1988   5.620   4.593   8.062  1.8380 -0.8350  0.8234
   15SAPS  C317 1989   5.685   4.782   8.159 -0.3332  0.9940  0.3279
   15SAPS  H17X 1990   5.766   4.858   8.149 -1.3258  1.9312 -0.7894
   15SAPS  H17Y 1991   5.701   4.729   8.255  2.1836 -0.9715 -1.1041
   15SAPS  C318 1992   5.555   4.853   8.168 -0.1531 -0.2639  0.1627
   15SAPS  H18X 1993   5.565   4.941   8.235 -2.1834 -0.9346  1.3825
   15SAPS  H18Y 1994   5.480   4.786   8.214 -1.0540 -0.4777 -1.5779
   15SAPS  H18Z 1995   5.513   4.894   8.073  0.9941 -0.6649 -0.5286
   16SAPS     N 1996   0.461   5.774   6.467 -0.2292 -0.2005 -0.0600
   16SAPS   HN1 1997   0.488   5.674   6.459  2.1319  0.5079 -1.1221
   16SAPS   HN2 1998   0.435   5.796   6.565 -0.5225  1.7101 -0.5429
   16SAPS   HN3 1999   0.379   5.786   6.404  0.9680 -0.7268 -1.7675
   16SAPS   C12 2000   0.586   5.837   6.419 -0.4387  0.6299  0.3931
   16SAPS  H12A 2001   0.670   5.830   6.486  0.3531  0.7710 -0.5716
   16SAPS   C13 2002   0.643   5.786   6.284  0.8277 -0.0114  0.1261
   16SAPS  O13A 2003   0.563   5.726   6.207  0.0309  0.3758  0.1284
   16SAPS  O13B 2004   0.755   5.834   6.251 -0.2396  0.3312 -0.1268
   16SAPS   C11 2005   0.555   5.989   6.414  0.0802 -0.4392 -0.4269
   16SAPS  H11A 2006   0.455   6.009   6.372  0.4388  2.7042  0.0959
   16SAPS  H11B 2007   0.631   6.042   6.352  0.8890 -1.0815  0.0055
   16SAPS     P 2008   0.709   6.113   6.584 -0.2092  0.2388 -0.1040
   16SAPS   O13 2009   0.792   6.004   6.634  0.2762  0.1287 -0.6372
   16SAPS   O14 2010   0.773   6.179   6.471  0.1727 -0.3869 -0.0210
   16SAPS   O12 2011   0.569   6.048   6.547  0.4247  0.4837 -0.0290
   16SAPS   O11 2012   0.671   6.224   6.692 -0.0293  0.3601  0.0390
   16SAPS    C1 2013   0.542   6.234   6.747  0.0783  0.0576  0.3040
   16SAPS    HA 2014   0.483   6.308   6.689  0.4195  0.0391 -0.0707
   16SAPS    HB 2015   0.493   6.135   6.752 -0.3551  0.2299 -0.5073
   16SAPS    C2 2016   0.548   6.282   6.894 -0.3827  0.7761 -0.4029
   16SAPS    HS 2017   0.609   6.375   6.897  1.0109 -0.1829  4.1881
   16SAPS   O21 2018   0.617   6.179   6.970  0.3011 -0.3074 -0.2079
   16SAPS   C21 2019   0.755   6.169   6.974  0.1581  0.1950  0.2335
   16SAPS   O22 2020   0.824   6.259   6.935 -0.0690  0.2696 -0.0801
   16SAPS   C22 2021   0.784   6.037   7.052  0.7366  0.2086 -0.5239
   16SAPS   H2R 2022   0.886   6.033   7.095  0.7407 -0.3654 -0.5827
   16SAPS   H2S 2023   0.701   6.033   7.126 -1.6736 -2.0569 -3.2170
   16SAPS    C3 2024   0.406   6.309   6.946  0.6326  0.1098 -0.1064
   16SAPS    HX 2025   0.350   6.213   6.953 -1.8647  1.5149 -0.2704
   16SAPS    HY 2026   0.350   6.377   6.878 -0.5406 -0.1644  0.5773
   16SAPS   O31 2027   0.394   6.365   7.078 -0.3096  0.6261  0.3083
   16SAPS   C31 2028   0.434   6.491   7.086  0.1684 -0.4585  0.3236
   16SAPS   O32 2029   0.468   6.561   6.996 -0.0808  0.0155  0.3073
   16SAPS   C32 2030   0.409   6.530   7.232 -0.7310 -0.5559  0.4236
   16SAPS   H2X 2031   0.302   6.555   7.252 -0.3191  1.9433 -0.3111
   16SAPS   H2Y 2032   0.460   6.628   7.247  0.5346 -1.0654 -0.4955
   16SAPS   C23 2033   0.771   5.920   6.956 -0.3664  0.2750 -0.2423
   16SAPS   H3R 2034   0.847   5.927   6.876  0.9285  0.3477  0.9754
   16SAPS   H3S 2035   0.670   5.909   6.910 -0.8138  1.5734  0.4098
   16SAPS   C24 2036   0.819   5.790   7.029  0.5155 -0.2413 -0.3201
   16SAPS   H4R 2037   0.913   5.816   7.082  1.1788 -0.6617 -1.2743
   16SAPS   H4S 2038   0.850   5.700   6.972  0.1281 -0.4219 -0.2486
   16SAPS   C25 2039   0.708   5.739   7.122 -0.8137 -0.5223 -0.4139
   16SAPS   H5R 2040   0.622   5.699   7.067 -0.8251  0.9602 -1.5149
   16SAPS   C26 2041   0.719   5.733   7.259 -0.0438  0.5470 -0.6146
   16SAPS   H6R 2042   0.627   5.707   7.315 -0.4628  3.9927  0.4031
   16SAPS   C27 2043   0.828   5.774   7.360 -0.3621  0.0160  0.3809
   16SAPS   H7R 2044   0.919   5.772   7.297 -1.5560 -1.8226 -1.3558
   16SAPS   H7S 2045   0.846   5.702   7.443  0.9836 -0.9140 -0.6955
   16SAPS   C28 2046   0.820   5.919   7.415 -1.1468 -0.1975  0.0931
   16SAPS   H8R 2047   0.793   5.997   7.343  1.8267 -1.8438 -2.9838
   16SAPS   C29 2048   0.840   5.949   7.548  0.6391  0.1894  0.0261
   16SAPS   H9R 2049   0.835   6.056   7.576 -2.6612  0.7885 -2.4602
   16SAPS  C210 2050   0.871   5.860   7.671  0.5795  0.5635 -0.2999
   16SAPS  H10R 2051   0.906   5.916   7.760 -1.1501 -1.2195  1.5450
   16SAPS  H10S 2052   0.952   5.787   7.652 -0.4412 -0.8692  0.7730
   16SAPS  C211 2053   0.740   5.799   7.708 -0.2684  0.3815 -0.2344
   16SAPS  H11R 2054   0.653   5.840   7.655 -1.6620 -1.5553  0.5205
   16SAPS  C212 2055   0.728   5.722   7.815  0.0912 -0.5252 -0.3198
   16SAPS  H12R 2056   0.628   5.685   7.841 -0.3361  1.0081  0.2434
   16SAPS  C213 2057   0.836   5.680   7.914  0.2129 -0.4316 -0.0656
   16SAPS  H13R 2058   0.919   5.754   7.918  0.8119 -1.1623  1.9982
   16SAPS  H13S 2059   0.882   5.583   7.883  2.0492  0.5198 -0.3657
   16SAPS  C214 2060   0.771   5.658   8.048 -0.0687  0.5495  0.4325
   16SAPS  H14R 2061   0.720   5.561   8.055  2.3612 -0.8517 -0.3902
   16SAPS  C215 2062   0.767   5.746   8.150 -0.1668 -0.4861 -0.0263
   16SAPS  H15R 2063   0.730   5.731   8.252 -0.6586  0.8300  0.0066
   16SAPS  C216 2064   0.838   5.880   8.158  0.3487  0.3218 -0.1096
   16SAPS  H16R 2065   0.784   5.959   8.215  0.0962  0.7251 -0.9070
   16SAPS  H16S 2066   0.835   5.912   8.052 -1.8472  0.3612 -0.0609
   16SAPS  C217 2067   0.989   5.877   8.201  0.6778 -0.1994 -0.1722
   16SAPS  H17R 2068   1.025   5.982   8.197  1.4025 -0.4857 -1.3852
   16SAPS  H17S 2069   1.033   5.809   8.125  0.0492  0.2236 -0.9150
   16SAPS  C218 2070   1.020   5.819   8.337 -0.4833 -0.2731  0.8300
   16SAPS  H18R 2071   1.129   5.825   8.360  0.1288 -0.2076 -1.8433
   16SAPS  H18S 2072   0.979   5.716   8.335 -2.5991  0.5563 -1.5974
   16SAPS  C219 2073   0.953   5.878   8.458 -0.1333  0.7178 -0.4886
   16SAPS  H19R 2074   0.845   5.854   8.447 -0.1129 -0.1448  1.0630
   16SAPS  H19S 2075   0.960   5.988   8.471 -0.4501  0.9988 -2.5291
   16SAPS  C220 2076   1.014   5.820   8.588  0.2521  0.0184  0.1166
   16SAPS  H20R 2077   0.995   5.711   8.597  0.7810 -0.0269  0.7270
   16SAPS  H20S 2078   0.961   5.878   8.667 -0.2933  1.1591 -1.0802
   16SAPS  H20T 2079   1.123   5.839   8.593 -0.0165  1.2028  1.7083
   16SAPS   C33 2080   0.475   6.435   7.330 -0.3635  0.6154 -0.0069
   16SAPS   H3X 2081   0.417   6.343   7.310  0.6342 -0.1692  0.6243
   16SAPS   H3Y 2082   0.451   6.465   7.435 -0.0117  1.3584 -0.1343
   16SAPS   C34 2083   0.623   6.397   7.325  0.0856  0.4273 -0.1824
   16SAPS   H4X 2084   0.682   6.458   7.396  0.3939 -2.3941  2.0957
   16SAPS   H4Y 2085   0.669   6.405   7.224  1.0030  0.8463  0.2678
   16SAPS   C35 2086   0.659   6.258   7.369  0.6306 -0.0542  0.0743
   16SAPS   H5X 2087   0.770   6.258   7.372  0.6495 -0.1993 -0.5579
   16SAPS   H5Y 2088   0.624   6.185   7.293  0.9349  0.5624 -0.6621
   16SAPS   C36 2089   0.596   6.219   7.507 -0.4625 -0.2451  0.0376
   16SAPS   H6X 2090   0.621   6.111   7.515 -2.6106 -0.7017  0.8223
   16SAPS   H6Y 2091   0.486   6.229   7.497 -0.8161 -2.0754  1.8340
   16SAPS   C37 2092   0.661   6.294   7.627  0.1572 -0.1470  0.5443
   16SAPS   H7X 2093   0.621   6.398   7.636  2.5124  0.8647 -0.3692
   16SAPS   H7Y 2094   0.768   6.306   7.601 -0.2649 -0.7466 -1.5427
   16SAPS   C38 2095   0.646   6.231   7.764 -0.0384  0.3415  0.8462
   16SAPS   H8X 2096   0.706   6.137   7.767  1.6106  1.2891 -1.0064
   16SAPS   H8Y 2097   0.540   6.213   7.790 -0.4845  0.9632 -0.5291
   16SAPS   C39 2098   0.707   6.331   7.868  0.1591 -0.7126 -0.6655
   16SAPS   H9X 2099   0.652   6.428   7.869  0.8640 -0.2713  2.8315
   16SAPS   H9Y 2100   0.812   6.357   7.846  0.6479 -1.6617  0.5206
   16SAPS  C310 2101   0.703   6.270   8.009 -0.6733 -0.4582 -0.5124
   16SAPS  H10X 2102   0.777   6.188   7.998 -0.1422 -0.3245  1.8893
   16SAPS  H10Y 2103   0.602   6.228   8.030  0.0983 -2.7221 -1.1786
   16SAPS  C311 2104   0.747   6.355   8.127  0.5261 -0.2137 -0.6060
   16SAPS  H11X 2105   0.678   6.439   8.148  0.4708 -0.6357  0.9919
   16SAPS  H11Y 2106   0.849   6.398   8.116  0.7285 -0.7407 -0.8237
   16SAPS  C312 2107   0.750   6.278   8.259 -0.3786 -0.3416 -0.3223
   16SAPS  H12X 2108   0.825   6.196   8.254 -0.2155 -0.0554 -2.8624
   16SAPS  H12Y 2109   0.651   6.233   8.283  0.9480 -3.3352 -0.2687
   16SAPS  C313 2110   0.802   6.357   8.381 -0.3886 -0.1484  0.1934
   16SAPS  H13X 2111   0.775   6.311   8.478 -0.5605 -1.9890 -0.7098
   16SAPS  H13Y 2112   0.761   6.460   8.377 -0.1845 -0.0558  0.4707
   16SAPS  C314 2113   0.955   6.361   8.388 -0.8276 -0.4527 -0.6731
   16SAPS  H14X 2114   1.001   6.399   8.294  0.4114  0.5523  0.3410
   16SAPS  H14Y 2115   1.000   6.259   8.385  1.1340  0.3751 -0.2513
   16SAPS  C315 2116   1.016   6.439   8.509  0.2276  0.7004  0.1303
   16SAPS  H15X 2117   0.943   6.424   8.592 -0.3075 -1.2496 -0.6838
   16SAPS  H15Y 2118   1.015   6.542   8.466 -2.3298  0.1695 -1.1926
   16SAPS  C316 2119   1.165   6.404   8.529  0.1982  0.2759  0.3630
   16SAPS  H16X 2120   1.213   6.420   8.430 -1.0639  0.2047 -0.2798
   16SAPS  H16Y 2121   1.170   6.294   8.543  1.6285  0.0270 -1.8176
   16SAPS  C317 2122   1.227   6.478   8.646 -0.7332  0.3104  0.0426
   16SAPS  H17X 2123   1.185   6.444   8.743 -1.0216  0.6169  0.0266
   16SAPS  H17Y 2124   1.196   6.584   8.636 -1.4145  0.3202  1.9904
   16SAPS  C318 2125   1.380   6.460   8.648 -0.1302 -0.3119 -0.6198
   16SAPS  H18X 2126   1.420   6.544   8.710  1.8563 -0.8561 -1.1220
   16SAPS  H18Y 2127   1.416   6.470   8.543 -1.1776 -1.6023 -1.1034
   16SAPS  H18Z 2128   1.413   6.361   8.686 -1.5819 -0.7114 -0.3961
   17SAPC     N 2129   4.995   2.281  10.435  0.4873  0.1583 -0.2073
   17SAPC   C12 2130   5.065   2.360  10.319  0.5547  0.2365  0.5126
   17SAPC  H12A 2131   5.085   2.293  10.236 -2.2271  0.0730 -0.0673
   17SAPC  H12B 2132   5.161   2.395  10.354 -0.2119  3.0214 -0.0929
   17SAPC   C13 2133   4.854   2.248  10.400  0.0027 -0.7936  0.5290
   17SAPC  H13A 2134   4.800   2.342  10.396 -1.4280 -1.6434 -0.7216
   17SAPC  H13B 2135   4.847   2.203  10.302 -0.0879  0.1855  0.0705
   17SAPC  H13C 2136   4.804   2.195  10.479  0.3758  0.6953  1.7831
   17SAPC   C14 2137   5.070   2.168  10.468 -0.0822 -0.4463 -0.3157
   17SAPC  H14A 2138   5.035   2.112  10.553 -0.7416 -0.0021 -0.2947
   17SAPC  H14B 2139   5.060   2.094  10.390 -0.0486  0.0175 -0.7728
   17SAPC  H14C 2140   5.175   2.187  10.488 -0.1380  0.6230 -0.9485
   17SAPC   C15 2141   4.992   2.365  10.555  0.7305  0.0553  0.4460
   17SAPC  H15A 2142   4.917   2.327  10.623 -0.0695  0.7803 -0.0107
   17SAPC  H15B 2143   5.079   2.383  10.616  1.3921 -0.2741 -0.3837
   17SAPC  H15C 2144   4.951   2.462  10.531  2.0171  0.6108  0.4617
   17SAPC   C11 2145   5.000   2.477  10.267  0.2400 -0.3746 -0.2256
   17SAPC  H11A 2146   4.891   2.465  10.251  0.5558  0.0048 -2.8170
   17SAPC  H11B 2147   5.038   2.507  10.167  1.4624  2.4802  1.0384
   17SAPC     P 2148   5.155   2.673  10.358  0.9431 -0.1437 -0.2252
   17SAPC   O13 2149   5.156   2.769  10.466  0.0796  0.8074  0.0641
   17SAPC   O14 2150   5.275   2.591  10.352 -0.1523  0.7427 -0.7033
   17SAPC   O12 2151   5.020   2.583  10.363 -0.4691  0.2685 -0.5849
   17SAPC   O11 2152   5.141   2.753  10.216 -0.3924  0.0395  0.3456
   17SAPC    C1 2153   5.033   2.837  10.182  1.0063  0.0919  0.1002
   17SAPC    HA 2154   4.945   2.770  10.186  0.8207  0.3621  0.5100
   17SAPC    HB 2155   5.008   2.917  10.253  1.0761 -0.6205  0.9333
   17SAPC    C2 2156   5.049   2.907  10.040 -0.2596 -0.3524  0.0769
   17SAPC    HS 2157   4.953   2.955  10.011  0.1075  0.9691  0.9864
   17SAPC   O21 2158   5.092   2.809   9.948  0.0124 -0.1148  0.3183
   17SAPC   C21 2159   4.996   2.712   9.922  0.3027  0.1984  0.5743
   17SAPC   O22 2160   4.875   2.716   9.951 -0.2557 -0.2348 -0.5321
   17SAPC   C22 2161   5.056   2.613   9.831 -0.4901  0.6435  0.4011
   17SAPC   H2R 2162   5.166   2.605   9.835 -0.4837  0.8336  0.6287
   17SAPC   H2S 2163   5.023   2.519   9.881  2.4651 -0.5366  0.2372
   17SAPC    C3 2164   5.157   3.020  10.057 -0.5719 -0.5729 -0.7880
   17SAPC    HX 2165   5.255   2.977  10.087 -0.2374 -0.2367 -1.3817
   17SAPC    HY 2166   5.120   3.093  10.131 -0.8476 -0.7408 -0.7607
   17SAPC   O31 2167   5.181   3.095   9.936  0.4430  0.4574 -0.2423
   17SAPC   C31 2168   5.282   3.052   9.856 -0.5455  0.4668 -0.5351
   17SAPC   O32 2169   5.348   2.951   9.873  0.4775 -0.6124  0.0407
   17SAPC   C32 2170   5.287   3.139   9.736  0.1665 -0.1030 -0.1443
   17SAPC   H2X 2171   5.389   3.181   9.746  0.2327  0.1554 -1.7819
   17SAPC   H2Y 2172   5.203   3.211   9.743  0.1321  0.1283 -2.4421
   17SAPC   C23 2173   5.009   2.618   9.684 -0.1353 -0.5475  0.6317
   17SAPC   H3R 2174   4.898   2.615   9.679 -0.1090 -0.9440  0.2796
   17SAPC   H3S 2175   5.044   2.525   9.633 -1.8221  0.3875 -2.3647
   17SAPC   C24 2176   5.071   2.723   9.588  0.4612  0.8410  0.0153
   17SAPC   H4R 2177   5.178   2.745   9.609  1.4470 -3.1062 -0.5781
   17SAPC   H4S 2178   5.026   2.823   9.606 -0.0030  0.5646  0.3832
   17SAPC   C25 2179   5.056   2.684   9.443 -0.4804 -0.4831  0.1186
   17SAPC   H5R 2180   4.955   2.703   9.403  0.2581 -2.8944 -3.1827
   17SAPC   C26 2181   5.138   2.624   9.360  0.0599 -0.3690 -0.0156
   17SAPC   H6R 2182   5.095   2.609   9.260 -1.4291 -1.9626  0.8298
   17SAPC   C27 2183   5.278   2.575   9.396  0.4550  0.7719 -0.5762
   17SAPC   H7R 2184   5.289   2.553   9.504  2.9145 -1.2466 -1.1838
   17SAPC   H7S 2185   5.349   2.660   9.388 -1.6212  2.5264 -0.9949
   17SAPC   C28 2186   5.326   2.461   9.309  0.0672  1.2331  0.0476
   17SAPC   H8R 2187   5.340   2.363   9.356 -0.5127 -0.0788 -2.4061
   17SAPC   C29 2188   5.381   2.465   9.187  0.7121 -0.5610  0.0359
   17SAPC   H9R 2189   5.403   2.375   9.129 -0.0664 -0.7396  0.0199
   17SAPC  C210 2190   5.378   2.606   9.111  0.2688 -0.6922 -0.5692
   17SAPC  H10R 2191   5.314   2.682   9.160 -0.7845 -0.3942 -2.3336
   17SAPC  H10S 2192   5.325   2.587   9.015 -2.4650 -0.7095  0.8985
   17SAPC  C211 2193   5.510   2.678   9.097  0.9275  0.4092  0.5394
   17SAPC  H11R 2194   5.578   2.675   9.184  0.1788  0.3001  1.1231
   17SAPC  C212 2195   5.561   2.712   8.977 -0.4550 -0.3536  0.1278
   17SAPC  H12R 2196   5.651   2.776   8.971 -0.5571 -0.4121 -2.2313
   17SAPC  C213 2197   5.503   2.704   8.836  0.3808 -0.4318 -0.1019
   17SAPC  H13R 2198   5.507   2.808   8.797 -0.8104 -0.0131  0.8702
   17SAPC  H13S 2199   5.396   2.677   8.844  1.1614 -3.4107  0.9385
   17SAPC  C214 2200   5.582   2.604   8.752  0.0904 -0.3647  0.0439
   17SAPC  H14R 2201   5.547   2.500   8.764 -1.6003 -0.0950 -2.1828
   17SAPC  C215 2202   5.674   2.629   8.659  0.8486 -0.3836 -0.1409
   17SAPC  H15R 2203   5.729   2.550   8.607  0.5110 -0.3276 -0.5861
   17SAPC  C216 2204   5.732   2.757   8.619  0.6997  0.2423 -0.2968
   17SAPC  H16R 2205   5.842   2.753   8.628  0.6664  1.8367  1.1376
   17SAPC  H16S 2206   5.705   2.839   8.689  2.8155  0.9042 -0.2249
   17SAPC  C217 2207   5.705   2.796   8.473  0.0959 -0.3976  0.3542
   17SAPC  H17R 2208   5.599   2.783   8.440  0.2379 -0.6087 -0.0194
   17SAPC  H17S 2209   5.756   2.723   8.407  2.0807 -0.4401  1.9030
   17SAPC  C218 2210   5.739   2.941   8.433 -0.4877  0.0835 -0.7175
   17SAPC  H18R 2211   5.749   3.006   8.523 -1.7363  0.3916 -0.7895
   17SAPC  H18S 2212   5.659   2.980   8.367  0.9401  0.0675 -2.5038
   17SAPC  C219 2213   5.877   2.959   8.363 -0.4442  0.3899  0.5768
   17SAPC  H19R 2214   5.883   2.897   8.272 -0.5872  2.0245 -0.5686
   17SAPC  H19S 2215   5.962   2.928   8.428  0.3952  0.6827 -0.3656
   17SAPC  C220 2216   5.889   3.113   8.324  0.3854 -0.5047  0.0358
   17SAPC  H20R 2217   5.819   3.138   8.241  1.3698  0.9386 -0.3614
   17SAPC  H20S 2218   5.983   3.161   8.292 -0.7234  2.7183  1.4393
   17SAPC  H20T 2219   5.860   3.173   8.413 -0.1882 -1.1306  0.2760
   17SAPC   C33 2220   5.273   3.066   9.598 -0.8259  0.4641 -0.1245
   17SAPC   H3X 2221   5.165   3.038   9.593  0.1765 -3.1651 -3.1878
   17SAPC   H3Y 2222   5.346   2.983   9.589 -1.6488 -0.3081  0.1633
   17SAPC   C34 2223   5.289   3.151   9.478  0.4617 -0.3159  0.6364
   17SAPC   H4X 2224   5.388   3.201   9.480 -0.2369  1.2589 -1.9469
   17SAPC   H4Y 2225   5.202   3.219   9.467 -0.7386 -1.8560  0.5256
   17SAPC   C35 2226   5.298   3.061   9.354  0.0667 -0.1850  0.4957
   17SAPC   H5X 2227   5.200   3.010   9.344  0.9613 -1.8375 -0.0581
   17SAPC   H5Y 2228   5.387   2.995   9.359  0.1732 -0.3033 -2.1056
   17SAPC   C36 2229   5.320   3.152   9.234  0.3985  0.8005  0.0861
   17SAPC   H6X 2230   5.422   3.197   9.235 -0.4388  2.7243  2.1904
   17SAPC   H6Y 2231   5.241   3.228   9.249 -0.3228 -0.3932  2.5473
   17SAPC   C37 2232   5.296   3.078   9.102 -0.8024 -0.8839  0.9217
   17SAPC   H7X 2233   5.205   3.013   9.100 -0.9147 -0.6788 -1.7440
   17SAPC   H7Y 2234   5.383   3.012   9.082 -0.7575  0.0130 -2.1461
   17SAPC   C38 2235   5.299   3.172   8.983  1.0145  0.4166  0.7706
   17SAPC   H8X 2236   5.396   3.226   8.990  1.0134  0.2579  2.2100
   17SAPC   H8Y 2237   5.233   3.259   9.002 -2.4565 -2.1328  0.8996
   17SAPC   C39 2238   5.275   3.103   8.846 -0.4252 -0.9474 -0.1007
   17SAPC   H9X 2239   5.165   3.096   8.836 -0.5111  0.0110  0.1372
   17SAPC   H9Y 2240   5.330   3.006   8.845 -2.9296 -2.3996 -0.9905
   17SAPC  C310 2241   5.341   3.177   8.732 -0.8726  0.1444 -0.2697
   17SAPC  H10X 2242   5.451   3.163   8.735 -0.9753 -0.6175  0.0509
   17SAPC  H10Y 2243   5.317   3.286   8.730 -0.2977  0.2573 -1.2561
   17SAPC  C311 2244   5.294   3.123   8.594 -0.0556 -0.1463  0.1135
   17SAPC  H11X 2245   5.183   3.118   8.587  0.0896 -0.4790 -2.1571
   17SAPC  H11Y 2246   5.347   3.027   8.577  0.0503  0.4007 -2.9431
   17SAPC  C312 2247   5.356   3.199   8.464 -0.0030  0.5928 -0.1482
   17SAPC  H12X 2248   5.450   3.250   8.492  0.3673  0.3460 -0.9242
   17SAPC  H12Y 2249   5.282   3.275   8.431 -1.5519 -1.6847 -2.1418
   17SAPC  C313 2250   5.381   3.100   8.344 -0.2088 -0.1817  0.5162
   17SAPC  H13X 2251   5.465   3.038   8.382 -1.2874 -0.7805  2.0003
   17SAPC  H13Y 2252   5.417   3.156   8.255 -0.5218  0.5033  0.8088
   17SAPC  C314 2253   5.268   3.005   8.308 -0.2128 -0.8243  0.2066
   17SAPC  H14X 2254   5.235   2.950   8.398 -2.7764  1.1834  0.5662
   17SAPC  H14Y 2255   5.314   2.931   8.240 -0.4102 -0.0688 -0.7667
   17SAPC  C315 2256   5.160   3.100   8.248 -0.2199 -0.2092  0.5122
   17SAPC  H15X 2257   5.201   3.184   8.188 -1.6351 -0.8460 -1.3920
   17SAPC  H15Y 2258   5.103   3.144   8.332 -2.5414 -1.4522 -0.3592
   17SAPC  C316 2259   5.051   3.030   8.160 -0.1403  0.6104  0.3361
   17SAPC  H16X 2260   4.982   3.101   8.110  0.9821  1.2873 -0.2993
   17SAPC  H16Y 2261   4.998   2.954   8.220 -0.1470  1.7253  1.7837
   17SAPC  C317 2262   5.111   2.961   8.037 -0.1288 -0.0758 -0.0741
   17SAPC  H17X 2263   5.204   2.903   8.054 -0.8198 -1.1573  0.0844
   17SAPC  H17Y 2264   5.146   3.046   7.975  0.7195  0.6888  1.4418
   17SAPC  C318 2265   5.013   2.869   7.955 -0.7822  0.2385 -0.4057
   17SAPC  H18X 2266   5.052   2.861   7.851  0.1507  0.8142 -0.1085
   17SAPC  H18Y 2267   5.009   2.769   8.004 -3.3649  0.0406 -0.9753
   17SAPC  H18Z 2268   4.909   2.906   7.950 -1.4715 -1.2707  2.0486
   18SAPC     N 2269   5.725   3.553  10.691 -0.1616  1.1043 -0.2976
   18SAPC   C12 2270   5.847   3.455  10.667  0.2898  0.1433  0.0333
   18SAPC  H12A 2271   5.940   3.493  10.707  1.1745 -2.2391  0.3390
   18SAPC  H12B 2272   5.861   3.451  10.560 -0.6273  0.6164 -0.1015
   18SAPC   C13 2273   5.700   3.559  10.836 -0.5834 -0.5599  0.2361
   18SAPC  H13A 2274   5.606   3.609  10.851 -0.6585 -0.9360  1.0865
   18SAPC  H13B 2275   5.698   3.457  10.874 -0.8773 -1.0445 -1.0735
   18SAPC  H13C 2276   5.777   3.608  10.893  0.6525 -0.6050 -1.3771
   18SAPC   C14 2277   5.750   3.692  10.639 -0.3765 -0.4878  0.5389
   18SAPC  H14A 2278   5.735   3.694  10.532 -0.4197 -0.4915  0.5444
   18SAPC  H14B 2279   5.683   3.761  10.688 -0.3110  0.0075 -0.0630
   18SAPC  H14C 2280   5.844   3.731  10.674  0.8750 -0.3594 -2.7717
   18SAPC   C15 2281   5.606   3.506  10.619  0.1930  0.2004 -0.7698
   18SAPC  H15A 2282   5.524   3.572  10.644 -0.8783 -1.4264  0.0720
   18SAPC  H15B 2283   5.620   3.509  10.512 -2.1052 -3.4510 -1.2630
   18SAPC  H15C 2284   5.570   3.407  10.643  0.0023  0.3198 -0.5610
   18SAPC   C11 2285   5.835   3.312  10.717  0.2943  0.4884 -0.1260
   18SAPC  H11A 2286   5.809   3.318  10.825  2.3037 -2.5342  0.5645
   18SAPC  H11B 2287   5.934   3.262  10.709 -1.1147 -2.2130 -1.2657
   18SAPC     P 2288   5.788   3.181  10.504  0.2247  0.5660 -0.5483
   18SAPC   O13 2289   5.688   3.083  10.464  0.4544 -0.4891  0.2038
   18SAPC   O14 2290   5.814   3.288  10.407 -0.1848 -0.0946  0.1051
   18SAPC   O12 2291   5.734   3.238  10.650 -0.2916  0.3540 -0.3756
   18SAPC   O11 2292   5.931   3.105  10.524  0.7106  0.4349  0.5834
   18SAPC    C1 2293   5.947   2.993  10.616 -0.5274 -0.5348 -0.3167
   18SAPC    HA 2294   6.002   3.043  10.699 -0.2138  1.4253 -1.6700
   18SAPC    HB 2295   5.848   2.962  10.655 -0.7840  1.1664  0.4595
   18SAPC    C2 2296   6.024   2.875  10.552 -0.3856 -0.8186 -0.8920
   18SAPC    HS 2297   6.123   2.918  10.526 -0.0425 -1.9383 -1.4523
   18SAPC   O21 2298   5.945   2.834  10.444  0.2654 -0.3466 -0.3084
   18SAPC   C21 2299   5.976   2.896  10.331  0.3587  0.3162 -0.3433
   18SAPC   O22 2300   6.074   2.967  10.312 -0.1005 -0.0919 -0.1553
   18SAPC   C22 2301   5.868   2.860  10.225  0.0119  0.2951  0.4108
   18SAPC   H2R 2302   5.787   2.790  10.254 -0.3614  0.4038 -0.3748
   18SAPC   H2S 2303   5.822   2.959  10.204  1.5692  0.3757 -2.9274
   18SAPC    C3 2304   6.061   2.763  10.648 -0.0957  0.3725  0.7889
   18SAPC    HX 2305   5.981   2.716  10.709  0.7800 -0.3770  1.3696
   18SAPC    HY 2306   6.128   2.812  10.723  1.7353  0.5047 -0.8972
   18SAPC   O31 2307   6.135   2.663  10.574  0.3037  0.7746  0.6668
   18SAPC   C31 2308   6.134   2.542  10.620  0.3915  1.1127  0.6362
   18SAPC   O32 2309   6.072   2.504  10.718 -0.1171  0.1951  0.3983
   18SAPC   C32 2310   6.226   2.453  10.546  0.4994  0.0264  0.5308
   18SAPC   H2X 2311   6.292   2.399  10.616  0.8183 -1.1320 -0.6568
   18SAPC   H2Y 2312   6.284   2.523  10.482 -0.9918  1.2042  0.4200
   18SAPC   C23 2313   5.916   2.811  10.088 -0.1180 -0.1766  0.2547
   18SAPC   H3R 2314   5.971   2.888  10.031  3.7852 -1.4383  2.1714
   18SAPC   H3S 2315   5.820   2.793  10.035  0.4421 -1.4372 -0.3377
   18SAPC   C24 2316   6.004   2.690  10.081 -0.5629  0.7661  0.2305
   18SAPC   H4R 2317   6.102   2.717  10.125 -1.0194  0.9100  1.1886
   18SAPC   H4S 2318   6.026   2.662   9.976 -0.8206  2.1260 -0.1911
   18SAPC   C25 2319   5.953   2.566  10.159 -0.9878 -0.1032 -0.5720
   18SAPC   H5R 2320   5.990   2.558  10.262  0.3109  0.0560 -1.0090
   18SAPC   C26 2321   5.862   2.477  10.113  0.1985 -0.1016  0.1937
   18SAPC   H6R 2322   5.823   2.392  10.172 -1.8157 -0.3762 -1.4748
   18SAPC   C27 2323   5.809   2.493   9.970 -0.2369 -0.5037  0.5365
   18SAPC   H7R 2324   5.868   2.421   9.908 -0.9602 -0.8104  0.1998
   18SAPC   H7S 2325   5.827   2.593   9.925  1.4283 -0.8290  0.4397
   18SAPC   C28 2326   5.667   2.475   9.948  0.2793  0.5569 -0.2037
   18SAPC   H8R 2327   5.612   2.439  10.036 -0.4092  0.2667 -0.7449
   18SAPC   C29 2328   5.607   2.510   9.838 -0.0041  0.7353  0.1352
   18SAPC   H9R 2329   5.497   2.510   9.830 -0.1668  0.8006  2.1308
   18SAPC  C210 2330   5.673   2.559   9.713 -1.2576 -0.2037  0.2108
   18SAPC  H10R 2331   5.622   2.528   9.620 -1.3277 -0.1518  0.2316
   18SAPC  H10S 2332   5.772   2.510   9.709 -2.2828 -2.3566  0.2549
   18SAPC  C211 2333   5.695   2.707   9.698 -0.8630  1.0594  0.3555
   18SAPC  H11R 2334   5.612   2.769   9.736 -1.9276  0.9837 -1.8161
   18SAPC  C212 2335   5.807   2.762   9.656 -0.0451 -1.0704 -0.8898
   18SAPC  H12R 2336   5.814   2.871   9.650 -0.0478 -1.1271 -2.0390
   18SAPC  C213 2337   5.929   2.693   9.599 -0.2069  0.2363  0.0991
   18SAPC  H13R 2338   5.904   2.588   9.572  1.2252  0.0851 -0.6745
   18SAPC  H13S 2339   6.002   2.688   9.683 -1.2359 -1.2024  0.9400
   18SAPC  C214 2340   5.973   2.772   9.481 -0.4981  0.7740 -0.4174
   18SAPC  H14R 2341   5.991   2.879   9.501  0.2431  0.8047 -1.2285
   18SAPC  C215 2342   5.989   2.728   9.355 -1.1021  0.4755 -0.0263
   18SAPC  H15R 2343   6.011   2.797   9.272  0.5244 -0.8246 -0.7290
   18SAPC  C216 2344   5.965   2.581   9.314 -0.2333 -0.4481  0.5964
   18SAPC  H16R 2345   5.899   2.523   9.382  2.3304 -0.4440  3.2138
   18SAPC  H16S 2346   6.060   2.525   9.297  0.6749  1.6524 -1.4602
   18SAPC  C217 2347   5.889   2.578   9.176  0.1050  0.8213 -1.3721
   18SAPC  H17R 2348   5.805   2.649   9.172 -1.3215 -0.7296  0.2273
   18SAPC  H17S 2349   5.855   2.472   9.164 -0.7252  0.7298  1.3738
   18SAPC  C218 2350   5.978   2.601   9.061 -0.0635  0.4246 -0.4114
   18SAPC  H18R 2351   6.063   2.529   9.070 -0.4606 -0.1416 -1.0758
   18SAPC  H18S 2352   6.008   2.707   9.068 -1.8877  0.7381  4.1328
   18SAPC  C219 2353   5.927   2.566   8.926  0.0261  0.1212  0.4837
   18SAPC  H19R 2354   5.846   2.637   8.898 -1.9762 -2.7807 -1.4546
   18SAPC  H19S 2355   5.881   2.465   8.933 -1.8435  1.1317  3.8093
   18SAPC  C220 2356   6.026   2.563   8.809  0.0813 -0.1040 -0.5255
   18SAPC  H20R 2357   5.977   2.526   8.716 -0.4369  1.4820 -0.8954
   18SAPC  H20S 2358   6.123   2.514   8.832  0.0577 -0.1673 -0.5682
   18SAPC  H20T 2359   6.055   2.666   8.780  2.3135 -0.1437  1.3747
   18SAPC   C33 2360   6.141   2.365  10.465  0.7841 -0.3513  0.4416
   18SAPC   H3X 2361   6.082   2.419  10.388 -2.0453  0.2683  2.9613
   18SAPC   H3Y 2362   6.064   2.297  10.509 -0.9670  1.8274  0.7954
   18SAPC   C34 2363   6.221   2.260  10.379 -0.2434  1.0901 -0.0023
   18SAPC   H4X 2364   6.290   2.218  10.455 -0.9597 -0.6682 -0.3155
   18SAPC   H4Y 2365   6.291   2.316  10.313 -0.7297  3.0130  1.0833
   18SAPC   C35 2366   6.139   2.147  10.325 -0.8646  0.8854  0.0213
   18SAPC   H5X 2367   6.054   2.179  10.261 -1.6035  0.5380  0.8137
   18SAPC   H5Y 2368   6.114   2.091  10.418  2.0768 -1.0824 -0.2843
   18SAPC   C36 2369   6.222   2.056  10.244  0.1756  0.1436 -0.0008
   18SAPC   H6X 2370   6.157   1.972  10.209 -0.0744  0.0305  0.7286
   18SAPC   H6Y 2371   6.307   2.019  10.306  0.2865 -0.5341 -0.5397
   18SAPC   C37 2372   6.294   2.131  10.124 -0.3233  0.8860 -0.4107
   18SAPC   H7X 2373   6.377   2.065  10.091 -1.2605 -0.7205  0.3815
   18SAPC   H7Y 2374   6.339   2.229  10.153  0.0942 -0.1995  2.7710
   18SAPC   C38 2375   6.200   2.161  10.009  0.6765 -0.6874  0.5425
   18SAPC   H8X 2376   6.129   2.242  10.036  0.0426 -1.2242  0.5033
   18SAPC   H8Y 2377   6.142   2.067   9.995 -0.5811 -0.1303  1.8356
   18SAPC   C39 2378   6.262   2.197   9.873 -0.0062  0.0618  0.3667
   18SAPC   H9X 2379   6.354   2.253   9.898 -0.1134  0.5253 -0.2974
   18SAPC   H9Y 2380   6.197   2.258   9.808 -1.3659 -0.9108  0.7847
   18SAPC  C310 2381   6.288   2.068   9.786  0.7860  0.0624  0.0529
   18SAPC  H10X 2382   6.187   2.024   9.776  0.8339 -0.4246  1.6585
   18SAPC  H10Y 2383   6.356   2.003   9.845 -1.8182 -0.4565  2.5352
   18SAPC  C311 2384   6.337   2.104   9.648 -0.1960 -1.0672  0.1539
   18SAPC  H11X 2385   6.436   2.154   9.652 -1.1896  0.9339  0.4351
   18SAPC  H11Y 2386   6.257   2.168   9.605 -0.0213 -1.2495 -0.4404
   18SAPC  C312 2387   6.361   1.973   9.567 -0.8692  0.3346 -0.9263
   18SAPC  H12X 2388   6.267   1.914   9.572 -0.4660 -0.2479  0.0239
   18SAPC  H12Y 2389   6.450   1.919   9.608 -1.8945 -1.1935 -0.6462
   18SAPC  C313 2390   6.381   2.000   9.420  0.2378 -0.7090  0.0551
   18SAPC  H13X 2391   6.426   1.914   9.365  2.8793  0.8354 -0.2912
   18SAPC  H13Y 2392   6.453   2.084   9.420 -0.9112  0.4006 -3.9997
   18SAPC  C314 2393   6.263   2.049   9.335 -0.0311  0.4124 -0.1256
   18SAPC  H14X 2394   6.242   2.154   9.364  0.1686 -0.1474  2.1219
   18SAPC  H14Y 2395   6.168   1.997   9.357 -0.5446  0.8216 -1.3213
   18SAPC  C315 2396   6.299   2.029   9.188  0.2500 -0.2431 -0.5548
   18SAPC  H15X 2397   6.321   1.920   9.181 -0.8827 -0.6207  1.2863
   18SAPC  H15Y 2398   6.389   2.089   9.164 -1.8300  3.9424  1.4524
   18SAPC  C316 2399   6.202   2.090   9.087  0.2678  0.1915 -0.3502
   18SAPC  H16X 2400   6.227   2.067   8.982 -2.8884 -1.6169 -0.7625
   18SAPC  H16Y 2401   6.204   2.199   9.105  0.9910  0.0318  0.5626
   18SAPC  C317 2402   6.058   2.041   9.114  0.3189  0.1933  0.3989
   18SAPC  H17X 2403   6.021   2.091   9.206 -1.8012  0.8677 -0.7883
   18SAPC  H17Y 2404   6.052   1.932   9.133 -0.3922  0.1864  0.1652
   18SAPC  C318 2405   5.957   2.070   9.009 -0.9075 -0.4524  0.4735
   18SAPC  H18X 2406   5.856   2.026   9.025 -2.1305  1.1203 -2.4719
   18SAPC  H18Y 2407   5.987   2.040   8.906  2.5549 -1.2840  1.6562
   18SAPC  H18Z 2408   5.944   2.179   8.993  0.1290 -0.4159 -0.1278
   19SAPC     N 2409   4.290   4.389  10.876  0.2140 -1.1379  0.0697
   19SAPC   C12 2410   4.355   4.276  10.791 -0.3692  0.0599  0.3624
   19SAPC  H12A 2411   4.328   4.299  10.689 -0.3369 -4.3463 -0.7399
   19SAPC  H12B 2412   4.316   4.177  10.812 -0.7536  0.1918  0.2691
   19SAPC   C13 2413   4.321   4.527  10.833  0.1652  1.0468  0.0424
   19SAPC  H13A 2414   4.290   4.600  10.906  0.3678 -0.4756  1.6980
   19SAPC  H13B 2415   4.429   4.530  10.824  0.2037  0.3723  0.2220
   19SAPC  H13C 2416   4.277   4.558  10.739  0.1340 -3.1210 -1.4128
   19SAPC   C14 2417   4.148   4.366  10.867 -0.0454  0.3493 -0.2642
   19SAPC  H14A 2418   4.095   4.436  10.930  1.5643  1.0189  0.3750
   19SAPC  H14B 2419   4.126   4.370  10.761  1.2853 -0.5402 -0.5845
   19SAPC  H14C 2420   4.131   4.264  10.897 -0.1784  0.8922  1.5823
   19SAPC   C15 2421   4.346   4.375  11.014  0.4814 -0.8369 -0.6350
   19SAPC  H15A 2422   4.453   4.386  11.012  0.5007 -1.1046 -2.1899
   19SAPC  H15B 2423   4.302   4.446  11.082  2.5122 -2.1367  2.0932
   19SAPC  H15C 2424   4.329   4.277  11.057 -1.6451 -0.5171 -0.7123
   19SAPC   C11 2425   4.511   4.258  10.789  0.2425 -0.7783 -0.0421
   19SAPC  H11A 2426   4.530   4.174  10.719 -0.7214 -1.5464  0.6032
   19SAPC  H11B 2427   4.549   4.242  10.892 -0.3755  1.9905  0.6719
   19SAPC     P 2428   4.567   4.410  10.583  0.3117 -0.5315  0.5508
   19SAPC   O13 2429   4.444   4.347  10.523 -0.1897  0.0686 -0.0547
   19SAPC   O14 2430   4.582   4.557  10.566 -0.5895 -0.5752  1.1365
   19SAPC   O12 2431   4.576   4.372  10.730 -0.5098 -0.1376 -0.0596
   19SAPC   O11 2432   4.694   4.345  10.522 -0.0590 -0.0203  0.4017
   19SAPC    C1 2433   4.822   4.408  10.527  0.9466  0.2541 -0.6940
   19SAPC    HA 2434   4.838   4.489  10.602 -1.8288  0.0529  0.1576
   19SAPC    HB 2435   4.889   4.321  10.547 -3.6130 -2.9716  1.4416
   19SAPC    C2 2436   4.849   4.468  10.390  0.1155 -0.1781 -0.4263
   19SAPC    HS 2437   4.790   4.562  10.386 -0.0329 -0.2991 -1.0846
   19SAPC   O21 2438   4.813   4.370  10.280 -0.0459  0.0861 -0.0989
   19SAPC   C21 2439   4.733   4.422  10.195  0.1922  0.2742 -0.1806
   19SAPC   O22 2440   4.687   4.532  10.185 -0.2546 -0.3380 -0.2440
   19SAPC   C22 2441   4.702   4.310  10.097  0.5331 -0.2826 -0.3154
   19SAPC   H2R 2442   4.794   4.282  10.042  1.3156  0.7735  0.4401
   19SAPC   H2S 2443   4.663   4.221  10.151 -0.8940 -0.4458 -1.5948
   19SAPC    C3 2444   4.997   4.501  10.362 -0.5127 -0.1157  0.9640
   19SAPC    HX 2445   5.051   4.404  10.360 -0.4965 -0.1022  0.6476
   19SAPC    HY 2446   5.047   4.558  10.443 -1.2969  0.1565  1.2592
   19SAPC   O31 2447   5.028   4.570  10.244  0.5440 -0.0765 -0.0182
   19SAPC   C31 2448   4.987   4.699  10.237 -0.2275  0.2953  0.4630
   19SAPC   O32 2449   4.952   4.765  10.332 -1.1135  0.7217 -0.1813
   19SAPC   C32 2450   5.003   4.756  10.094  0.3899  0.0607 -0.8617
   19SAPC   H2X 2451   4.919   4.722  10.029 -0.3397  0.2473 -0.0289
   19SAPC   H2Y 2452   5.099   4.715  10.056  1.1328  1.7458 -0.8609
   19SAPC   C23 2453   4.614   4.349   9.980 -0.0576 -0.2623 -0.0571
   19SAPC   H3R 2454   4.549   4.439   9.986 -0.1415 -0.1284 -2.5460
   19SAPC   H3S 2455   4.542   4.265   9.966  0.0085 -0.0453 -1.8904
   19SAPC   C24 2456   4.692   4.355   9.848  0.0456  0.0716  0.1288
   19SAPC   H4R 2457   4.764   4.271   9.846 -0.5959 -0.4596 -1.7577
   19SAPC   H4S 2458   4.749   4.450   9.848  0.0966  0.0654 -2.2862
   19SAPC   C25 2459   4.610   4.355   9.721 -0.0938 -0.4774  0.4196
   19SAPC   H5R 2460   4.540   4.440   9.708  1.0068  0.4314  0.3392
   19SAPC   C26 2461   4.616   4.263   9.623  0.4336 -0.5910  0.3917
   19SAPC   H6R 2462   4.546   4.273   9.539  0.7868  0.7229  0.2412
   19SAPC   C27 2463   4.701   4.134   9.618  0.4615 -0.1541 -0.2838
   19SAPC   H7R 2464   4.649   4.066   9.548  0.5688 -0.6627  0.1308
   19SAPC   H7S 2465   4.687   4.078   9.713  2.7482 -0.0862  0.1235
   19SAPC   C28 2466   4.846   4.155   9.584 -0.6928 -0.7515 -0.3981
   19SAPC   H8R 2467   4.918   4.177   9.664 -0.2660 -2.6957 -0.2217
   19SAPC   C29 2468   4.898   4.169   9.463 -0.4044  0.4499 -0.4299
   19SAPC   H9R 2469   5.005   4.189   9.454 -0.6085  1.7899 -0.0485
   19SAPC  C210 2470   4.805   4.159   9.343  0.9708  0.6612  0.1976
   19SAPC  H10R 2471   4.697   4.167   9.369  0.8277  0.4281 -0.3083
   19SAPC  H10S 2472   4.833   4.056   9.311 -2.1953 -0.1195 -0.2927
   19SAPC  C211 2473   4.839   4.273   9.252 -0.7186  0.1302  0.5776
   19SAPC  H11R 2474   4.822   4.372   9.297  0.4054  0.1859  0.9126
   19SAPC  C212 2475   4.892   4.267   9.130  0.0067  0.3063  0.4772
   19SAPC  H12R 2476   4.914   4.363   9.080 -0.1180  0.0291 -0.1149
   19SAPC  C213 2477   4.934   4.145   9.053 -0.9651 -0.2228  0.6295
   19SAPC  H13R 2478   4.839   4.107   9.008 -1.9151  1.7526  0.8963
   19SAPC  H13S 2479   4.987   4.069   9.115  1.0418  0.1441 -0.6288
   19SAPC  C214 2480   5.034   4.190   8.937  0.1824  0.7370 -0.0804
   19SAPC  H14R 2481   5.129   4.232   8.971  0.3452  1.7277 -1.6763
   19SAPC  C215 2482   5.021   4.169   8.804 -0.1695  0.3909  0.3974
   19SAPC  H15R 2483   5.087   4.221   8.734  0.5895  1.2790  1.7446
   19SAPC  C216 2484   4.906   4.092   8.739  0.2426  0.1786  0.1289
   19SAPC  H16R 2485   4.869   4.144   8.648  0.6818  1.2149  0.5327
   19SAPC  H16S 2486   4.819   4.077   8.806  0.7805 -0.6726  0.6370
   19SAPC  C217 2487   4.960   3.965   8.678  0.5493  0.1737  0.5315
   19SAPC  H17R 2488   5.018   3.920   8.761 -2.2644 -1.2682  1.7852
   19SAPC  H17S 2489   5.023   3.989   8.589  1.4142 -1.2292  0.7460
   19SAPC  C218 2490   4.855   3.859   8.632 -0.1178 -0.6881 -0.1217
   19SAPC  H18R 2491   4.914   3.782   8.578  0.3003 -0.1812 -0.3949
   19SAPC  H18S 2492   4.796   3.907   8.551 -0.1711  1.2227  1.0238
   19SAPC  C219 2493   4.765   3.803   8.746  0.1631  0.3172  0.2604
   19SAPC  H19R 2494   4.694   3.734   8.695  0.9653 -1.2786  1.2555
   19SAPC  H19S 2495   4.696   3.882   8.783 -1.6002 -0.8617 -0.4584
   19SAPC  C220 2496   4.843   3.741   8.861 -0.2397 -0.2374 -0.5978
   19SAPC  H20R 2497   4.901   3.651   8.831 -0.5645 -0.4201 -0.6772
   19SAPC  H20S 2498   4.782   3.697   8.944  0.0423 -1.4076 -1.0069
   19SAPC  H20T 2499   4.918   3.806   8.911 -0.0803  0.7856 -2.1446
   19SAPC   C33 2500   4.992   4.911  10.091  0.4177 -0.1355 -0.0887
   19SAPC   H3X 2501   5.077   4.960  10.144 -0.9752  1.9935  0.2190
   19SAPC   H3Y 2502   4.897   4.945  10.138  1.1140  0.9963  0.5217
   19SAPC   C34 2503   4.989   4.975   9.955  0.0068  0.3035 -0.2261
   19SAPC   H4X 2504   5.008   5.082   9.978  0.0612  0.0403  0.9953
   19SAPC   H4Y 2505   4.885   4.956   9.920  0.8541 -2.3361 -1.4237
   19SAPC   C35 2506   5.083   4.910   9.851  0.0670 -0.1725  0.6920
   19SAPC   H5X 2507   5.090   4.799   9.856 -0.1785 -0.1417  1.8436
   19SAPC   H5Y 2508   5.187   4.933   9.881  0.9397 -2.0310 -0.8020
   19SAPC   C36 2509   5.049   4.959   9.712 -0.0856 -0.6552  0.2373
   19SAPC   H6X 2510   5.033   5.068   9.705  0.2017 -0.6319 -0.0329
   19SAPC   H6Y 2511   4.950   4.910   9.699 -1.4373  2.2994 -1.0367
   19SAPC   C37 2512   5.142   4.908   9.610  0.5525  0.4261 -0.3779
   19SAPC   H7X 2513   5.124   4.799   9.599 -1.4131  0.7645 -0.6808
   19SAPC   H7Y 2514   5.247   4.919   9.645  0.6497 -1.0438 -0.1730
   19SAPC   C38 2515   5.111   4.969   9.470 -0.0231 -0.5475  0.4263
   19SAPC   H8X 2516   5.134   5.077   9.469  2.2691 -0.9940 -1.8597
   19SAPC   H8Y 2517   5.002   4.955   9.454 -0.0054  0.5980 -0.7904
   19SAPC   C39 2518   5.179   4.901   9.355  0.3671 -0.1191 -0.5631
   19SAPC   H9X 2519   5.108   4.824   9.316 -1.1126  0.7690  0.3245
   19SAPC   H9Y 2520   5.265   4.844   9.397 -1.4089 -3.1721 -0.9294
   19SAPC  C310 2521   5.233   4.988   9.242 -0.4759  0.4320 -0.0351
   19SAPC  H10X 2522   5.320   4.940   9.191 -2.1317 -1.0777 -1.5051
   19SAPC  H10Y 2523   5.275   5.077   9.295 -1.7306  0.6114  0.6700
   19SAPC  C311 2524   5.121   5.012   9.136 -0.9601 -0.1835 -0.2869
   19SAPC  H11X 2525   5.162   5.097   9.078 -0.5724 -0.4720 -0.4390
   19SAPC  H11Y 2526   5.022   5.047   9.172  0.4905  3.9894 -0.0264
   19SAPC  C312 2527   5.103   4.899   9.034  0.1158  0.1872  0.4932
   19SAPC  H12X 2528   5.047   4.811   9.071  0.4265 -0.1694  0.1144
   19SAPC  H12Y 2529   5.206   4.867   9.009  0.2344  0.0354  1.1804
   19SAPC  C313 2530   5.039   4.944   8.905 -0.4877  0.0747 -1.0542
   19SAPC  H13X 2531   5.098   5.025   8.857 -1.8596  0.9235 -1.3358
   19SAPC  H13Y 2532   4.944   4.996   8.930  0.3823  0.8835  0.7064
   19SAPC  C314 2533   5.010   4.836   8.802  0.0956 -0.2322  0.1176
   19SAPC  H14X 2534   5.109   4.800   8.766  0.7366  0.2845  1.3514
   19SAPC  H14Y 2535   4.957   4.893   8.722 -0.5359 -1.3894 -0.3031
   19SAPC  C315 2536   4.923   4.714   8.853  0.1535 -0.9671  0.4201
   19SAPC  H15X 2537   4.822   4.752   8.880  1.3319  1.0477  2.1794
   19SAPC  H15Y 2538   4.971   4.684   8.949  1.2551 -1.8199 -0.3832
   19SAPC  C316 2539   4.913   4.591   8.758  0.2021  0.3311 -0.4809
   19SAPC  H16X 2540   4.848   4.513   8.802  1.8222 -0.1547  1.1203
   19SAPC  H16Y 2541   5.011   4.545   8.733  2.4746  3.8121  1.5865
   19SAPC  C317 2542   4.845   4.624   8.624 -0.2861  0.4057 -0.7424
   19SAPC  H17X 2543   4.851   4.538   8.555 -0.2483 -0.9517  0.9156
   19SAPC  H17Y 2544   4.909   4.706   8.584  0.4081  0.4051  0.3353
   19SAPC  C318 2545   4.704   4.666   8.643 -0.2656  0.2276  0.1778
   19SAPC  H18X 2546   4.694   4.774   8.667 -2.6545  0.7401 -2.7810
   19SAPC  H18Y 2547   4.659   4.615   8.731  3.0789 -0.1435  1.7237
   19SAPC  H18Z 2548   4.640   4.642   8.555 -0.3450 -0.0149  0.3016
   20SAPC     N 2549   4.257   0.279  10.867  0.9427  0.4980  0.1156
   20SAPC   C12 2550   4.196   0.412  10.830  0.2977  0.0784  0.0240
   20SAPC  H12A 2551   4.089   0.409  10.844  0.4090 -0.1638  0.8193
   20SAPC  H12B 2552   4.226   0.432  10.728 -0.8786 -0.6033 -0.4680
   20SAPC   C13 2553   4.403   0.291  10.860  0.2961  0.2424 -0.5287
   20SAPC  H13A 2554   4.434   0.333  10.766 -0.3745  1.3197 -0.2789
   20SAPC  H13B 2555   4.431   0.371  10.928  1.0455  0.4086 -1.0270
   20SAPC  H13C 2556   4.455   0.202  10.892  2.6828  1.7387 -0.1346
   20SAPC   C14 2557   4.214   0.237  11.007  0.8518 -0.1280  0.7527
   20SAPC  H14A 2558   4.235   0.321  11.072  0.2980  0.0110  0.7577
   20SAPC  H14B 2559   4.114   0.197  11.012  1.4247 -1.6531 -0.0430
   20SAPC  H14C 2560   4.284   0.165  11.046  2.8433  0.0876 -2.2659
   20SAPC   C15 2561   4.213   0.170  10.770 -0.6182 -0.0780  0.3117
   20SAPC  H15A 2562   4.260   0.074  10.786  1.6168  0.6110 -1.8567
   20SAPC  H15B 2563   4.106   0.158  10.776 -0.6583 -1.4633 -2.3803
   20SAPC  H15C 2564   4.240   0.202  10.670 -1.4834 -0.1747  0.0462
   20SAPC   C11 2565   4.236   0.533  10.915 -0.1517 -0.8216 -0.0500
   20SAPC  H11A 2566   4.345   0.549  10.901 -0.0498 -1.3823  0.0815
   20SAPC  H11B 2567   4.226   0.530  11.026 -0.5770 -2.0063 -0.1140
   20SAPC     P 2568   4.221   0.767  10.819 -0.2617  0.3178 -0.4615
   20SAPC   O13 2569   4.126   0.876  10.825 -0.2482 -0.1891 -0.2182
   20SAPC   O14 2570   4.346   0.797  10.895 -0.2646 -0.4453  1.0484
   20SAPC   O12 2571   4.160   0.634  10.856  0.2354  0.2222  0.6062
   20SAPC   O11 2572   4.258   0.738  10.676  0.1778 -0.1193  0.0988
   20SAPC    C1 2573   4.168   0.748  10.571  0.0234  0.0683  0.3647
   20SAPC    HA 2574   4.169   0.651  10.518  0.1558  0.3336 -0.1249
   20SAPC    HB 2575   4.063   0.770  10.602  0.0041 -1.3906  1.3671
   20SAPC    C2 2576   4.214   0.853  10.470  0.3432 -0.2317  0.8444
   20SAPC    HS 2577   4.249   0.934  10.538 -3.0781  0.3615  1.9960
   20SAPC   O21 2578   4.117   0.888  10.374 -0.0475  0.1371 -0.5743
   20SAPC   C21 2579   4.029   0.987  10.414  0.0459 -0.8602 -0.9823
   20SAPC   O22 2580   4.041   1.057  10.514  0.0812 -0.0518 -0.8415
   20SAPC   C22 2581   3.929   1.019  10.304 -0.8716 -0.1384 -0.4024
   20SAPC   H2R 2582   3.899   0.925  10.253  1.3720 -1.4333  0.5492
   20SAPC   H2S 2583   3.835   1.054  10.351 -1.5790 -3.0960  0.4809
   20SAPC    C3 2584   4.339   0.807  10.385 -0.2557 -0.0065 -0.0827
   20SAPC    HX 2585   4.318   0.707  10.341 -0.3176  0.1176 -0.3342
   20SAPC    HY 2586   4.420   0.779  10.456 -2.4641 -1.0921  2.0847
   20SAPC   O31 2587   4.386   0.905  10.296  0.6074  0.1022 -0.8263
   20SAPC   C31 2588   4.476   0.990  10.344  0.4155 -0.7581  0.2630
   20SAPC   O32 2589   4.533   0.981  10.449  0.1836  0.2820  0.0137
   20SAPC   C32 2590   4.510   1.086  10.232  0.2606 -0.2637  0.7457
   20SAPC   H2X 2591   4.610   1.128  10.255  1.0095 -1.3157 -0.5804
   20SAPC   H2Y 2592   4.432   1.166  10.231 -1.7726 -2.1932  1.1204
   20SAPC   C23 2593   3.985   1.108  10.199  0.8369  0.0061  0.1782
   20SAPC   H3R 2594   4.079   1.062  10.161  0.6039 -0.7304  0.4957
   20SAPC   H3S 2595   4.020   1.208  10.234  2.7177 -0.4054 -0.4793
   20SAPC   C24 2596   3.881   1.141  10.089  0.4989  0.0997  0.0623
   20SAPC   H4R 2597   3.788   1.187  10.128 -0.9706 -2.7494  0.0348
   20SAPC   H4S 2598   3.839   1.049  10.043 -0.3640 -0.6906  2.4011
   20SAPC   C25 2599   3.932   1.233   9.980 -0.2025  0.0011  0.0125
   20SAPC   H5R 2600   3.978   1.329  10.005  1.4817 -0.5180 -0.9830
   20SAPC   C26 2601   3.946   1.194   9.854  0.7016 -0.1054  0.1458
   20SAPC   H6R 2602   3.964   1.266   9.772  0.4623 -0.1757  0.0304
   20SAPC   C27 2603   3.900   1.069   9.787 -0.6022  0.2296 -0.1490
   20SAPC   H7R 2604   3.875   1.088   9.680  1.8014  2.2597 -0.3767
   20SAPC   H7S 2605   3.803   1.036   9.831  0.4025 -1.9239  0.5084
   20SAPC   C28 2606   3.981   0.944   9.808 -0.4479 -0.2530  0.6878
   20SAPC   H8R 2607   3.974   0.899   9.909  0.6724  0.4995  1.1062
   20SAPC   C29 2608   4.045   0.873   9.713  0.0827  0.1125  0.5719
   20SAPC   H9R 2609   4.098   0.781   9.740  0.2452  0.4731  1.4987
   20SAPC  C210 2610   4.055   0.907   9.571  0.0724 -0.5531  0.7342
   20SAPC  H10R 2611   4.156   0.876   9.537  0.5526 -1.9109  3.3025
   20SAPC  H10S 2612   4.056   1.018   9.571  1.0867 -0.5538  0.0299
   20SAPC  C211 2613   3.947   0.856   9.481  0.1510 -0.4415  0.0001
   20SAPC  H11R 2614   3.862   0.810   9.532 -0.0559 -2.0849 -1.7628
   20SAPC  C212 2615   3.961   0.862   9.347  0.4659 -0.2784  0.3056
   20SAPC  H12R 2616   3.882   0.814   9.288 -0.0354 -0.6229  1.2380
   20SAPC  C213 2617   4.074   0.914   9.253  0.1918  0.1802  0.0086
   20SAPC  H13R 2618   4.091   0.853   9.162 -0.0231  0.9887 -0.5895
   20SAPC  H13S 2619   4.172   0.924   9.304  1.6443  1.9083 -2.9824
   20SAPC  C214 2620   4.034   1.055   9.214 -0.1652  0.0557 -0.4315
   20SAPC  H14R 2621   3.981   1.116   9.289 -1.4329 -0.2021 -1.0925
   20SAPC  C215 2622   4.058   1.110   9.094  0.0299 -0.4426  0.4337
   20SAPC  H15R 2623   4.030   1.212   9.062  1.8737 -0.6717 -2.0423
   20SAPC  C216 2624   4.131   1.040   8.983 -0.1569  0.1946 -0.0332
   20SAPC  H16R 2625   4.058   0.990   8.915  0.2538  1.2744 -1.2936
   20SAPC  H16S 2626   4.202   0.962   9.018 -0.3965 -1.1289 -2.3671
   20SAPC  C217 2627   4.215   1.142   8.896 -0.7895  0.2060  0.5777
   20SAPC  H17R 2628   4.266   1.216   8.962  0.3429  0.9149 -1.0611
   20SAPC  H17S 2629   4.155   1.199   8.822  3.2412  1.6673 -1.6720
   20SAPC  C218 2630   4.333   1.069   8.821  0.0047  0.6689 -0.2202
   20SAPC  H18R 2631   4.295   0.974   8.777  0.0651  0.7219 -0.3872
   20SAPC  H18S 2632   4.418   1.045   8.888 -0.2922  0.8172  0.2122
   20SAPC  C219 2633   4.393   1.147   8.703 -0.5400  1.3936  0.1122
   20SAPC  H19R 2634   4.314   1.147   8.625 -1.3278 -1.4251  0.8523
   20SAPC  H19S 2635   4.475   1.086   8.661 -1.1278 -0.3567  1.4536
   20SAPC  C220 2636   4.455   1.285   8.736  0.1357 -0.2770  0.0301
   20SAPC  H20R 2637   4.533   1.276   8.815 -0.7611  2.0688  1.2370
   20SAPC  H20S 2638   4.372   1.351   8.769  0.7926  0.7010 -0.2652
   20SAPC  H20T 2639   4.497   1.330   8.644 -0.4278 -2.2795 -1.2376
   20SAPC   C33 2640   4.535   1.006  10.097  0.7255  1.0325 -0.1063
   20SAPC   H3X 2641   4.448   0.943  10.068  1.3699 -0.1946  0.5849
   20SAPC   H3Y 2642   4.622   0.942  10.121  0.3699  0.4592 -0.3593
   20SAPC   C34 2643   4.578   1.100   9.987  0.2359 -0.0856 -0.0013
   20SAPC   H4X 2644   4.614   1.035   9.905 -2.5619 -1.3788 -0.2330
   20SAPC   H4Y 2645   4.666   1.160  10.020  1.9443 -0.5465 -3.5179
   20SAPC   C35 2646   4.480   1.198   9.924 -0.1206 -0.3532  0.1497
   20SAPC   H5X 2647   4.441   1.250  10.014  1.1488  0.2521  0.3588
   20SAPC   H5Y 2648   4.390   1.145   9.885 -0.8109 -0.1745  1.4520
   20SAPC   C36 2649   4.533   1.297   9.818 -0.1169  0.3700 -0.2191
   20SAPC   H6X 2650   4.635   1.330   9.847 -0.9710  3.9507 -1.0387
   20SAPC   H6Y 2651   4.466   1.385   9.822  1.3902  1.5535 -0.3245
   20SAPC   C37 2652   4.540   1.247   9.681  0.4696  0.7162 -0.7815
   20SAPC   H7X 2653   4.434   1.217   9.666  0.9047 -0.5492 -1.4109
   20SAPC   H7Y 2654   4.604   1.156   9.672 -0.7509 -0.3111  0.6397
   20SAPC   C38 2655   4.593   1.355   9.587  0.5921  0.7366 -0.3503
   20SAPC   H8X 2656   4.690   1.388   9.630  1.2817 -0.7641 -0.7425
   20SAPC   H8Y 2657   4.528   1.445   9.584 -0.1935  0.3501  3.0583
   20SAPC   C39 2658   4.613   1.293   9.441 -0.3351  0.7192 -0.3522
   20SAPC   H9X 2659   4.666   1.195   9.444  0.3024  1.0512 -0.6936
   20SAPC   H9Y 2660   4.688   1.354   9.386 -0.0164 -0.3004 -1.0610
   20SAPC  C310 2661   4.486   1.287   9.355  0.2055  0.1953  0.4765
   20SAPC  H10X 2662   4.444   1.390   9.357 -0.2824 -0.0232  3.5052
   20SAPC  H10Y 2663   4.415   1.217   9.404  0.8221 -1.1639 -0.5235
   20SAPC  C311 2664   4.493   1.225   9.217  0.0374 -0.0325 -0.2153
   20SAPC  H11X 2665   4.402   1.241   9.156 -0.7840 -0.6582  0.8516
   20SAPC  H11Y 2666   4.502   1.116   9.235 -0.1876 -0.0149 -0.0051
   20SAPC  C312 2667   4.625   1.268   9.136 -0.3081 -0.2145 -0.4686
   20SAPC  H12X 2668   4.629   1.197   9.050 -0.6377 -0.2665 -0.4411
   20SAPC  H12Y 2669   4.717   1.256   9.196 -0.5814  0.3220  0.0633
   20SAPC  C313 2670   4.628   1.420   9.087  0.2546  0.0683 -0.4606
   20SAPC  H13X 2671   4.632   1.470   9.186 -1.6202 -4.1644  1.9299
   20SAPC  H13Y 2672   4.534   1.443   9.031  0.4662  0.9358 -0.4734
   20SAPC  C314 2673   4.752   1.452   9.006  0.1515  0.1663 -0.2246
   20SAPC  H14X 2674   4.747   1.408   8.904  1.0900  0.8763 -0.5819
   20SAPC  H14Y 2675   4.839   1.394   9.044  0.1241  1.0596  1.2171
   20SAPC  C315 2676   4.783   1.603   8.997  1.0534 -0.4382  0.6346
   20SAPC  H15X 2677   4.876   1.626   8.941  0.2024 -0.9728 -1.0231
   20SAPC  H15Y 2678   4.802   1.640   9.100 -0.3903 -0.6541  0.9867
   20SAPC  C316 2679   4.675   1.684   8.933  0.1979 -0.4625 -0.0899
   20SAPC  H16X 2680   4.575   1.660   8.976 -0.9087  0.6648 -1.9655
   20SAPC  H16Y 2681   4.682   1.646   8.828  0.3557 -0.0933 -0.2124
   20SAPC  C317 2682   4.696   1.835   8.931 -0.1779 -0.0904 -0.3491
   20SAPC  H17X 2683   4.775   1.839   8.852  0.6300 -1.0627  0.3958
   20SAPC  H17Y 2684   4.744   1.864   9.026  2.0516 -0.6069 -1.2778
   20SAPC  C318 2685   4.585   1.929   8.894  0.8919  0.1959  0.4661
   20SAPC  H18X 2686   4.538   1.900   8.798  0.3274  0.4002  0.6836
   20SAPC  H18Y 2687   4.633   2.028   8.875  0.6653  0.5769  1.8322
   20SAPC  H18Z 2688   4.499   1.945   8.962 -1.5064 -0.8924 -2.2263
   21SAPC     N 2689   3.415   0.092  10.926 -0.0586 -0.3280  0.3509
   21SAPC   C12 2690   3.429   0.156  10.794 -0.3384  0.1389  0.1464
   21SAPC  H12A 2691   3.462   0.258  10.809 -1.8524  0.2319  2.9840
   21SAPC  H12B 2692   3.333   0.173  10.749 -0.0589  4.7489  1.1026
   21SAPC   C13 2693   3.379  -0.056  10.939  1.0161  0.3463 -0.4336
   21SAPC  H13A 2694   3.385  -0.081  11.044  1.5229 -2.6955 -1.1472
   21SAPC  H13B 2695   3.281  -0.071  10.896  1.5156 -1.2403 -1.0516
   21SAPC  H13C 2696   3.452  -0.116  10.886 -1.1174 -2.8509  0.1734
   21SAPC   C14 2697   3.550   0.111  10.994 -0.2739  0.2004  0.1242
   21SAPC  H14A 2698   3.622   0.047  10.945  1.1703  0.3643  2.0002
   21SAPC  H14B 2699   3.572   0.216  10.991  3.2410 -0.5043 -1.6483
   21SAPC  H14C 2700   3.544   0.078  11.096 -0.0110  2.3331  0.8370
   21SAPC   C15 2701   3.320   0.174  11.009 -0.2610  0.5465  0.5034
   21SAPC  H15A 2702   3.220   0.169  10.967  0.2130 -0.0820 -0.5742
   21SAPC  H15B 2703   3.317   0.132  11.109 -2.8759 -0.9873 -0.1640
   21SAPC  H15C 2704   3.365   0.271  11.016  0.2368  0.2755  1.1291
   21SAPC   C11 2705   3.537   0.096  10.694  0.1671  0.0857  0.7793
   21SAPC  H11A 2706   3.517   0.150  10.599  0.0660  0.3913  0.9733
   21SAPC  H11B 2707   3.514  -0.010  10.672 -1.7002  0.5251  0.5554
   21SAPC     P 2708   3.779   0.014  10.712  0.6178 -0.3356  0.3142
   21SAPC   O13 2709   3.904   0.069  10.765 -0.7473  1.3744  0.7169
   21SAPC   O14 2710   3.737  -0.123  10.757 -0.5981 -0.4461  0.2945
   21SAPC   O12 2711   3.664   0.122  10.746 -0.8794  0.1391 -0.7609
   21SAPC   O11 2712   3.780   0.026  10.554  0.2001 -0.3670  0.4575
   21SAPC    C1 2713   3.770   0.150  10.477  0.0512 -0.2066 -0.7882
   21SAPC    HA 2714   3.681   0.139  10.410 -0.9135 -2.3983  0.7867
   21SAPC    HB 2715   3.758   0.233  10.550  0.4026 -0.4030 -0.5089
   21SAPC    C2 2716   3.905   0.175  10.398 -0.2091  0.0004  0.7963
   21SAPC    HS 2717   3.892   0.279  10.361  1.3267 -0.1696 -0.2954
   21SAPC   O21 2718   3.900   0.077  10.296 -0.6750 -0.2873  0.1213
   21SAPC   C21 2719   3.970   0.102  10.193 -0.5063  0.1848 -0.1970
   21SAPC   O22 2720   3.996   0.212  10.154 -0.1524 -0.0714  0.2082
   21SAPC   C22 2721   3.985  -0.028  10.109  0.9359 -0.4416 -0.2709
   21SAPC   H2R 2722   4.080  -0.015  10.052  2.2225  1.8002  2.2465
   21SAPC   H2S 2723   3.990  -0.113  10.180  0.4050  0.2885  0.6443
   21SAPC    C3 2724   4.024   0.164  10.491 -0.9328 -0.0069  0.6536
   21SAPC    HX 2725   4.042   0.055  10.501 -1.8009 -0.1403  0.8120
   21SAPC    HY 2726   4.000   0.212  10.588  0.9953  3.0438 -0.2976
   21SAPC   O31 2727   4.136   0.219  10.424  0.1435  0.1482 -0.4011
   21SAPC   C31 2728   4.170   0.353  10.444  0.0950 -0.6417 -0.2359
   21SAPC   O32 2729   4.127   0.422  10.534  0.0833 -0.5715 -0.2103
   21SAPC   C32 2730   4.286   0.392  10.355 -0.0096 -0.4639  0.0305
   21SAPC   H2X 2731   4.368   0.317  10.352  1.9211  1.6308 -0.3881
   21SAPC   H2Y 2732   4.343   0.473  10.404 -1.4546  0.4356  0.2577
   21SAPC   C23 2733   3.876  -0.053  10.014 -0.3956 -0.4745 -0.8430
   21SAPC   H3R 2734   3.856   0.044   9.965 -3.1650 -0.6677 -0.1589
   21SAPC   H3S 2735   3.785  -0.090  10.067  0.1812 -1.1388 -0.3037
   21SAPC   C24 2736   3.924  -0.159   9.906  0.9562 -0.5630 -0.4213
   21SAPC   H4R 2737   3.955  -0.247   9.966  1.5055 -2.0312 -2.7762
   21SAPC   H4S 2738   4.018  -0.123   9.859  0.2630  2.8673  0.6807
   21SAPC   C25 2739   3.817  -0.195   9.796  0.8839  0.1352 -0.1170
   21SAPC   H5R 2740   3.739  -0.259   9.838 -0.9523  1.0168 -2.1108
   21SAPC   C26 2741   3.819  -0.145   9.671  0.4542 -0.2257  0.2594
   21SAPC   H6R 2742   3.747  -0.178   9.595 -0.6173  3.2456 -0.3195
   21SAPC   C27 2743   3.926  -0.050   9.622  0.2620  0.1361  0.2993
   21SAPC   H7R 2744   4.023  -0.103   9.615  1.6928  2.8372 -1.8057
   21SAPC   H7S 2745   3.932   0.032   9.698  1.9090  0.0711  0.2552
   21SAPC   C28 2746   3.895   0.019   9.494 -0.0776 -0.2253  0.4110
   21SAPC   H8R 2747   3.890   0.129   9.497  1.4848 -0.0086 -2.8393
   21SAPC   C29 2748   3.884  -0.046   9.375 -0.2664  0.4989  0.1253
   21SAPC   H9R 2749   3.877   0.020   9.288 -0.6599  0.4095  0.0917
   21SAPC  C210 2750   3.892  -0.198   9.334  0.2316  0.3668 -0.6483
   21SAPC  H10R 2751   3.841  -0.203   9.235  0.8486 -3.4814 -0.8532
   21SAPC  H10S 2752   3.838  -0.266   9.403  0.7561 -0.6893 -1.2667
   21SAPC  C211 2753   4.036  -0.230   9.331 -0.5955  0.3524 -0.1931
   21SAPC  H11R 2754   4.090  -0.166   9.402  2.1561 -0.0280 -1.8636
   21SAPC  C212 2755   4.094  -0.325   9.247  0.1733 -0.4884 -0.0452
   21SAPC  H12R 2756   4.204  -0.331   9.253  0.2400  0.8342  0.3263
   21SAPC  C213 2757   4.029  -0.414   9.139 -0.2319 -0.5044 -0.1357
   21SAPC  H13R 2758   4.059  -0.394   9.033 -0.0934 -0.1122 -0.0235
   21SAPC  H13S 2759   3.920  -0.396   9.145 -0.5559 -1.5372 -2.3845
   21SAPC  C214 2760   4.045  -0.567   9.153 -0.2453 -0.3886  0.1037
   21SAPC  H14R 2761   4.042  -0.608   9.255  4.4729 -2.2872 -0.4055
   21SAPC  C215 2762   4.024  -0.663   9.060  0.4352 -0.1682 -0.3498
   21SAPC  H15R 2763   4.031  -0.769   9.090 -1.2794 -0.2961 -0.3587
   21SAPC  C216 2764   3.993  -0.656   8.913 -0.0477 -0.0172 -0.5057
   21SAPC  H16R 2765   3.982  -0.551   8.877 -3.9407 -0.4151 -0.7143
   21SAPC  H16S 2766   3.896  -0.707   8.893  0.3053 -0.5688 -0.8037
   21SAPC  C217 2767   4.112  -0.730   8.848 -0.2570  0.5071  0.5177
   21SAPC  H17R 2768   4.104  -0.833   8.889 -1.4574 -0.6797 -2.4979
   21SAPC  H17S 2769   4.205  -0.681   8.884 -0.2954  0.4623  0.6802
   21SAPC  C218 2770   4.093  -0.734   8.699  0.1441 -0.5817  0.3557
   21SAPC  H18R 2771   4.089  -0.629   8.663  0.3910 -0.6107  0.2430
   21SAPC  H18S 2772   3.990  -0.762   8.671 -0.2195  2.4735 -1.6879
   21SAPC  C219 2773   4.192  -0.823   8.609  0.3759 -0.1929  0.1076
   21SAPC  H19R 2774   4.185  -0.799   8.500 -1.4336 -1.7315 -0.1301
   21SAPC  H19S 2775   4.178  -0.929   8.636 -1.1151  0.4168  1.7887
   21SAPC  C220 2776   4.337  -0.804   8.638  0.1408  0.0095  0.2114
   21SAPC  H20R 2777   4.402  -0.848   8.559 -0.4322 -0.2609 -0.1153
   21SAPC  H20S 2778   4.364  -0.858   8.731 -0.3969  0.3634  0.5735
   21SAPC  H20T 2779   4.358  -0.695   8.633 -2.9180  0.6318 -0.4509
   21SAPC   C33 2780   4.236   0.438  10.211 -0.3243 -0.1058 -1.2126
   21SAPC   H3X 2781   4.175   0.527  10.235 -0.0993 -0.8435  2.2941
   21SAPC   H3Y 2782   4.164   0.365  10.168 -0.5549  0.4767 -1.8179
   21SAPC   C34 2783   4.346   0.488  10.114  0.1289 -0.0631 -0.0292
   21SAPC   H4X 2784   4.424   0.409  10.111 -0.4233 -0.5779 -3.0478
   21SAPC   H4Y 2785   4.378   0.565  10.187 -2.7758  0.1031  1.1315
   21SAPC   C35 2786   4.303   0.543   9.982 -0.3842 -0.7823  0.4207
   21SAPC   H5X 2787   4.232   0.626  10.001 -1.8599 -1.4562 -1.9957
   21SAPC   H5Y 2788   4.239   0.467   9.933 -0.3549 -0.1323 -0.6373
   21SAPC   C36 2789   4.415   0.592   9.889 -0.6296  0.1726 -0.8333
   21SAPC   H6X 2790   4.473   0.504   9.855  1.2545  0.9787  0.1998
   21SAPC   H6Y 2791   4.479   0.654   9.956 -0.0216 -0.2861 -0.9820
   21SAPC   C37 2792   4.367   0.676   9.769 -0.6505 -0.0552 -0.0007
   21SAPC   H7X 2793   4.309   0.764   9.803 -1.2490 -0.1294 -0.8189
   21SAPC   H7Y 2794   4.308   0.610   9.702 -2.5008  0.8256  0.7366
   21SAPC   C38 2795   4.498   0.724   9.705  0.2338  0.1263 -0.1350
   21SAPC   H8X 2796   4.556   0.634   9.675 -2.0337 -1.6224  0.6281
   21SAPC   H8Y 2797   4.558   0.768   9.787 -1.5641  0.3659  1.0752
   21SAPC   C39 2798   4.481   0.814   9.581 -0.3919  0.3279  0.1239
   21SAPC   H9X 2799   4.574   0.859   9.541 -0.0696 -0.2353  0.2311
   21SAPC   H9Y 2800   4.428   0.909   9.604 -1.3700  0.2092 -1.4948
   21SAPC  C310 2801   4.407   0.735   9.473 -0.1207  0.0152  0.0809
   21SAPC  H10X 2802   4.383   0.820   9.405 -1.0589 -0.1074  0.2531
   21SAPC  H10Y 2803   4.308   0.694   9.503  0.2252  0.1643  1.5111
   21SAPC  C311 2804   4.485   0.609   9.417  0.4059 -0.9232  0.3571
   21SAPC  H11X 2805   4.483   0.520   9.483  1.1524 -0.3559  1.1549
   21SAPC  H11Y 2806   4.592   0.638   9.411 -0.0795  0.5317 -1.8139
   21SAPC  C312 2807   4.429   0.577   9.273 -0.0463  0.0627  0.2641
   21SAPC  H12X 2808   4.324   0.550   9.296 -0.1834  1.8721  1.9313
   21SAPC  H12Y 2809   4.494   0.497   9.231  1.0536  0.9091  0.3408
   21SAPC  C313 2810   4.418   0.685   9.157  0.4573  0.1940  0.2065
   21SAPC  H13X 2811   4.524   0.718   9.146  1.1664 -1.4682  1.9254
   21SAPC  H13Y 2812   4.351   0.761   9.204 -0.7132 -0.4446 -0.4179
   21SAPC  C314 2813   4.366   0.627   9.023 -0.5368  0.2954 -0.7211
   21SAPC  H14X 2814   4.378   0.705   8.945  0.4439 -0.5862 -1.4537
   21SAPC  H14Y 2815   4.261   0.598   9.045  0.3969 -1.2701  1.9425
   21SAPC  C315 2816   4.437   0.504   8.972 -0.4715 -0.0907  0.5459
   21SAPC  H15X 2817   4.399   0.425   9.040 -2.5734 -0.9714 -1.5813
   21SAPC  H15Y 2818   4.548   0.496   8.979 -0.3968  0.2391 -0.1861
   21SAPC  C316 2819   4.400   0.474   8.824 -1.2144 -0.1554 -0.3207
   21SAPC  H16X 2820   4.462   0.540   8.760 -2.8997  2.6742  0.8651
   21SAPC  H16Y 2821   4.298   0.510   8.796 -1.8566 -0.5222  1.4285
   21SAPC  C317 2822   4.417   0.326   8.803  0.4440 -0.0146  0.1430
   21SAPC  H17X 2823   4.363   0.269   8.881 -1.1744  1.4411  0.1063
   21SAPC  H17Y 2824   4.520   0.286   8.815  0.3978 -0.6285 -1.3665
   21SAPC  C318 2825   4.379   0.282   8.657 -0.2119 -0.6397  0.0553
   21SAPC  H18X 2826   4.406   0.366   8.588 -2.0839  0.2718  0.4147
   21SAPC  H18Y 2827   4.270   0.265   8.650 -0.9896  3.4054  0.7284
   21SAPC  H18Z 2828   4.425   0.190   8.615 -2.0208 -0.6062 -2.0846
   22SAPC     N 2829   3.573   4.834  10.585  0.4356  0.3282  0.7364
   22SAPC   C12 2830   3.719   4.823  10.636  0.0434  0.1374 -0.7125
   22SAPC  H12A 2831   3.737   4.779  10.733  1.0697  2.2111  0.0700
   22SAPC  H12B 2832   3.748   4.926  10.650 -2.2095  1.0345 -2.2127
   22SAPC   C13 2833   3.574   4.917  10.462  0.7061 -0.1776 -0.1237
   22SAPC  H13A 2834   3.631   4.871  10.383  0.2627 -1.2344  0.1622
   22SAPC  H13B 2835   3.475   4.925  10.421  0.0332  0.2168  1.5410
   22SAPC  H13C 2836   3.608   5.017  10.487 -0.9132  1.0542 -2.7437
   22SAPC   C14 2837   3.521   4.691  10.559  0.5988 -0.3080 -0.0075
   22SAPC  H14A 2838   3.533   4.632  10.649 -0.2773 -2.3982 -1.2376
   22SAPC  H14B 2839   3.419   4.706  10.528  0.2264  1.2873  1.8988
   22SAPC  H14C 2840   3.567   4.645  10.473  1.7759 -1.7111  1.3512
   22SAPC   C15 2841   3.491   4.901  10.685  0.2613  0.0834 -1.1302
   22SAPC  H15A 2842   3.533   4.993  10.723  2.0414 -0.5557 -1.5236
   22SAPC  H15B 2843   3.397   4.934  10.642 -0.1481  1.1230  0.4903
   22SAPC  H15C 2844   3.477   4.841  10.773  0.3352  0.5291 -0.8092
   22SAPC   C11 2845   3.828   4.749  10.548  0.2428 -0.1164  0.8055
   22SAPC  H11A 2846   3.795   4.754  10.442  0.3660 -0.9604  0.7196
   22SAPC  H11B 2847   3.819   4.640  10.572 -2.2503 -0.9708 -3.4821
   22SAPC     P 2848   4.043   4.763  10.681  0.4675  0.4338  0.0502
   22SAPC   O13 2849   4.123   4.872  10.731 -0.6441 -0.0100 -0.0016
   22SAPC   O14 2850   3.965   4.695  10.786  0.3561  0.4815  0.1508
   22SAPC   O12 2851   3.950   4.811  10.570 -0.4176  0.1311  0.2730
   22SAPC   O11 2852   4.134   4.658  10.603  0.4656  0.7903 -0.0529
   22SAPC    C1 2853   4.247   4.692  10.518 -0.4039 -0.3840  0.2966
   22SAPC    HA 2854   4.295   4.790  10.537 -2.0215  0.3296  0.7802
   22SAPC    HB 2855   4.332   4.622  10.536 -0.3592 -0.4765 -0.2725
   22SAPC    C2 2856   4.207   4.680  10.362 -0.6167 -0.3295 -0.5871
   22SAPC    HS 2857   4.148   4.773  10.347  2.7338  2.1833  1.2064
   22SAPC   O21 2858   4.135   4.554  10.349 -0.6051 -0.3970 -0.5820
   22SAPC   C21 2859   4.034   4.553  10.265 -1.3343  0.6072 -0.3229
   22SAPC   O22 2860   3.987   4.643  10.196 -0.0472 -0.3988  0.5479
   22SAPC   C22 2861   3.986   4.412  10.272  0.2761  0.0998  0.3115
   22SAPC   H2R 2862   4.065   4.340  10.243  0.4756  1.1197 -1.7799
   22SAPC   H2S 2863   3.955   4.400  10.378  2.2272 -0.7843  0.8051
   22SAPC    C3 2864   4.331   4.675  10.263  0.0414 -0.1026 -0.1698
   22SAPC    HX 2865   4.384   4.580  10.286 -0.5214 -0.9571 -2.3345
   22SAPC    HY 2866   4.395   4.764  10.283 -2.0659  1.7546 -1.4378
   22SAPC   O31 2867   4.299   4.678  10.123  0.2566  0.1539  0.1049
   22SAPC   C31 2868   4.305   4.571  10.045 -0.1220  0.9013 -0.5910
   22SAPC   O32 2869   4.324   4.457  10.081 -0.0620  0.0841  0.3320
   22SAPC   C32 2870   4.292   4.623   9.899 -0.6920  0.0342  0.6294
   22SAPC   H2X 2871   4.391   4.661   9.867 -0.1755 -0.1287  1.9745
   22SAPC   H2Y 2872   4.226   4.712   9.897  1.8363  1.9480 -1.1779
   22SAPC   C23 2873   3.858   4.378  10.185 -0.6005 -0.2499 -0.6648
   22SAPC   H3R 2874   3.775   4.443  10.222 -0.7432 -0.1277 -1.1934
   22SAPC   H3S 2875   3.837   4.276  10.226 -1.4054 -0.6057 -1.9324
   22SAPC   C24 2876   3.871   4.364  10.035  0.3613 -0.1327  0.4978
   22SAPC   H4R 2877   3.945   4.282  10.027 -0.3202 -0.5530 -1.7102
   22SAPC   H4S 2878   3.920   4.456   9.997  0.2293 -0.2294  0.0914
   22SAPC   C25 2879   3.737   4.339   9.967  0.1138 -0.0045  0.0826
   22SAPC   H5R 2880   3.664   4.283  10.028 -1.3105  2.3839  0.6668
   22SAPC   C26 2881   3.694   4.378   9.844 -0.2006 -0.5960  0.4122
   22SAPC   H6R 2882   3.599   4.343   9.800  2.0225 -4.5911 -1.4516
   22SAPC   C27 2883   3.784   4.453   9.752 -0.6981 -0.5663  0.2044
   22SAPC   H7R 2884   3.865   4.506   9.807 -1.1312 -0.3032  0.5899
   22SAPC   H7S 2885   3.720   4.532   9.708 -0.2634  0.0346  0.6529
   22SAPC   C28 2886   3.851   4.361   9.653  0.5316 -0.0876 -0.8785
   22SAPC   H8R 2887   3.956   4.339   9.678  0.6995  2.7696  1.1785
   22SAPC   C29 2888   3.802   4.330   9.530  0.1481 -0.0370  0.0271
   22SAPC   H9R 2889   3.855   4.259   9.464 -2.8215  0.0021 -2.5318
   22SAPC  C210 2890   3.678   4.390   9.475 -0.0132 -0.0608 -0.2874
   22SAPC  H10R 2891   3.704   4.473   9.407  0.6846  0.0821  0.1559
   22SAPC  H10S 2892   3.616   4.433   9.557  0.0194  0.1619 -0.3801
   22SAPC  C211 2893   3.581   4.291   9.409 -0.3637  0.6476 -0.0507
   22SAPC  H11R 2894   3.521   4.237   9.483 -0.0517 -1.2723 -1.1607
   22SAPC  C212 2895   3.582   4.271   9.274  0.0278  0.4737 -0.1295
   22SAPC  H12R 2896   3.525   4.186   9.233  0.4463 -0.1774  0.6001
   22SAPC  C213 2897   3.670   4.334   9.167 -0.9594  0.1437  0.0606
   22SAPC  H13R 2898   3.709   4.432   9.203  1.1844 -0.3451 -0.8705
   22SAPC  H13S 2899   3.599   4.366   9.088  1.8712  0.6915 -2.3120
   22SAPC  C214 2900   3.784   4.250   9.096 -0.1871  0.0999 -0.3317
   22SAPC  H14R 2901   3.887   4.267   9.132 -0.8002  1.5534  0.8167
   22SAPC  C215 2902   3.770   4.169   8.985  0.3276 -0.6893  0.8618
   22SAPC  H15R 2903   3.848   4.105   8.942  0.2783  0.4340 -0.9646
   22SAPC  C216 2904   3.631   4.154   8.927  0.0816 -0.3468 -0.7996
   22SAPC  H16R 2905   3.551   4.180   8.999  0.5800 -2.5806  0.5978
   22SAPC  H16S 2906   3.619   4.044   8.920  2.6897 -0.9141  2.4267
   22SAPC  C217 2907   3.600   4.230   8.792  1.0543  0.5668  0.3342
   22SAPC  H17R 2908   3.608   4.339   8.811 -0.3694  0.5897  0.8912
   22SAPC  H17S 2909   3.493   4.210   8.770  1.0033  0.9973  0.1857
   22SAPC  C218 2910   3.689   4.175   8.677 -0.6191  0.1730  1.0233
   22SAPC  H18R 2911   3.710   4.066   8.683  2.1585  0.7025  1.8701
   22SAPC  H18S 2912   3.787   4.229   8.683 -0.9540  0.6748  2.1531
   22SAPC  C219 2913   3.634   4.200   8.533  0.0963  0.9159  0.2248
   22SAPC  H19R 2914   3.714   4.156   8.469 -1.9103 -2.1391 -0.2714
   22SAPC  H19S 2915   3.625   4.308   8.508  2.2552  0.9174 -0.6855
   22SAPC  C220 2916   3.504   4.129   8.498 -0.5038 -0.1878  0.2652
   22SAPC  H20R 2917   3.458   4.161   8.402 -0.0835  0.6100  0.3199
   22SAPC  H20S 2918   3.427   4.156   8.574 -1.3506 -0.4384 -0.4941
   22SAPC  H20T 2919   3.513   4.019   8.490 -3.1668 -0.4071 -0.1567
   22SAPC   C33 2920   4.250   4.519   9.800 -0.5072  0.5394  0.1678
   22SAPC   H3X 2921   4.141   4.500   9.798 -1.3651  5.1125 -1.6178
   22SAPC   H3Y 2922   4.300   4.420   9.804  0.0275  0.7163 -1.5652
   22SAPC   C34 2923   4.279   4.566   9.656 -0.0488 -1.0728 -0.0390
   22SAPC   H4X 2924   4.386   4.592   9.638  0.1950 -1.1593  1.2259
   22SAPC   H4Y 2925   4.217   4.653   9.629 -1.3588 -1.8203  0.5351
   22SAPC   C35 2926   4.252   4.450   9.555  0.0130  0.2167 -0.1054
   22SAPC   H5X 2927   4.159   4.394   9.578 -1.4723  1.8929 -1.8247
   22SAPC   H5Y 2928   4.332   4.373   9.561  2.6927  3.0634  2.5514
   22SAPC   C36 2929   4.227   4.501   9.411 -0.6653  0.6053  0.3184
   22SAPC   H6X 2930   4.318   4.550   9.370 -1.5405  1.7291 -0.3216
   22SAPC   H6Y 2931   4.151   4.582   9.418 -0.4802  0.6918  1.4656
   22SAPC   C37 2932   4.169   4.396   9.315  0.6080 -0.1512 -0.2011
   22SAPC   H7X 2933   4.145   4.457   9.225 -0.9614 -0.2715  0.1164
   22SAPC   H7Y 2934   4.083   4.336   9.353 -1.3489  3.5437  1.5099
   22SAPC   C38 2935   4.277   4.285   9.265  0.8955  0.4246  0.0312
   22SAPC   H8X 2936   4.222   4.198   9.222  1.3774 -0.3379  0.9465
   22SAPC   H8Y 2937   4.322   4.242   9.357  0.1912 -2.5846 -0.9856
   22SAPC   C39 2938   4.396   4.334   9.188 -0.5188 -0.5332 -0.0876
   22SAPC   H9X 2939   4.459   4.247   9.158 -0.9315 -0.5044 -1.0751
   22SAPC   H9Y 2940   4.461   4.392   9.256 -1.4213  0.9023 -0.4370
   22SAPC  C310 2941   4.369   4.419   9.064 -0.0164 -0.0595  1.1548
   22SAPC  H10X 2942   4.321   4.515   9.096 -0.1411 -0.3388  1.8072
   22SAPC  H10Y 2943   4.289   4.374   9.002  0.4952 -1.0682  1.2223
   22SAPC  C311 2944   4.497   4.463   8.990  0.1557  0.4294 -0.3156
   22SAPC  H11X 2945   4.568   4.495   9.069  0.6788 -1.8887  0.1809
   22SAPC  H11Y 2946   4.490   4.560   8.937 -0.6942  0.3281 -0.3906
   22SAPC  C312 2947   4.549   4.346   8.900 -0.5691 -0.3472  0.0496
   22SAPC  H12X 2948   4.532   4.257   8.963  3.5026 -2.2779 -1.4111
   22SAPC  H12Y 2949   4.658   4.359   8.884 -0.5709 -0.7123 -0.2582
   22SAPC  C313 2950   4.473   4.339   8.769 -0.2597  0.4237 -0.1820
   22SAPC  H13X 2951   4.522   4.403   8.692  0.6785  0.2560  0.2636
   22SAPC  H13Y 2952   4.375   4.384   8.797 -0.5327 -0.0520 -0.3715
   22SAPC  C314 2953   4.449   4.198   8.713  0.3155 -0.3804  0.8117
   22SAPC  H14X 2954   4.406   4.135   8.794  2.3999 -1.4786  1.1032
   22SAPC  H14Y 2955   4.556   4.170   8.713  0.9814  2.0578  0.0789
   22SAPC  C315 2956   4.387   4.177   8.579  0.2726  0.5616 -0.8591
   22SAPC  H15X 2957   4.443   4.250   8.518  1.0300  0.4611 -0.2872
   22SAPC  H15Y 2958   4.279   4.204   8.579  0.1098 -0.0649 -1.0616
   22SAPC  C316 2959   4.406   4.038   8.524  0.5225  0.0455 -0.1911
   22SAPC  H16X 2960   4.360   4.038   8.423  0.1433 -1.0055 -0.0201
   22SAPC  H16Y 2961   4.345   3.968   8.585  1.1535  1.9637  2.7578
   22SAPC  C317 2962   4.555   3.989   8.494  0.6416  0.8258 -0.1838
   22SAPC  H17X 2963   4.591   3.936   8.584  1.3306  3.1844  0.9750
   22SAPC  H17Y 2964   4.623   4.076   8.490  0.8116  0.7017  0.0407
   22SAPC  C318 2965   4.569   3.894   8.367 -0.5484 -0.4521 -0.3268
   22SAPC  H18X 2966   4.489   3.817   8.362 -1.9843  1.0197 -0.3653
   22SAPC  H18Y 2967   4.659   3.830   8.383  0.0313  0.1378 -1.1349
   22SAPC  H18Z 2968   4.567   3.956   8.274 -1.7231  0.8043  0.5202
   23SAPC     N 2969   5.455   6.818  10.529 -0.0072  0.0886  0.7615
   23SAPC   C12 2970   5.327   6.812  10.440 -0.1422  0.1832  0.3680
   23SAPC  H12A 2971   5.296   6.709  10.432  2.1563 -0.3563 -2.8410
   23SAPC  H12B 2972   5.350   6.840  10.338 -2.2262 -0.9939 -0.4475
   23SAPC   C13 2973   5.511   6.953  10.500  0.4125  0.7476 -0.0928
   23SAPC  H13A 2974   5.535   6.958  10.395 -0.6788  1.1478 -0.3259
   23SAPC  H13B 2975   5.444   7.035  10.521  0.4247  0.7627 -0.1160
   23SAPC  H13C 2976   5.604   6.962  10.554  0.5963 -1.4535  0.0087
   23SAPC   C14 2977   5.436   6.790  10.674  0.0680  0.0209  0.3095
   23SAPC  H14A 2978   5.349   6.840  10.713  0.5523  1.4273 -0.4003
   23SAPC  H14B 2979   5.424   6.684  10.692  3.1438 -0.4809 -0.2738
   23SAPC  H14C 2980   5.519   6.825  10.733  0.5429 -2.0315  0.9186
   23SAPC   C15 2981   5.553   6.725  10.473  0.6620 -0.2288 -0.0669
   23SAPC  H15A 2982   5.654   6.737  10.510  0.5229  3.2368 -0.6436
   23SAPC  H15B 2983   5.525   6.627  10.508  2.4818 -1.3678 -1.7120
   23SAPC  H15C 2984   5.557   6.718  10.365  0.1431  0.4054 -0.1311
   23SAPC   C11 2985   5.212   6.891  10.483  0.9725 -0.1968  0.3967
   23SAPC  H11A 2986   5.139   6.895  10.399  0.0378 -0.8929  1.1619
   23SAPC  H11B 2987   5.227   7.000  10.498 -1.5102  0.4384 -1.4596
   23SAPC     P 2988   5.044   6.724  10.587  0.1496  0.7928  0.2687
   23SAPC   O13 2989   5.037   6.645  10.719 -0.0811 -0.4429 -0.4515
   23SAPC   O14 2990   4.915   6.783  10.539  0.4658 -0.0598 -0.6005
   23SAPC   O12 2991   5.154   6.836  10.599  0.3989  0.1049 -0.2984
   23SAPC   O11 2992   5.092   6.618  10.475 -0.3811  0.2917  0.3116
   23SAPC    C1 2993   5.139   6.487  10.487  0.8198  1.1373  0.5507
   23SAPC    HA 2994   5.235   6.480  10.543  1.2606 -0.9635 -0.4047
   23SAPC    HB 2995   5.065   6.417  10.532 -1.7655  2.0248 -2.1979
   23SAPC    C2 2996   5.172   6.431  10.342 -0.5501  0.7743  0.3579
   23SAPC    HS 2997   5.240   6.507  10.298 -2.4622  1.4614 -1.4677
   23SAPC   O21 2998   5.047   6.406  10.264  0.5747 -0.2691  0.8916
   23SAPC   C21 2999   5.022   6.513  10.182 -0.0527 -0.0558  0.4489
   23SAPC   O22 3000   5.096   6.605  10.158  0.2219 -0.3097 -0.1117
   23SAPC   C22 3001   4.891   6.488  10.099  0.0615  0.2529  0.0626
   23SAPC   H2R 3002   4.937   6.432  10.015  2.8962 -0.4343  1.9789
   23SAPC   H2S 3003   4.831   6.428  10.172  1.4220  1.1246  1.9479
   23SAPC    C3 3004   5.251   6.294  10.357 -0.0733 -0.2438 -0.5250
   23SAPC    HX 3005   5.182   6.215  10.392  0.4029 -0.9835 -1.2450
   23SAPC    HY 3006   5.333   6.312  10.429 -0.3815  0.6007 -0.3767
   23SAPC   O31 3007   5.313   6.255  10.237  0.4876 -0.5395 -0.2085
   23SAPC   C31 3008   5.412   6.322  10.199 -0.0715  0.2112 -0.8305
   23SAPC   O32 3009   5.468   6.419  10.256 -0.5099 -0.7838 -0.5652
   23SAPC   C32 3010   5.464   6.259  10.067 -0.1214  0.1923 -0.0478
   23SAPC   H2X 3011   5.402   6.316   9.995 -1.2903 -0.2132  0.6144
   23SAPC   H2Y 3012   5.438   6.151  10.061 -1.0894  0.4695 -0.9004
   23SAPC   C23 3013   4.809   6.609  10.042  0.3387  1.5100 -0.7879
   23SAPC   H3R 3014   4.887   6.674   9.997  1.6642 -0.1200 -0.9160
   23SAPC   H3S 3015   4.761   6.671  10.121 -2.1385 -1.3415  0.0472
   23SAPC   C24 3016   4.693   6.567   9.948 -0.5091  0.3309  0.1858
   23SAPC   H4R 3017   4.651   6.657   9.898  3.1219  1.7146 -0.5436
   23SAPC   H4S 3018   4.618   6.514  10.010  0.3125 -0.1874  0.7405
   23SAPC   C25 3019   4.749   6.472   9.848 -0.8724  0.4440  0.2027
   23SAPC   H5R 3020   4.720   6.368   9.871  4.0247 -1.1349 -0.1389
   23SAPC   C26 3021   4.798   6.501   9.731  0.1615 -0.0770 -0.1108
   23SAPC   H6R 3022   4.835   6.416   9.673  1.6721 -0.3658  1.2536
   23SAPC   C27 3023   4.822   6.635   9.666  0.0867  0.4644  0.2497
   23SAPC   H7R 3024   4.932   6.639   9.648 -0.1878  0.1949 -1.5654
   23SAPC   H7S 3025   4.787   6.715   9.734  2.4181  1.3612  0.4518
   23SAPC   C28 3026   4.755   6.644   9.535 -0.0619 -0.4920 -0.2074
   23SAPC   H8R 3027   4.650   6.674   9.547  0.3672  0.9423  0.0929
   23SAPC   C29 3028   4.810   6.631   9.414  0.1358  0.6399  0.0296
   23SAPC   H9R 3029   4.736   6.653   9.335  0.4105  0.3031 -0.3280
   23SAPC  C210 3030   4.940   6.590   9.364  0.1075 -0.0848  0.3282
   23SAPC  H10R 3031   5.002   6.556   9.450 -1.3993 -0.0893  1.4473
   23SAPC  H10S 3032   4.980   6.676   9.307  0.4584 -0.5528 -0.1311
   23SAPC  C211 3033   4.919   6.467   9.280 -0.0502 -0.3700  0.7663
   23SAPC  H11R 3034   4.827   6.413   9.308 -0.3812 -0.2212 -0.0240
   23SAPC  C212 3035   4.978   6.438   9.165 -0.0778  0.5516  0.6333
   23SAPC  H12R 3036   4.941   6.350   9.110 -1.1075  1.6524 -0.4762
   23SAPC  C213 3037   5.090   6.512   9.098  0.2207  0.2954 -0.2248
   23SAPC  H13R 3038   5.168   6.434   9.088 -1.2050 -0.8287 -3.2094
   23SAPC  H13S 3039   5.127   6.596   9.162 -0.0012 -0.2797  0.6735
   23SAPC  C214 3040   5.051   6.556   8.955  0.2381 -0.9927 -0.1083
   23SAPC  H14R 3041   5.003   6.655   8.954  0.1498 -1.0243  0.7547
   23SAPC  C215 3042   5.065   6.494   8.841  0.3358 -0.7162  0.2871
   23SAPC  H15R 3043   5.007   6.536   8.757  1.7983 -0.0967 -0.4254
   23SAPC  C216 3044   5.129   6.367   8.819 -0.7045 -0.1183 -0.0268
   23SAPC  H16R 3045   5.066   6.313   8.745  0.9457  0.4679 -1.9187
   23SAPC  H16S 3046   5.119   6.302   8.909 -0.3315 -2.2091 -1.4556
   23SAPC  C217 3047   5.272   6.366   8.767 -0.0880 -0.2564  0.1808
   23SAPC  H17R 3048   5.349   6.400   8.840  1.1426 -0.0930 -1.1664
   23SAPC  H17S 3049   5.280   6.433   8.679 -3.0222 -1.0644 -0.7632
   23SAPC  C218 3050   5.309   6.218   8.725 -0.8138  0.4357 -1.0462
   23SAPC  H18R 3051   5.245   6.203   8.636 -1.8130  2.3299 -0.6818
   23SAPC  H18S 3052   5.274   6.140   8.796  1.3470 -1.7252 -2.2670
   23SAPC  C219 3053   5.453   6.198   8.690 -0.3238  0.6750 -0.1702
   23SAPC  H19R 3054   5.460   6.091   8.660 -1.0472 -0.1047  2.3641
   23SAPC  H19S 3055   5.527   6.220   8.770  1.2220  0.3545 -1.5012
   23SAPC  C220 3056   5.499   6.276   8.562 -0.1521  0.1447 -0.2903
   23SAPC  H20R 3057   5.428   6.254   8.480  0.1889 -1.9434 -0.0576
   23SAPC  H20S 3058   5.597   6.238   8.528 -0.2161  1.1349 -1.5995
   23SAPC  H20T 3059   5.514   6.385   8.577  0.6340 -0.0928  0.6991
   23SAPC   C33 3060   5.614   6.274  10.041 -0.0922  0.4610 -0.3264
   23SAPC   H3X 3061   5.677   6.207  10.104 -0.5043  1.6208  1.3603
   23SAPC   H3Y 3062   5.637   6.382  10.050 -0.5738  0.6521 -1.3556
   23SAPC   C34 3063   5.652   6.236   9.899  0.9047 -0.3653 -0.5774
   23SAPC   H4X 3064   5.613   6.133   9.881 -0.8595  0.2011 -0.0654
   23SAPC   H4Y 3065   5.762   6.228   9.891  1.0132 -0.5137  0.9304
   23SAPC   C35 3066   5.595   6.337   9.798  1.0236  0.1152 -0.0750
   23SAPC   H5X 3067   5.636   6.434   9.833  0.5133 -0.1983  1.4448
   23SAPC   H5Y 3068   5.484   6.337   9.803  1.0045  1.0790 -0.2929
   23SAPC   C36 3069   5.625   6.307   9.655 -0.6466 -0.3189 -0.0219
   23SAPC   H6X 3070   5.570   6.379   9.592  0.0020  0.0478 -0.1747
   23SAPC   H6Y 3071   5.591   6.203   9.634 -0.4275 -0.2313 -0.8070
   23SAPC   C37 3072   5.777   6.310   9.617  0.3459 -0.1905  0.0633
   23SAPC   H7X 3073   5.829   6.232   9.676 -0.7311 -0.3263  0.8429
   23SAPC   H7Y 3074   5.803   6.404   9.669  0.0627  0.1501 -0.4057
   23SAPC   C38 3075   5.821   6.293   9.468  0.0621 -0.8060 -0.1368
   23SAPC   H8X 3076   5.774   6.381   9.418  0.0906 -1.1574 -0.7806
   23SAPC   H8Y 3077   5.766   6.201   9.438 -1.0139 -0.1069 -0.3485
   23SAPC   C39 3078   5.970   6.296   9.455  0.1444  0.4135  0.2596
   23SAPC   H9X 3079   6.024   6.232   9.529  1.7644  0.6251 -0.7189
   23SAPC   H9Y 3080   6.001   6.400   9.475 -2.9464  1.8130 -1.8542
   23SAPC  C310 3081   6.018   6.269   9.316  0.5321 -0.7196  1.0147
   23SAPC  H10X 3082   5.974   6.334   9.237  1.6173 -1.3076 -0.0829
   23SAPC  H10Y 3083   5.983   6.169   9.283 -0.3639 -0.3689  0.8799
   23SAPC  C311 3084   6.168   6.292   9.291  0.9218  0.7344 -1.2426
   23SAPC  H11X 3085   6.205   6.236   9.380  0.1383 -2.3859 -2.7815
   23SAPC  H11Y 3086   6.187   6.401   9.295  0.6062  0.7797 -1.0143
   23SAPC  C312 3087   6.220   6.235   9.163 -0.4779 -0.5674  0.1564
   23SAPC  H12X 3088   6.161   6.142   9.146 -0.5340 -0.1331 -2.2093
   23SAPC  H12Y 3089   6.327   6.206   9.167 -0.6632 -1.1786  0.7792
   23SAPC  C313 3090   6.183   6.330   9.049  0.1016  0.3256  0.3273
   23SAPC  H13X 3091   6.241   6.425   9.054  1.8490 -0.8001  2.7804
   23SAPC  H13Y 3092   6.079   6.367   9.043  0.2559  1.1809  2.6117
   23SAPC  C314 3093   6.214   6.276   8.911 -0.2687  0.2693 -0.0000
   23SAPC  H14X 3094   6.168   6.342   8.835  0.0207  0.7733  0.2572
   23SAPC  H14Y 3095   6.176   6.172   8.910  2.8237 -0.9617  1.8684
   23SAPC  C315 3096   6.358   6.265   8.852  0.0379  0.1022 -0.3789
   23SAPC  H15X 3097   6.415   6.191   8.913  0.8746 -0.7741 -2.1938
   23SAPC  H15Y 3098   6.410   6.357   8.884  0.9344 -0.3860 -0.4128
   23SAPC  C316 3099   6.366   6.229   8.705  0.1167 -0.2730 -0.5112
   23SAPC  H16X 3100   6.469   6.189   8.692 -0.0256 -0.8444  0.0797
   23SAPC  H16Y 3101   6.375   6.317   8.638 -2.6678 -1.2984 -2.2935
   23SAPC  C317 3102   6.266   6.124   8.656  0.1020 -0.0639 -0.2336
   23SAPC  H17X 3103   6.166   6.174   8.656  0.3403  0.4215  0.3791
   23SAPC  H17Y 3104   6.261   6.040   8.729 -1.0025 -0.4219 -0.7030
   23SAPC  C318 3105   6.304   6.061   8.518 -0.1418 -0.1513  0.1064
   23SAPC  H18X 3106   6.397   6.003   8.533  0.6298  0.9664 -0.2838
   23SAPC  H18Y 3107   6.323   6.146   8.449 -1.6789  1.5784  1.7576
   23SAPC  H18Z 3108   6.223   5.996   8.480  1.0007 -1.0274 -0.8660
   24SAPC     N 3109   1.542   6.263  11.270 -0.2115  0.2263 -0.8218
   24SAPC   C12 3110   1.402   6.315  11.294 -0.7594  0.0337  0.0975
   24SAPC  H12A 3111   1.394   6.402  11.230  2.6050 -0.3271 -0.9081
   24SAPC  H12B 3112   1.396   6.345  11.397 -0.8475 -0.3829  0.2114
   24SAPC   C13 3113   1.557   6.125  11.327 -0.0813  0.4787 -0.0288
   24SAPC  H13A 3114   1.658   6.089  11.314  0.3617  1.6879 -0.0084
   24SAPC  H13B 3115   1.548   6.132  11.435  1.8590  6.1439 -0.0722
   24SAPC  H13C 3116   1.487   6.057  11.280 -1.6580  0.5769  2.1110
   24SAPC   C14 3117   1.582   6.255  11.130 -0.0404 -0.0693 -0.2712
   24SAPC  H14A 3118   1.508   6.199  11.074 -0.9045  2.4784 -1.7336
   24SAPC  H14B 3119   1.592   6.345  11.071 -3.7043  1.8023  1.8129
   24SAPC  H14C 3120   1.677   6.205  11.121 -0.0828  0.0042 -1.2210
   24SAPC   C15 3121   1.640   6.354  11.347  0.1171 -0.6105 -0.5275
   24SAPC  H15A 3122   1.651   6.449  11.297 -1.3809 -0.1267  0.0211
   24SAPC  H15B 3123   1.607   6.370  11.449 -0.0551 -1.3882 -0.4567
   24SAPC  H15C 3124   1.735   6.304  11.339 -0.5086 -1.7949 -0.7413
   24SAPC   C11 3125   1.278   6.225  11.261  0.8939  0.1542  0.2964
   24SAPC  H11A 3126   1.187   6.287  11.281  0.9396  1.0197 -2.0508
   24SAPC  H11B 3127   1.264   6.155  11.346 -2.8994 -0.0583 -0.3822
   24SAPC     P 3128   1.204   6.230  11.006  0.1394 -0.3636 -0.2674
   24SAPC   O13 3129   1.081   6.147  10.983  0.7076 -0.0597 -0.5540
   24SAPC   O14 3130   1.206   6.379  11.028  0.1158  0.0299  0.2005
   24SAPC   O12 3131   1.276   6.164  11.135 -0.1083  0.4803  0.0919
   24SAPC   O11 3132   1.315   6.194  10.898 -0.3220  0.0730 -0.2769
   24SAPC    C1 3133   1.345   6.058  10.873 -0.5824 -0.3602  0.8606
   24SAPC    HA 3134   1.448   6.048  10.914 -0.1800 -1.7828 -0.4369
   24SAPC    HB 3135   1.276   5.983  10.916  0.8782 -2.5976 -0.5548
   24SAPC    C2 3136   1.372   6.019  10.722 -0.3436 -0.0215 -0.2761
   24SAPC    HS 3137   1.477   6.041  10.693 -0.5459 -0.7062 -1.5646
   24SAPC   O21 3138   1.273   6.082  10.638 -0.0903  0.9382 -0.5288
   24SAPC   C21 3139   1.309   6.203  10.590 -0.6856  0.1927  0.2234
   24SAPC   O22 3140   1.415   6.252  10.615 -0.0831 -0.0279  0.1463
   24SAPC   C22 3141   1.201   6.262  10.508  0.7931  0.0005 -0.2507
   24SAPC   H2R 3142   1.105   6.245  10.561  2.1396  1.6858  2.8043
   24SAPC   H2S 3143   1.221   6.369  10.531  0.2584 -0.0120  0.2809
   24SAPC    C3 3144   1.348   5.863  10.708 -0.3835 -0.6676 -0.2465
   24SAPC    HX 3145   1.240   5.865  10.736  0.2539 -1.3608  2.3156
   24SAPC    HY 3146   1.403   5.814  10.790 -2.4598 -2.1430  0.3022
   24SAPC   O31 3147   1.355   5.816  10.571  0.3293 -0.4984  0.2285
   24SAPC   C31 3148   1.474   5.813  10.525 -0.6549  0.7889  0.6522
   24SAPC   O32 3149   1.576   5.839  10.587  0.1347 -0.4407 -0.0877
   24SAPC   C32 3150   1.480   5.782  10.377 -0.3011 -0.1357  0.1355
   24SAPC   H2X 3151   1.408   5.849  10.325  1.4351  0.7511 -1.1407
   24SAPC   H2Y 3152   1.436   5.681  10.361 -1.1821  0.2701 -0.0722
   24SAPC   C23 3153   1.205   6.226  10.358  0.7004  0.4646  0.5964
   24SAPC   H3R 3154   1.127   6.271  10.293  0.4888 -0.4874  0.1843
   24SAPC   H3S 3155   1.187   6.116  10.353 -1.1458  0.8095 -0.6782
   24SAPC   C24 3156   1.339   6.272  10.291  0.3450 -0.1982 -0.3151
   24SAPC   H4R 3157   1.305   6.249  10.188  1.3151 -3.4263  0.0359
   24SAPC   H4S 3158   1.429   6.216  10.322  0.8022 -0.5678 -2.2150
   24SAPC   C25 3159   1.364   6.420  10.305 -0.8377 -0.1370 -0.4351
   24SAPC   H5R 3160   1.378   6.464  10.405 -0.7996 -0.5210 -0.2713
   24SAPC   C26 3161   1.367   6.509  10.200  0.3530  0.4349 -0.5375
   24SAPC   H6R 3162   1.371   6.617  10.220 -2.5116  0.4377  0.1669
   24SAPC   C27 3163   1.355   6.482  10.052 -0.4333 -0.4706 -0.0366
   24SAPC   H7R 3164   1.427   6.407  10.013  1.9483  2.5506 -1.6595
   24SAPC   H7S 3165   1.389   6.575  10.002  1.4113 -1.2900 -0.3349
   24SAPC   C28 3166   1.214   6.445  10.023  1.1992 -0.4392 -0.1810
   24SAPC   H8R 3167   1.141   6.514  10.070  1.5400 -1.0138  1.2214
   24SAPC   C29 3168   1.166   6.351   9.942 -0.8023  0.3729  0.2269
   24SAPC   H9R 3169   1.058   6.332   9.931 -0.5366 -1.1077  0.0941
   24SAPC  C210 3170   1.249   6.267   9.852  0.8742  0.0494 -0.9646
   24SAPC  H10R 3171   1.343   6.317   9.819  1.0900 -1.0107 -1.9810
   24SAPC  H10S 3172   1.207   6.256   9.750  0.6320  2.8230 -1.1985
   24SAPC  C211 3173   1.286   6.135   9.914 -0.1702 -0.1937 -0.5706
   24SAPC  H11R 3174   1.256   6.112  10.018  1.4342  0.7729  0.1167
   24SAPC  C212 3175   1.346   6.036   9.841 -0.0914  0.1904  0.1311
   24SAPC  H12R 3176   1.380   5.941   9.885  0.7564  0.9895  1.2372
   24SAPC  C213 3177   1.392   6.032   9.695  0.4643 -0.0410  0.0997
   24SAPC  H13R 3178   1.486   6.091   9.692 -0.6658  1.8603  1.1096
   24SAPC  H13S 3179   1.323   6.089   9.630 -0.2539 -0.2691  0.6515
   24SAPC  C214 3180   1.393   5.900   9.633  0.1591  0.7843  0.1362
   24SAPC  H14R 3181   1.292   5.858   9.627  0.1623  0.6310  1.0406
   24SAPC  C215 3182   1.500   5.821   9.608 -0.0250 -0.1928 -0.1886
   24SAPC  H15R 3183   1.476   5.725   9.559  1.8911 -1.4563  1.2747
   24SAPC  C216 3184   1.646   5.848   9.624 -0.3118 -0.9088  0.1400
   24SAPC  H16R 3185   1.701   5.752   9.618  0.3609 -0.4911 -0.4819
   24SAPC  H16S 3186   1.666   5.885   9.726 -2.8690  0.3920  0.2095
   24SAPC  C217 3187   1.681   5.931   9.503  0.2666 -0.3095  0.2171
   24SAPC  H17R 3188   1.792   5.928   9.498  0.2278 -0.1221 -0.8002
   24SAPC  H17S 3189   1.644   6.034   9.522  2.2312  0.3445  0.6123
   24SAPC  C218 3190   1.639   5.876   9.371  1.0837  0.0829  0.0130
   24SAPC  H18R 3191   1.547   5.929   9.337  0.3819 -1.3426 -0.3312
   24SAPC  H18S 3192   1.623   5.766   9.368  1.4128  0.0118  0.8404
   24SAPC  C219 3193   1.737   5.891   9.256  0.1724  0.4170 -0.6090
   24SAPC  H19R 3194   1.830   5.842   9.292  1.1294  1.2223 -1.9492
   24SAPC  H19S 3195   1.762   5.999   9.245 -2.3062  1.5054  3.4448
   24SAPC  C220 3196   1.691   5.838   9.116  0.2598  0.1489 -0.9004
   24SAPC  H20R 3197   1.769   5.852   9.038  1.1714 -0.8775 -0.1827
   24SAPC  H20S 3198   1.596   5.860   9.062 -0.8815 -0.3461  0.8655
   24SAPC  H20T 3199   1.685   5.727   9.118  1.5839  0.0996  0.2931
   24SAPC   C33 3200   1.619   5.791  10.307  0.1437  0.2903 -0.8580
   24SAPC   H3X 3201   1.698   5.724  10.345 -1.6251  0.0080  2.4809
   24SAPC   H3Y 3202   1.662   5.892  10.290  1.7318 -0.2916 -0.3665
   24SAPC   C34 3203   1.592   5.738  10.156  0.6030  0.5766 -0.3004
   24SAPC   H4X 3204   1.510   5.798  10.111 -0.6026  0.3951  1.6110
   24SAPC   H4Y 3205   1.556   5.633  10.159  1.1268  0.4388  1.4597
   24SAPC   C35 3206   1.716   5.758  10.070  0.3375 -0.4822 -0.1241
   24SAPC   H5X 3207   1.805   5.719  10.123  1.8763 -2.1040 -3.7278
   24SAPC   H5Y 3208   1.743   5.863  10.045  1.8746 -1.2914 -1.9383
   24SAPC   C36 3209   1.707   5.668   9.953 -0.0554  0.4576 -0.0122
   24SAPC   H6X 3210   1.621   5.695   9.887 -1.4331 -0.2988  1.4331
   24SAPC   H6Y 3211   1.688   5.569   9.999 -0.9543  1.9656  2.9585
   24SAPC   C37 3212   1.838   5.674   9.880  0.2176 -0.4351 -0.6201
   24SAPC   H7X 3213   1.917   5.651   9.955 -3.1241  0.3360  3.3012
   24SAPC   H7Y 3214   1.873   5.768   9.832 -1.7411 -0.4612 -2.1536
   24SAPC   C38 3215   1.853   5.559   9.778  0.1592 -0.7209  0.3541
   24SAPC   H8X 3216   1.760   5.556   9.716 -0.0181 -1.0111  0.6338
   24SAPC   H8Y 3217   1.858   5.465   9.836 -0.5570 -1.6483 -1.0473
   24SAPC   C39 3218   1.979   5.561   9.695  0.3878 -0.7062  0.2523
   24SAPC   H9X 3219   1.989   5.458   9.653  1.4520 -0.1383 -0.9066
   24SAPC   H9Y 3220   2.066   5.579   9.762 -0.0010  1.7751  0.1291
   24SAPC  C310 3221   1.984   5.661   9.584  0.3033  0.3310 -0.3544
   24SAPC  H10X 3222   1.971   5.758   9.637  0.0586 -1.7522  3.6533
   24SAPC  H10Y 3223   1.903   5.641   9.511  1.2544 -0.4797 -1.2009
   24SAPC  C311 3224   2.116   5.642   9.512 -0.2332  0.2644 -0.7335
   24SAPC  H11X 3225   2.125   5.536   9.478 -0.0791  0.1842 -0.4377
   24SAPC  H11Y 3226   2.202   5.666   9.578 -1.2212 -2.5040  1.6571
   24SAPC  C312 3227   2.123   5.719   9.383 -0.4661  0.2858  1.0383
   24SAPC  H12X 3228   2.117   5.829   9.398  1.2968  0.8662 -2.1798
   24SAPC  H12Y 3229   2.045   5.692   9.310  1.5964  1.8615 -1.8402
   24SAPC  C313 3230   2.254   5.696   9.305  0.4678 -0.8390  0.4733
   24SAPC  H13X 3231   2.294   5.592   9.297  2.1912 -0.1757  0.1498
   24SAPC  H13Y 3232   2.329   5.734   9.378  0.6991  2.8324 -1.5748
   24SAPC  C314 3233   2.261   5.781   9.181 -0.3409  0.1481  0.0456
   24SAPC  H14X 3234   2.370   5.792   9.158 -0.2273 -0.4267  0.2907
   24SAPC  H14Y 3235   2.228   5.880   9.218  0.5626 -0.5934  2.9866
   24SAPC  C315 3236   2.185   5.719   9.068  0.4333  0.4428 -0.6506
   24SAPC  H15X 3237   2.082   5.684   9.089 -0.1118  2.8577  0.9457
   24SAPC  H15Y 3238   2.231   5.621   9.044 -2.6876 -1.0909 -0.5952
   24SAPC  C316 3239   2.180   5.811   8.949  0.6732 -0.0556 -0.0304
   24SAPC  H16X 3240   2.280   5.838   8.908  0.5235  2.4138  1.1756
   24SAPC  H16Y 3241   2.137   5.908   8.978 -1.8257 -1.6986  1.9638
   24SAPC  C317 3242   2.094   5.759   8.839  0.0313  0.1118 -0.1924
   24SAPC  H17X 3243   2.117   5.834   8.760  0.3471  3.1323  2.6138
   24SAPC  H17Y 3244   1.986   5.784   8.853 -0.2282  0.6309 -2.8246
   24SAPC  C318 3245   2.138   5.626   8.798  0.2541 -0.0798 -0.1845
   24SAPC  H18X 3246   2.247   5.625   8.778  0.8407 -1.2682  2.7995
   24SAPC  H18Y 3247   2.080   5.599   8.707  1.1014 -0.4348 -0.6268
   24SAPC  H18Z 3248   2.116   5.552   8.878 -0.8674  0.9453  0.4756
   25SAPC     N 3249   4.642   3.986   6.231 -0.4944 -0.2479 -0.3687
   25SAPC   C12 3250   4.550   3.880   6.186 -0.3824  0.0509  0.3719
   25SAPC  H12A 3251   4.459   3.935   6.164  0.8431  0.8465 -2.9121
   25SAPC  H12B 3252   4.532   3.810   6.267  0.6625  0.9354  1.3726
   25SAPC   C13 3253   4.593   4.055   6.354 -0.1055  0.3510  0.1298
   25SAPC  H13A 3254   4.572   3.980   6.429 -2.5895  0.5906 -0.2955
   25SAPC  H13B 3255   4.665   4.124   6.396 -0.6639  1.2101 -0.3211
   25SAPC  H13C 3256   4.516   4.120   6.317 -1.0169 -0.8235 -0.0723
   25SAPC   C14 3257   4.786   3.934   6.244  0.7177 -0.0534  0.2276
   25SAPC  H14A 3258   4.797   3.859   6.321  1.7650  1.0261  1.1653
   25SAPC  H14B 3259   4.822   3.895   6.150 -0.0803  1.5594 -0.7744
   25SAPC  H14C 3260   4.857   4.011   6.272  0.5424  0.0534  0.3756
   25SAPC   C15 3261   4.639   4.096   6.121 -0.4690  0.6550  0.5839
   25SAPC  H15A 3262   4.542   4.141   6.107 -1.3625 -0.6404  2.4441
   25SAPC  H15B 3263   4.708   4.173   6.153  0.1470  1.1888 -1.9517
   25SAPC  H15C 3264   4.678   4.053   6.030  1.6972  3.5809  0.0309
   25SAPC   C11 3265   4.580   3.797   6.060 -0.5161 -0.4104 -0.4765
   25SAPC  H11A 3266   4.676   3.742   6.076 -2.0242 -2.3958  2.1475
   25SAPC  H11B 3267   4.584   3.864   5.972  0.3680  0.9167  0.5669
   25SAPC     P 3268   4.431   3.575   6.100 -0.4208 -0.5709 -0.1210
   25SAPC   O13 3269   4.287   3.560   6.086  0.3014 -0.5940  0.1271
   25SAPC   O14 3270   4.508   3.451   6.071 -0.0025  0.0035 -0.4033
   25SAPC   O12 3271   4.481   3.702   6.023  0.2996 -0.3977  0.0749
   25SAPC   O11 3272   4.459   3.613   6.248 -0.0579  0.1351  0.3042
   25SAPC    C1 3273   4.557   3.551   6.322 -0.5269  0.0373 -0.1681
   25SAPC    HA 3274   4.526   3.446   6.339 -0.8044 -0.0630 -1.2223
   25SAPC    HB 3275   4.656   3.556   6.271 -0.1618 -0.6257  0.4836
   25SAPC    C2 3276   4.576   3.628   6.461  0.1973  0.1762 -0.3605
   25SAPC    HS 3277   4.595   3.731   6.425 -0.8279  0.6401  0.3887
   25SAPC   O21 3278   4.676   3.578   6.540  0.0754 -0.0995  0.3732
   25SAPC   C21 3279   4.801   3.597   6.505  0.7797 -0.4593 -0.1176
   25SAPC   O22 3280   4.842   3.668   6.417  0.2941 -0.2544  0.3454
   25SAPC   C22 3281   4.881   3.536   6.619  0.7579 -0.5662 -0.3235
   25SAPC   H2R 3282   4.838   3.572   6.715  0.8929  0.3596 -0.6051
   25SAPC   H2S 3283   4.870   3.426   6.623  1.5100 -0.5926  1.5006
   25SAPC    C3 3284   4.445   3.632   6.548  0.8595 -0.2418  0.0178
   25SAPC    HX 3285   4.400   3.531   6.559 -2.8080  1.5085  2.0502
   25SAPC    HY 3286   4.365   3.692   6.499  2.0749  1.4060 -0.0003
   25SAPC   O31 3287   4.471   3.683   6.683 -0.3501 -0.5418  0.1905
   25SAPC   C31 3288   4.505   3.815   6.699  0.6636 -0.1349  0.2603
   25SAPC   O32 3289   4.514   3.891   6.603  0.1643  0.2156 -0.1510
   25SAPC   C32 3290   4.530   3.859   6.843  0.2738 -0.2667 -0.5176
   25SAPC   H2X 3291   4.446   3.927   6.866 -1.1747 -1.3747 -2.4752
   25SAPC   H2Y 3292   4.625   3.917   6.842 -0.4765  0.9999  0.1462
   25SAPC   C23 3293   5.024   3.575   6.613 -0.1687  0.6378  0.2580
   25SAPC   H3R 3294   5.035   3.682   6.585 -0.6111  0.7462  0.4846
   25SAPC   H3S 3295   5.071   3.526   6.526  0.7196  0.5870  0.7614
   25SAPC   C24 3296   5.097   3.539   6.745 -0.0125 -0.0954 -0.2253
   25SAPC   H4R 3297   5.204   3.565   6.729 -0.1264  0.1834 -0.5628
   25SAPC   H4S 3298   5.098   3.432   6.773  0.7117 -0.2671 -0.8691
   25SAPC   C25 3299   5.048   3.636   6.857  0.3815  1.4773  0.1075
   25SAPC   H5R 3300   5.086   3.740   6.851 -1.0550  1.8905 -2.7622
   25SAPC   C26 3301   4.959   3.595   6.957 -0.1644 -0.0974  0.7764
   25SAPC   H6R 3302   4.929   3.663   7.038 -3.5550 -0.1416 -0.3385
   25SAPC   C27 3303   4.897   3.460   6.981  0.2395 -0.2824  0.1774
   25SAPC   H7R 3304   4.881   3.400   6.889 -1.3362  1.5956 -0.8112
   25SAPC   H7S 3305   4.794   3.490   7.011  0.8698  1.0626  1.0238
   25SAPC   C28 3306   4.953   3.372   7.087 -0.2152 -0.0657 -0.6354
   25SAPC   H8R 3307   5.050   3.400   7.131 -0.6483 -0.3262  0.5134
   25SAPC   C29 3308   4.888   3.265   7.138 -0.3454 -0.3542 -0.4322
   25SAPC   H9R 3309   4.946   3.209   7.213 -1.1909  1.8188  1.9580
   25SAPC  C210 3310   4.748   3.214   7.114 -0.0035  0.5212 -0.0972
   25SAPC  H10R 3311   4.751   3.111   7.074 -0.0326  0.0467  1.0985
   25SAPC  H10S 3312   4.704   3.263   7.024 -0.1259 -1.2754 -1.0415
   25SAPC  C211 3313   4.647   3.211   7.227  0.3658  0.4304 -0.1489
   25SAPC  H11R 3314   4.550   3.260   7.211 -0.2345 -0.2513  1.3180
   25SAPC  C212 3315   4.666   3.136   7.340 -0.1538 -0.1103  0.0947
   25SAPC  H12R 3316   4.580   3.136   7.408 -0.7889  1.2841 -0.6931
   25SAPC  C213 3317   4.780   3.047   7.384 -0.0826 -0.1178 -1.1076
   25SAPC  H13R 3318   4.868   3.053   7.317  0.3746 -0.0758 -0.5079
   25SAPC  H13S 3319   4.731   2.947   7.375 -0.6235  0.0943 -0.5393
   25SAPC  C214 3320   4.829   3.064   7.531  0.1465 -0.9401  0.1852
   25SAPC  H14R 3321   4.900   3.148   7.540 -1.9074  0.9559 -0.9128
   25SAPC  C215 3322   4.806   2.989   7.641 -0.3935  0.1206  0.2463
   25SAPC  H15R 3323   4.839   3.029   7.738 -2.6469  0.3564  0.9566
   25SAPC  C216 3324   4.719   2.866   7.653  0.3932  0.1469  0.2350
   25SAPC  H16R 3325   4.765   2.768   7.679 -0.2612 -0.6809 -1.6432
   25SAPC  H16S 3326   4.670   2.840   7.557  3.6023  0.2578 -1.4954
   25SAPC  C217 3327   4.604   2.895   7.746  0.5155  0.1375  0.2909
   25SAPC  H17R 3328   4.529   2.813   7.744 -0.7734  1.3102 -1.5268
   25SAPC  H17S 3329   4.546   2.981   7.706  3.2035  1.5143 -0.8339
   25SAPC  C218 3330   4.641   2.925   7.892  0.5586  0.6602  0.2139
   25SAPC  H18R 3331   4.697   3.021   7.895  0.3895  0.7211  1.3923
   25SAPC  H18S 3332   4.700   2.844   7.938  2.4395  2.1058  0.4071
   25SAPC  C219 3333   4.510   2.950   7.971 -1.1024  0.0934 -0.0519
   25SAPC  H19R 3334   4.455   2.854   7.973 -2.0459  0.6366  1.4936
   25SAPC  H19S 3335   4.446   3.027   7.922 -0.1275  0.7581 -0.3060
   25SAPC  C220 3336   4.532   2.983   8.122  0.3154 -0.1892  0.4586
   25SAPC  H20R 3337   4.584   3.079   8.142 -0.4667  0.1881  0.6969
   25SAPC  H20S 3338   4.574   2.898   8.180  3.6944  1.3039  0.2779
   25SAPC  H20T 3339   4.431   2.991   8.169 -0.8992 -0.5978 -1.9860
   25SAPC   C33 3340   4.548   3.755   6.957 -0.5412  0.1268 -0.2175
   25SAPC   H3X 3341   4.567   3.653   6.917 -1.0072  0.1563 -0.5138
   25SAPC   H3Y 3342   4.443   3.742   6.992 -0.9369  3.1536 -0.1940
   25SAPC   C34 3343   4.644   3.797   7.061 -0.0317  0.2308 -0.6731
   25SAPC   H4X 3344   4.617   3.899   7.096 -0.2881 -0.5134  1.3432
   25SAPC   H4Y 3345   4.744   3.820   7.018  0.5200  0.6081  0.8002
   25SAPC   C35 3346   4.651   3.701   7.175 -0.3436 -0.1595  0.2197
   25SAPC   H5X 3347   4.655   3.599   7.132 -1.8665  0.5411 -1.6755
   25SAPC   H5Y 3348   4.556   3.712   7.232  0.1623  0.5176  0.9408
   25SAPC   C36 3349   4.769   3.727   7.268 -0.0390  0.2996  0.8229
   25SAPC   H6X 3350   4.773   3.835   7.292  2.1564  0.4495 -0.0981
   25SAPC   H6Y 3351   4.858   3.690   7.213 -1.4417 -1.0021 -0.6424
   25SAPC   C37 3352   4.763   3.660   7.405 -0.5343  0.0210 -0.5223
   25SAPC   H7X 3353   4.693   3.724   7.464  1.8492  1.4443  0.8520
   25SAPC   H7Y 3354   4.866   3.689   7.435 -0.7462  2.3957 -1.9705
   25SAPC   C38 3355   4.709   3.516   7.401 -0.2556  0.2704  0.1773
   25SAPC   H8X 3356   4.755   3.458   7.319 -0.0597 -0.4432  0.7901
   25SAPC   H8Y 3357   4.599   3.519   7.387 -0.5245  1.3485  2.3516
   25SAPC   C39 3358   4.745   3.440   7.522  0.6431 -0.0993  0.2571
   25SAPC   H9X 3359   4.856   3.432   7.517  0.5362 -1.3972 -0.5423
   25SAPC   H9Y 3360   4.707   3.336   7.507 -0.0067 -0.1658  2.2189
   25SAPC  C310 3361   4.706   3.499   7.658 -0.0128 -0.4471  0.2764
   25SAPC  H10X 3362   4.596   3.508   7.668 -0.0545 -1.2137  0.5307
   25SAPC  H10Y 3363   4.746   3.602   7.666 -0.2443 -0.1903 -1.7001
   25SAPC  C311 3364   4.759   3.414   7.774 -0.6320  0.8676 -1.1834
   25SAPC  H11X 3365   4.867   3.391   7.757 -0.5571  0.8640 -0.7093
   25SAPC  H11Y 3366   4.705   3.317   7.786  2.6831 -1.0952 -1.4422
   25SAPC  C312 3367   4.733   3.478   7.920 -0.1399 -0.3018 -0.2313
   25SAPC  H12X 3368   4.787   3.574   7.935  0.7584 -0.2225 -3.4815
   25SAPC  H12Y 3369   4.750   3.398   7.994  2.0057 -1.4708 -1.9264
   25SAPC  C313 3370   4.581   3.512   7.930  0.7365  0.0409  0.7501
   25SAPC  H13X 3371   4.523   3.420   7.905  0.7675  0.0499  0.6455
   25SAPC  H13Y 3372   4.567   3.582   7.844 -2.6170 -0.0652  1.1364
   25SAPC  C314 3373   4.545   3.567   8.068  0.1492  0.2843  0.2724
   25SAPC  H14X 3374   4.564   3.672   8.098 -2.1647  0.0233  2.8878
   25SAPC  H14Y 3375   4.591   3.489   8.132 -0.4234 -0.0465  0.2813
   25SAPC  C315 3376   4.390   3.547   8.091  0.2994 -0.3826 -0.1711
   25SAPC  H15X 3377   4.372   3.561   8.200 -1.2529 -0.2880 -0.4360
   25SAPC  H15Y 3378   4.372   3.441   8.062 -0.2934 -1.1346  2.7283
   25SAPC  C316 3379   4.293   3.645   8.021 -0.4800  0.1740 -0.3707
   25SAPC  H16X 3380   4.307   3.626   7.912  1.0737  0.4499 -0.2227
   25SAPC  H16Y 3381   4.304   3.753   8.045  0.1763  0.6454 -2.6968
   25SAPC  C317 3382   4.147   3.610   8.052 -0.0612 -0.6515 -0.5779
   25SAPC  H17X 3383   4.132   3.627   8.160  2.7027  0.9237 -0.3848
   25SAPC  H17Y 3384   4.129   3.500   8.045 -1.6652 -0.3372 -1.5047
   25SAPC  C318 3385   4.041   3.685   7.966  0.4438  0.3579 -0.2536
   25SAPC  H18X 3386   3.940   3.657   8.004  0.2108 -0.3183 -1.3317
   25SAPC  H18Y 3387   4.044   3.657   7.858  1.2772 -0.9365  0.0911
   25SAPC  H18Z 3388   4.052   3.794   7.982  0.4584  0.0015  2.3588
   26SAPC     N 3389   3.878   5.038   6.023  0.4024  0.3299 -0.6438
   26SAPC   C12 3390   3.927   5.037   6.171 -0.1236 -0.4079  0.3747
   26SAPC  H12A 3391   4.034   5.022   6.163 -0.2479 -0.5790 -1.2328
   26SAPC  H12B 3392   3.879   4.953   6.218  0.0891 -0.5508  0.3372
   26SAPC   C13 3393   3.931   5.155   5.951  0.2200  0.2384  0.2681
   26SAPC  H13A 3394   3.899   5.253   5.985  2.6755  1.7518 -1.6093
   26SAPC  H13B 3395   4.039   5.161   5.954  0.1898  0.6941  0.5614
   26SAPC  H13C 3396   3.907   5.148   5.846 -1.0684  3.5728  0.2637
   26SAPC   C14 3397   3.920   4.912   5.958 -0.9694  0.1924 -0.1227
   26SAPC  H14A 3398   3.910   4.824   6.019  0.7506 -1.1940 -1.7848
   26SAPC  H14B 3399   3.869   4.900   5.864 -0.7519  0.7230 -0.3104
   26SAPC  H14C 3400   4.027   4.919   5.944 -0.7923 -0.9728  0.6465
   26SAPC   C15 3401   3.725   5.055   6.024  0.1515  0.0424 -0.4405
   26SAPC  H15A 3402   3.682   5.087   5.931  2.1327 -0.9052 -1.7167
   26SAPC  H15B 3403   3.689   4.954   6.039  0.6842 -0.1518 -0.4525
   26SAPC  H15C 3404   3.696   5.123   6.103 -1.3538  1.7109 -2.4053
   26SAPC   C11 3405   3.903   5.159   6.264  0.2063 -0.4074 -0.2920
   26SAPC  H11A 3406   3.950   5.246   6.214 -0.4286  0.2131  0.1883
   26SAPC  H11B 3407   3.951   5.147   6.364  1.6104  0.1254 -0.8820
   26SAPC     P 3408   3.653   5.161   6.362  0.0678 -0.5217 -0.1324
   26SAPC   O13 3409   3.564   5.269   6.372  0.4194  0.1137 -0.1438
   26SAPC   O14 3410   3.596   5.033   6.321 -0.5418 -0.0067  0.3068
   26SAPC   O12 3411   3.768   5.203   6.267 -0.2176  0.1519  0.2979
   26SAPC   O11 3412   3.717   5.150   6.508 -0.2071  0.2746 -0.4619
   26SAPC    C1 3413   3.797   5.265   6.561  0.1820  0.1806 -0.3093
   26SAPC    HA 3414   3.903   5.267   6.528  0.5393 -0.5864  0.7768
   26SAPC    HB 3415   3.747   5.363   6.545  0.4151  0.4649  0.6812
   26SAPC    C2 3416   3.810   5.264   6.716  0.1603 -0.3078  0.2732
   26SAPC    HS 3417   3.887   5.186   6.737  0.0123 -0.3279  0.7454
   26SAPC   O21 3418   3.686   5.232   6.772  0.3254  0.1581 -0.1923
   26SAPC   C21 3419   3.689   5.178   6.886 -0.0522  0.0448  0.3378
   26SAPC   O22 3420   3.780   5.125   6.940  0.4242 -0.5879 -0.0115
   26SAPC   C22 3421   3.543   5.181   6.933  0.0737  0.4763 -0.0516
   26SAPC   H2R 3422   3.497   5.277   6.900 -1.2234  0.1757  0.8634
   26SAPC   H2S 3423   3.482   5.104   6.882 -1.9567  1.1142  1.3694
   26SAPC    C3 3424   3.863   5.403   6.780 -1.0976 -0.0522  0.2278
   26SAPC    HX 3425   3.798   5.471   6.720 -0.4168 -0.8624 -1.4563
   26SAPC    HY 3426   3.965   5.422   6.743 -2.2121  1.9369 -1.9466
   26SAPC   O31 3427   3.850   5.420   6.923  0.5130  0.4810 -0.2706
   26SAPC   C31 3428   3.937   5.354   7.004 -0.2615  0.2004  0.2663
   26SAPC   O32 3429   4.030   5.284   6.962  0.1428  0.9040  0.3314
   26SAPC   C32 3430   3.904   5.370   7.150 -0.1515  0.1904 -0.0603
   26SAPC   H2X 3431   3.822   5.298   7.169  0.8378 -1.1222 -0.6326
   26SAPC   H2Y 3432   3.845   5.462   7.168 -1.4768 -0.4628 -1.0154
   26SAPC   C23 3433   3.538   5.162   7.087 -0.1718  0.2134  0.2465
   26SAPC   H3R 3434   3.597   5.245   7.130  0.2111  1.9830 -3.4465
   26SAPC   H3S 3435   3.586   5.065   7.110  2.5467  1.2099 -1.0056
   26SAPC   C24 3436   3.392   5.170   7.130  0.2830 -0.3848  1.0563
   26SAPC   H4R 3437   3.342   5.265   7.100 -1.5034 -1.4240  0.7111
   26SAPC   H4S 3438   3.403   5.158   7.240 -0.2682 -0.0688  1.1458
   26SAPC   C25 3439   3.320   5.050   7.072  0.3434  0.6168 -0.0348
   26SAPC   H5R 3440   3.269   5.069   6.976 -1.7941  1.1570  1.1780
   26SAPC   C26 3441   3.293   4.934   7.133 -0.0920  0.0541 -0.2163
   26SAPC   H6R 3442   3.242   4.856   7.074  2.5714 -2.9678  1.3115
   26SAPC   C27 3443   3.337   4.878   7.268  1.0188 -0.3036 -0.2917
   26SAPC   H7R 3444   3.438   4.920   7.287 -0.7512  2.4348  3.7108
   26SAPC   H7S 3445   3.346   4.768   7.258 -1.7881 -0.5207 -0.8057
   26SAPC   C28 3446   3.237   4.901   7.380 -0.4404  0.1084  1.0536
   26SAPC   H8R 3447   3.141   4.946   7.355  0.5096  1.9110  0.5802
   26SAPC   C29 3448   3.271   4.900   7.515 -0.1151  0.3870 -0.0102
   26SAPC   H9R 3449   3.192   4.917   7.589  0.3193 -0.1581  0.5794
   26SAPC  C210 3450   3.400   4.867   7.578 -0.2622  0.0725 -0.4447
   26SAPC  H10R 3451   3.469   4.838   7.496 -0.1384  0.1911 -0.3816
   26SAPC  H10S 3452   3.375   4.780   7.643 -0.9018  0.8679  0.3750
   26SAPC  C211 3453   3.460   4.977   7.653  0.2639 -0.3870  0.2902
   26SAPC  H11R 3454   3.545   5.026   7.604  1.0889 -0.6952  1.3829
   26SAPC  C212 3455   3.436   5.012   7.781 -0.8547  0.1262 -0.1665
   26SAPC  H12R 3456   3.492   5.087   7.838 -1.5026 -0.3912  1.1813
   26SAPC  C213 3457   3.334   4.931   7.862  0.1691 -0.5885  0.2412
   26SAPC  H13R 3458   3.247   4.902   7.799  0.2568  0.1636 -0.2372
   26SAPC  H13S 3459   3.286   4.994   7.940  0.1859  0.0860 -0.2773
   26SAPC  C214 3460   3.390   4.805   7.932 -0.3198  0.3118  0.1184
   26SAPC  H14R 3461   3.476   4.761   7.879 -0.8886  0.1633 -0.6952
   26SAPC  C215 3462   3.336   4.731   8.032 -0.3909 -0.0644 -0.6393
   26SAPC  H15R 3463   3.398   4.650   8.071 -1.7582 -0.8747 -0.0900
   26SAPC  C216 3464   3.209   4.767   8.104 -0.0811 -0.0419  0.5419
   26SAPC  H16R 3465   3.144   4.677   8.108 -0.2005 -0.0129 -0.5797
   26SAPC  H16S 3466   3.146   4.846   8.057  0.5880  1.2806  1.8345
   26SAPC  C217 3467   3.233   4.822   8.249 -0.4709 -0.6226 -0.1955
   26SAPC  H17R 3468   3.271   4.926   8.234  0.1150 -0.5742  1.5287
   26SAPC  H17S 3469   3.316   4.770   8.302 -0.1981 -1.6615 -1.5947
   26SAPC  C218 3470   3.101   4.844   8.332  0.4271  0.7615  0.4588
   26SAPC  H18R 3471   3.040   4.752   8.348 -0.3871  1.1581 -0.3274
   26SAPC  H18S 3472   3.039   4.912   8.270  0.9690 -1.3416 -2.4764
   26SAPC  C219 3473   3.126   4.904   8.472  0.2755  0.3885  0.6599
   26SAPC  H19R 3474   3.194   4.830   8.520 -1.1724 -1.8116 -0.5921
   26SAPC  H19S 3475   3.030   4.896   8.527  0.3824 -1.0078  0.6626
   26SAPC  C220 3476   3.174   5.051   8.472  0.1459  0.3768  0.3453
   26SAPC  H20R 3477   3.211   5.082   8.572 -0.4486  0.4083  0.5580
   26SAPC  H20S 3478   3.092   5.124   8.456 -1.2433 -1.4409 -0.9347
   26SAPC  H20T 3479   3.254   5.073   8.398 -0.2492 -2.9336 -1.1560
   26SAPC   C33 3480   4.027   5.360   7.241 -0.2472  0.3986 -0.4265
   26SAPC   H3X 3481   4.107   5.430   7.210 -0.1106 -0.1456 -1.3130
   26SAPC   H3Y 3482   4.074   5.261   7.226 -0.9581  0.0066 -0.0984
   26SAPC   C34 3483   4.001   5.389   7.387 -0.0036  0.0135  0.4325
   26SAPC   H4X 3484   3.977   5.498   7.388 -1.6320 -0.3338 -0.0297
   26SAPC   H4Y 3485   4.091   5.365   7.448 -0.3451  1.8854  1.7267
   26SAPC   C35 3486   3.885   5.311   7.455  0.0065  0.1917  0.2345
   26SAPC   H5X 3487   3.911   5.204   7.444 -3.0893 -0.3712 -2.3236
   26SAPC   H5Y 3488   3.792   5.333   7.398  1.4074  1.5055 -1.5930
   26SAPC   C36 3489   3.855   5.342   7.602 -0.1649  0.5178 -0.5265
   26SAPC   H6X 3490   3.760   5.300   7.640 -0.1033 -0.0453 -0.9779
   26SAPC   H6Y 3491   3.839   5.451   7.617 -0.5888  0.1791  1.6961
   26SAPC   C37 3492   3.968   5.310   7.707 -0.4796 -0.2751  0.2422
   26SAPC   H7X 3493   4.052   5.382   7.698 -1.0457  0.5229  1.3247
   26SAPC   H7Y 3494   3.988   5.203   7.683  2.0037  0.3556 -0.6238
   26SAPC   C38 3495   3.929   5.320   7.862 -0.5735 -0.0325  0.3435
   26SAPC   H8X 3496   4.015   5.295   7.927  0.4024  0.9423 -0.5594
   26SAPC   H8Y 3497   3.853   5.242   7.883 -1.2785  0.9762  1.5886
   26SAPC   C39 3498   3.886   5.460   7.905 -0.2369 -0.0977  0.2492
   26SAPC   H9X 3499   3.821   5.511   7.831  1.9145 -0.1744 -1.7530
   26SAPC   H9Y 3500   3.973   5.527   7.894 -0.2028 -0.3471 -1.1564
   26SAPC  C310 3501   3.834   5.470   8.057 -0.3232  0.2005  0.2423
   26SAPC  H10X 3502   3.911   5.414   8.115  0.2492  0.5629 -0.1620
   26SAPC  H10Y 3503   3.732   5.427   8.063  0.0040 -0.4780  1.0452
   26SAPC  C311 3504   3.839   5.611   8.111 -0.3898  0.0431  0.2098
   26SAPC  H11X 3505   3.759   5.663   8.054 -0.8639  0.8566  1.5936
   26SAPC  H11Y 3506   3.940   5.654   8.095  0.3263 -1.6213  0.1226
   26SAPC  C312 3507   3.810   5.632   8.265 -0.6677 -0.1410 -0.0140
   26SAPC  H12X 3508   3.706   5.599   8.287 -0.6353 -0.6110 -0.5565
   26SAPC  H12Y 3509   3.825   5.736   8.300 -0.1189 -0.0810 -0.4190
   26SAPC  C313 3510   3.898   5.545   8.354  0.5694 -0.4273 -0.4834
   26SAPC  H13X 3511   4.006   5.566   8.338  1.0442 -1.4474  1.2296
   26SAPC  H13Y 3512   3.882   5.439   8.325  0.7836 -0.9552  1.2497
   26SAPC  C314 3513   3.856   5.566   8.499  0.0739  0.2241 -0.2676
   26SAPC  H14X 3514   3.745   5.557   8.503 -0.1311  2.6005 -0.1804
   26SAPC  H14Y 3515   3.872   5.671   8.531 -1.3301  0.6171 -0.8130
   26SAPC  C315 3516   3.909   5.473   8.603  0.0597 -0.4058 -0.0986
   26SAPC  H15X 3517   3.900   5.520   8.704  2.1920  0.6757 -0.3877
   26SAPC  H15Y 3518   4.013   5.444   8.576  0.8568  1.5042  0.8004
   26SAPC  C316 3519   3.830   5.345   8.616 -0.6667 -0.4418  1.3476
   26SAPC  H16X 3520   3.837   5.298   8.515  0.5559  1.4452  0.5241
   26SAPC  H16Y 3521   3.725   5.379   8.628 -0.8786 -0.0368 -1.3145
   26SAPC  C317 3522   3.884   5.246   8.724 -0.0807  0.5947  0.5814
   26SAPC  H17X 3523   3.886   5.302   8.820  3.4148  0.0387  0.8791
   26SAPC  H17Y 3524   3.989   5.225   8.693  0.3518  1.0820  1.7159
   26SAPC  C318 3525   3.793   5.123   8.740 -0.8327  0.5829  1.0184
   26SAPC  H18X 3526   3.695   5.160   8.776 -2.7776 -3.7537  0.4361
   26SAPC  H18Y 3527   3.845   5.051   8.807  2.8856  1.7960 -0.4072
   26SAPC  H18Z 3528   3.766   5.067   8.648  1.1616  0.0966  0.7180
   27SAPC     N 3529   1.142   6.135   6.607 -0.1007 -0.6607 -0.2830
   27SAPC   C12 3530   1.141   5.986   6.575  0.4114  0.2298 -0.4950
   27SAPC  H12A 3531   1.189   5.963   6.482  3.0135 -2.3940  1.3963
   27SAPC  H12B 3532   1.041   5.956   6.549  0.9579 -2.1531 -0.0020
   27SAPC   C13 3533   1.104   6.201   6.481  0.8228  0.4569 -0.0006
   27SAPC  H13A 3534   1.079   6.305   6.488 -2.5215 -0.3154  0.7223
   27SAPC  H13B 3535   1.186   6.196   6.411  2.3057  0.8309  1.6680
   27SAPC  H13C 3536   1.015   6.151   6.446 -0.0251 -1.5018  4.6379
   27SAPC   C14 3537   1.042   6.162   6.710  0.2850 -0.0076 -0.2317
   27SAPC  H14A 3538   1.024   6.267   6.729 -0.2464  0.1262 -1.3894
   27SAPC  H14B 3539   0.949   6.118   6.677 -0.3442  2.3771 -1.7964
   27SAPC  H14C 3540   1.054   6.110   6.804  0.2817 -0.9597 -0.7514
   27SAPC   C15 3541   1.269   6.191   6.657 -0.3478 -0.2890  0.0876
   27SAPC  H15A 3542   1.303   6.130   6.740 -0.3217 -1.1831 -0.5688
   27SAPC  H15B 3543   1.345   6.191   6.581 -0.0989  1.2434  0.3126
   27SAPC  H15C 3544   1.259   6.293   6.691  1.0250 -0.7937  2.1338
   27SAPC   C11 3545   1.188   5.886   6.690  0.4741  0.3399  0.3826
   27SAPC  H11A 3546   1.175   5.782   6.651  1.1643  0.5461 -0.3956
   27SAPC  H11B 3547   1.116   5.891   6.775 -0.0615 -1.3826  0.0630
   27SAPC     P 3548   1.451   5.848   6.670  0.3197  0.1643 -0.0692
   27SAPC   O13 3549   1.439   5.822   6.521 -0.5723  0.0612 -0.0767
   27SAPC   O14 3550   1.555   5.941   6.715 -0.6488 -0.0703  0.3578
   27SAPC   O12 3551   1.318   5.906   6.736  0.2352 -0.1558  0.0067
   27SAPC   O11 3552   1.469   5.705   6.736 -0.1738  0.0774 -0.1509
   27SAPC    C1 3553   1.394   5.658   6.851 -0.0020  0.5800  0.0412
   27SAPC    HA 3554   1.328   5.735   6.896  0.6104 -0.6252  3.1495
   27SAPC    HB 3555   1.334   5.569   6.822 -0.4631  0.7026  0.6117
   27SAPC    C2 3556   1.494   5.601   6.957  0.5702  0.2745 -0.5683
   27SAPC    HS 3557   1.436   5.546   7.034 -0.5257  1.6781 -0.3865
   27SAPC   O21 3558   1.565   5.715   7.004  0.6870  0.4432  0.1419
   27SAPC   C21 3559   1.546   5.740   7.133  0.5810 -0.5021  0.3375
   27SAPC   O22 3560   1.453   5.701   7.202 -0.1812 -0.5069 -1.0794
   27SAPC   C22 3561   1.652   5.840   7.176 -0.1389 -0.4242 -0.4191
   27SAPC   H2R 3562   1.750   5.812   7.131  0.7435  1.6942  0.1461
   27SAPC   H2S 3563   1.612   5.935   7.136  1.5061  0.0061 -1.1000
   27SAPC    C3 3564   1.597   5.506   6.891  0.2128 -0.2572 -0.2846
   27SAPC    HX 3565   1.661   5.563   6.820  0.8954  0.2614  0.7175
   27SAPC    HY 3566   1.548   5.424   6.835  2.8854 -1.3341 -1.1419
   27SAPC   O31 3567   1.680   5.439   6.989  0.0079  0.2231  0.2500
   27SAPC   C31 3568   1.811   5.473   6.999  0.9963  0.4991 -0.4376
   27SAPC   O32 3569   1.865   5.540   6.915 -0.0571 -0.0407  0.0741
   27SAPC   C32 3570   1.880   5.415   7.124  1.3050  0.2581  0.0200
   27SAPC   H2X 3571   1.888   5.304   7.129  2.1921  0.3721  1.3350
   27SAPC   H2Y 3572   1.814   5.420   7.213 -1.1851 -2.3339 -1.6023
   27SAPC   C23 3573   1.663   5.849   7.333 -0.3543 -0.2406  0.5588
   27SAPC   H3R 3574   1.565   5.880   7.374 -0.7292 -0.8968  0.1632
   27SAPC   H3S 3575   1.739   5.924   7.364  0.4002 -0.5887 -0.4263
   27SAPC   C24 3576   1.711   5.714   7.400  0.8663 -0.5722 -0.3556
   27SAPC   H4R 3577   1.804   5.733   7.458  0.6532 -0.9563  0.1105
   27SAPC   H4S 3578   1.755   5.650   7.320 -2.8090  0.6894 -3.5638
   27SAPC   C25 3579   1.611   5.641   7.489 -0.8432  0.5106  0.2410
   27SAPC   H5R 3580   1.533   5.583   7.437 -0.9223 -0.0640  0.9932
   27SAPC   C26 3581   1.600   5.656   7.623 -1.0557  0.0095  0.4335
   27SAPC   H6R 3582   1.534   5.584   7.674 -2.2621  0.9868  0.3076
   27SAPC   C27 3583   1.696   5.738   7.705  0.4172 -0.7143  0.0473
   27SAPC   H7R 3584   1.735   5.825   7.647  0.5413 -0.6012  0.2986
   27SAPC   H7S 3585   1.783   5.674   7.729  1.2504  0.0120 -0.9537
   27SAPC   C28 3586   1.640   5.816   7.823 -0.1391 -0.7054 -0.3310
   27SAPC   H8R 3587   1.582   5.905   7.794  1.1601  0.2169 -0.1557
   27SAPC   C29 3588   1.637   5.772   7.946 -1.6067  0.5473  0.5768
   27SAPC   H9R 3589   1.592   5.833   8.026 -0.9734 -0.6633  1.8832
   27SAPC  C210 3590   1.698   5.646   8.001 -0.3825  0.8671 -0.2258
   27SAPC  H10R 3591   1.752   5.667   8.095  2.6228  1.0460 -1.9304
   27SAPC  H10S 3592   1.775   5.614   7.927 -0.8331 -0.6018 -0.0670
   27SAPC  C211 3593   1.575   5.555   8.016  0.0343  0.4139 -0.4576
   27SAPC  H11R 3594   1.521   5.537   7.922  0.1328 -0.9472 -0.2681
   27SAPC  C212 3595   1.524   5.498   8.128  0.3803  0.0917 -0.2503
   27SAPC  H12R 3596   1.442   5.425   8.128 -0.2990  0.8134  1.3654
   27SAPC  C213 3597   1.595   5.510   8.263 -0.0960  0.0653 -0.3483
   27SAPC  H13R 3598   1.703   5.497   8.240 -0.5155  0.3967 -2.6275
   27SAPC  H13S 3599   1.568   5.420   8.321  0.1676 -0.5214 -1.1301
   27SAPC  C214 3600   1.577   5.630   8.357 -0.2538  0.4577 -1.1704
   27SAPC  H14R 3601   1.487   5.689   8.336 -1.9863 -0.8716  2.0522
   27SAPC  C215 3602   1.656   5.664   8.463 -0.0732 -0.4009  0.1512
   27SAPC  H15R 3603   1.632   5.747   8.530 -2.7955 -0.6453 -0.4306
   27SAPC  C216 3604   1.778   5.591   8.509 -0.3542 -0.2240 -0.2631
   27SAPC  H16R 3605   1.864   5.648   8.469  1.5056 -2.3833  0.5498
   27SAPC  H16S 3606   1.778   5.494   8.455 -1.4467  0.5818 -1.7098
   27SAPC  C217 3607   1.781   5.563   8.657  0.0462  0.3777  0.1424
   27SAPC  H17R 3608   1.782   5.652   8.724 -0.7879 -1.2811  2.4327
   27SAPC  H17S 3609   1.869   5.498   8.673  0.4329  0.4410 -1.6612
   27SAPC  C218 3610   1.664   5.477   8.713 -0.7164 -0.1718 -0.1391
   27SAPC  H18R 3611   1.618   5.428   8.625  0.8160 -0.0294 -1.0293
   27SAPC  H18S 3612   1.603   5.546   8.775 -0.7093 -2.3383  2.4100
   27SAPC  C219 3613   1.709   5.367   8.806 -0.0654  0.5449 -0.2309
   27SAPC  H19R 3614   1.764   5.294   8.744  0.0973 -0.9025  1.5849
   27SAPC  H19S 3615   1.615   5.317   8.840 -0.9927  2.0647 -0.4710
   27SAPC  C220 3616   1.791   5.412   8.921 -0.2813 -0.1440  0.4880
   27SAPC  H20R 3617   1.873   5.478   8.887 -2.5899  2.0674 -0.9641
   27SAPC  H20S 3618   1.821   5.320   8.977  0.3241 -0.0653  0.2883
   27SAPC  H20T 3619   1.732   5.466   8.998 -2.2853  0.1051 -1.1847
   27SAPC   C33 3620   2.012   5.481   7.143  0.8383  0.9994 -0.2947
   27SAPC   H3X 3621   1.997   5.591   7.136 -0.0829  0.8317 -1.0780
   27SAPC   H3Y 3622   2.072   5.454   7.053  0.8176  2.4061 -0.7412
   27SAPC   C34 3623   2.075   5.426   7.276  0.1258  0.2909  0.0698
   27SAPC   H4X 3624   2.178   5.467   7.276  0.9747 -1.6948 -1.7515
   27SAPC   H4Y 3625   2.096   5.317   7.265 -1.1973 -0.0532  0.9090
   27SAPC   C35 3626   2.011   5.456   7.414 -0.3672  0.5420 -0.0911
   27SAPC   H5X 3627   1.919   5.394   7.412  0.0120 -0.0050 -1.8056
   27SAPC   H5Y 3628   1.987   5.563   7.426 -2.6908 -0.1064  1.4507
   27SAPC   C36 3629   2.089   5.418   7.539 -0.4884  0.1596  0.4913
   27SAPC   H6X 3630   2.183   5.477   7.552 -0.9176  0.9502  0.0064
   27SAPC   H6Y 3631   2.127   5.316   7.515  1.8808  0.8524  1.1738
   27SAPC   C37 3632   2.010   5.442   7.665 -0.0795  0.2508 -0.1086
   27SAPC   H7X 3633   1.914   5.386   7.662 -1.0466  1.9195 -3.0980
   27SAPC   H7Y 3634   1.985   5.551   7.661  0.6785  0.3985 -1.3408
   27SAPC   C38 3635   2.078   5.405   7.797 -0.2297 -0.9172 -0.1658
   27SAPC   H8X 3636   2.021   5.434   7.888 -1.9931 -3.2489 -0.4905
   27SAPC   H8Y 3637   2.169   5.469   7.796  0.2342 -1.5416  0.7355
   27SAPC   C39 3638   2.100   5.250   7.808  0.4948 -0.0866 -0.1246
   27SAPC   H9X 3639   2.169   5.217   7.728 -0.5723 -0.2306 -0.9930
   27SAPC   H9Y 3640   2.007   5.192   7.786  1.4098 -1.4651 -0.4458
   27SAPC  C310 3641   2.156   5.192   7.937 -0.1808  0.0191 -0.0387
   27SAPC  H10X 3642   2.107   5.094   7.957  0.2664 -0.1406  0.2795
   27SAPC  H10Y 3643   2.118   5.251   8.024  2.3887  0.9342  0.5057
   27SAPC  C311 3644   2.307   5.188   7.938 -0.6836 -0.2014 -0.0795
   27SAPC  H11X 3645   2.349   5.290   7.926 -1.1638  0.1105  0.8915
   27SAPC  H11Y 3646   2.340   5.126   7.852  0.3869 -0.8477  0.7889
   27SAPC  C312 3647   2.359   5.119   8.059  1.0068  0.3384  0.2498
   27SAPC  H12X 3648   2.369   5.010   8.044 -0.9986  0.3681 -1.7613
   27SAPC  H12Y 3649   2.291   5.148   8.142 -0.4002  4.0378 -2.0224
   27SAPC  C313 3650   2.499   5.159   8.100  0.2099  0.7913 -0.0568
   27SAPC  H13X 3651   2.500   5.269   8.121  0.2423  0.6733  0.5697
   27SAPC  H13Y 3652   2.573   5.140   8.020  0.5740  2.0528 -0.0387
   27SAPC  C314 3653   2.551   5.084   8.226  0.2692 -0.0602 -0.9195
   27SAPC  H14X 3654   2.605   4.993   8.194  1.5910 -0.0978  1.3249
   27SAPC  H14Y 3655   2.465   5.048   8.287  0.3253  0.2615 -0.6461
   27SAPC  C315 3656   2.641   5.173   8.323 -0.2897  1.0547  0.3633
   27SAPC  H15X 3657   2.569   5.225   8.391 -1.2315  1.2044 -0.7398
   27SAPC  H15Y 3658   2.697   5.235   8.249  1.6131 -2.4959 -1.2647
   27SAPC  C316 3659   2.751   5.096   8.399 -0.1662 -0.3976 -0.0543
   27SAPC  H16X 3660   2.820   5.169   8.447 -1.1383  0.1701  0.4936
   27SAPC  H16Y 3661   2.814   5.048   8.321 -0.9270  2.2517 -2.3896
   27SAPC  C317 3662   2.713   4.998   8.507  0.5289  0.2539  0.3267
   27SAPC  H17X 3663   2.796   4.967   8.573  1.4614  0.9072 -0.5143
   27SAPC  H17Y 3664   2.660   4.915   8.456 -2.4894  1.3744  1.5377
   27SAPC  C318 3665   2.611   5.069   8.605 -0.1259  0.5008 -0.4217
   27SAPC  H18X 3666   2.659   5.150   8.665 -4.7152  2.7509  0.4969
   27SAPC  H18Y 3667   2.575   4.994   8.678 -1.3298 -1.8169 -3.3047
   27SAPC  H18Z 3668   2.524   5.115   8.553 -1.0881 -0.7502  0.0705
   28SAPC     N 3669   0.681   3.336   6.125  0.4084  0.0022 -0.1350
   28SAPC   C12 3670   0.753   3.262   6.243 -0.2557  1.1163 -0.0090
   28SAPC  H12A 3671   0.861   3.273   6.237 -0.0954  0.7867  1.9569
   28SAPC  H12B 3672   0.734   3.159   6.217 -0.2223  1.0983  0.0379
   28SAPC   C13 3673   0.761   3.299   6.000  0.1247 -0.1495  0.6708
   28SAPC  H13A 3674   0.725   3.353   5.914  2.9252  1.1074  0.2446
   28SAPC  H13B 3675   0.867   3.319   6.008 -0.0579  1.8574 -1.2902
   28SAPC  H13C 3676   0.744   3.195   5.980  1.0743  0.0891 -1.5345
   28SAPC   C14 3677   0.535   3.300   6.102  0.0974 -0.3004  0.0652
   28SAPC  H14A 3678   0.524   3.192   6.095  3.3103 -0.5787 -2.0665
   28SAPC  H14B 3679   0.478   3.305   6.193 -0.4498 -2.2495 -0.1401
   28SAPC  H14C 3680   0.482   3.340   6.017 -1.0218  0.5497  1.1574
   28SAPC   C15 3681   0.690   3.481   6.151  0.8187  0.5879 -0.0001
   28SAPC  H15A 3682   0.633   3.517   6.236  0.6544  0.5046 -0.0764
   28SAPC  H15B 3683   0.791   3.512   6.172  1.0739 -0.4149  0.2819
   28SAPC  H15C 3684   0.665   3.523   6.055 -0.6968 -1.5557 -0.5931
   28SAPC   C11 3685   0.701   3.285   6.378  0.1945  0.1004  0.6039
   28SAPC  H11A 3686   0.707   3.394   6.399 -0.4695  0.2558  0.0015
   28SAPC  H11B 3687   0.777   3.251   6.452  0.2268 -0.4201  0.3333
   28SAPC     P 3688   0.541   3.096   6.467 -0.3685 -0.3871  0.1547
   28SAPC   O13 3689   0.395   3.083   6.503 -0.4026 -0.0753  0.0534
   28SAPC   O14 3690   0.598   2.986   6.385 -0.1387 -0.0105  0.9301
   28SAPC   O12 3691   0.571   3.242   6.404 -0.2702  0.2902  0.2586
   28SAPC   O11 3692   0.623   3.103   6.601  0.5191  0.2559  0.1896
   28SAPC    C1 3693   0.745   3.025   6.617 -0.4258 -0.2308 -0.0060
   28SAPC    HA 3694   0.810   3.017   6.527 -0.3676 -3.7654  0.2936
   28SAPC    HB 3695   0.803   3.074   6.698  0.6748 -0.2988 -0.7416
   28SAPC    C2 3696   0.712   2.882   6.655  0.0518 -0.2887 -0.3902
   28SAPC    HS 3697   0.746   2.831   6.562 -0.3319 -1.7756  0.2720
   28SAPC   O21 3698   0.569   2.863   6.679  0.0623  0.1085 -0.2461
   28SAPC   C21 3699   0.519   2.752   6.628  0.3666 -0.4351 -1.1931
   28SAPC   O22 3700   0.577   2.678   6.554  0.6752 -0.3493  0.3851
   28SAPC   C22 3701   0.379   2.732   6.686  0.0285 -0.5751 -0.2452
   28SAPC   H2R 3702   0.396   2.749   6.795  0.3146  0.9696 -0.5260
   28SAPC   H2S 3703   0.304   2.807   6.655 -0.0849 -1.2505 -1.6410
   28SAPC    C3 3704   0.797   2.826   6.773  0.9876  0.4207 -0.1496
   28SAPC    HX 3705   0.772   2.908   6.844  0.0968  0.9794 -1.0973
   28SAPC    HY 3706   0.906   2.839   6.762  1.1593 -0.4241  0.5588
   28SAPC   O31 3707   0.747   2.703   6.827 -0.1054  0.0825  0.1529
   28SAPC   C31 3708   0.812   2.597   6.776  1.2121  0.1044  0.0215
   28SAPC   O32 3709   0.898   2.594   6.696 -0.0625  0.4885  0.4848
   28SAPC   C32 3710   0.744   2.471   6.817  0.5058  0.1978 -0.2811
   28SAPC   H2X 3711   0.784   2.383   6.763  1.8483  0.2535  0.5982
   28SAPC   H2Y 3712   0.638   2.476   6.784  0.1379  0.9130  0.9542
   28SAPC   C23 3713   0.326   2.596   6.653  0.9725  0.4414 -0.7013
   28SAPC   H3R 3714   0.400   2.514   6.661  1.1815  0.7669  0.8733
   28SAPC   H3S 3715   0.298   2.602   6.546 -0.5658 -4.3484 -0.7128
   28SAPC   C24 3716   0.198   2.545   6.734 -0.0057 -0.4323  0.8899
   28SAPC   H4R 3717   0.114   2.614   6.713  0.6167 -0.1091 -0.6479
   28SAPC   H4S 3718   0.163   2.446   6.697 -1.2620  0.6578 -0.9428
   28SAPC   C25 3719   0.227   2.543   6.880 -0.4185 -0.6759 -0.2762
   28SAPC   H5R 3720   0.198   2.635   6.934 -0.5713 -1.7093  1.4311
   28SAPC   C26 3721   0.284   2.445   6.953 -0.1631 -0.9527  0.9006
   28SAPC   H6R 3722   0.293   2.461   7.062 -3.5749  1.6059  0.8815
   28SAPC   C27 3723   0.334   2.316   6.898 -0.0992  0.1862  0.7624
   28SAPC   H7R 3724   0.443   2.317   6.878 -0.1062  2.2824  0.6994
   28SAPC   H7S 3725   0.289   2.306   6.797 -0.7632 -0.5214  1.1230
   28SAPC   C28 3726   0.298   2.191   6.970 -0.7893  0.4816  1.1752
   28SAPC   H8R 3727   0.206   2.137   6.943 -1.4173  1.9572  0.3377
   28SAPC   C29 3728   0.357   2.147   7.082  0.5341  0.2181 -0.3036
   28SAPC   H9R 3729   0.318   2.055   7.129 -2.7991  1.4871 -0.4325
   28SAPC  C210 3730   0.465   2.212   7.159 -0.4829 -0.5747  0.0499
   28SAPC  H10R 3731   0.505   2.296   7.098  0.5424 -1.6682 -0.8079
   28SAPC  H10S 3732   0.552   2.142   7.167 -0.8156 -0.9282  0.5811
   28SAPC  C211 3733   0.414   2.248   7.293  0.2234 -0.3293 -0.5620
   28SAPC  H11R 3734   0.370   2.349   7.293 -0.2221 -0.5220 -1.4912
   28SAPC  C212 3735   0.413   2.185   7.411  0.1792 -0.1934  0.8708
   28SAPC  H12R 3736   0.366   2.243   7.491  0.0107  0.5910  0.2092
   28SAPC  C213 3737   0.462   2.043   7.437 -0.2422 -0.4621 -0.1633
   28SAPC  H13R 3738   0.563   2.037   7.484 -0.4402 -1.7355  0.1186
   28SAPC  H13S 3739   0.475   1.991   7.340 -2.2660 -3.2004  0.9781
   28SAPC  C214 3740   0.379   1.960   7.535 -0.1350  0.7516 -0.5391
   28SAPC  H14R 3741   0.314   1.887   7.483  0.2579  0.8574 -1.1927
   28SAPC  C215 3742   0.377   1.964   7.667  0.5323 -0.7257 -0.1681
   28SAPC  H15R 3743   0.315   1.895   7.726 -0.2004  0.4934  0.5207
   28SAPC  C216 3744   0.460   2.066   7.746  0.2168 -0.7110  1.0757
   28SAPC  H16R 3745   0.402   2.129   7.816  1.9858  3.5412 -1.1169
   28SAPC  H16S 3746   0.519   2.136   7.684  2.0182 -2.4591  0.7668
   28SAPC  C217 3747   0.562   2.009   7.847  0.1802 -0.2350 -0.0761
   28SAPC  H17R 3748   0.628   2.091   7.883  0.2801 -0.7028  0.8206
   28SAPC  H17S 3749   0.633   1.939   7.798  0.1380 -0.4903  0.2255
   28SAPC  C218 3750   0.498   1.948   7.970  0.5483 -0.7054  0.4892
   28SAPC  H18R 3751   0.455   1.846   7.960  0.6774 -0.8661  1.5936
   28SAPC  H18S 3752   0.422   2.025   7.995 -0.0002 -0.9773 -0.2963
   28SAPC  C219 3753   0.592   1.928   8.088  0.0804  0.3350 -0.2887
   28SAPC  H19R 3754   0.523   1.950   8.172 -1.2843  0.3748 -1.3885
   28SAPC  H19S 3755   0.680   1.996   8.085 -0.8854  1.6880  1.2065
   28SAPC  C220 3756   0.654   1.786   8.104 -0.4350  0.2312 -0.1730
   28SAPC  H20R 3757   0.723   1.757   8.022  0.0029  1.2386 -0.1670
   28SAPC  H20S 3758   0.579   1.707   8.127  2.2458 -2.4216 -0.2645
   28SAPC  H20T 3759   0.716   1.792   8.196 -2.4964  3.8974  1.1117
   28SAPC   C33 3760   0.756   2.438   6.966  0.8190  0.4248  0.3063
   28SAPC   H3X 3761   0.854   2.407   7.008  0.0127 -3.1178 -0.2456
   28SAPC   H3Y 3762   0.696   2.348   6.991  2.8309 -0.5915  1.5738
   28SAPC   C34 3763   0.708   2.543   7.064  0.2906 -0.2706 -0.1186
   28SAPC   H4X 3764   0.605   2.576   7.040 -0.1376 -0.4612  1.3787
   28SAPC   H4Y 3765   0.776   2.630   7.051  4.2116 -2.9596  1.3390
   28SAPC   C35 3766   0.710   2.505   7.214  0.0563 -0.5857  0.0013
   28SAPC   H5X 3767   0.812   2.497   7.258 -0.3306  0.3000  1.0789
   28SAPC   H5Y 3768   0.645   2.415   7.222  0.8359 -1.5062 -3.2848
   28SAPC   C36 3769   0.629   2.609   7.291 -0.1265  0.2144 -0.1857
   28SAPC   H6X 3770   0.520   2.602   7.268 -0.1166 -0.5331 -0.0212
   28SAPC   H6Y 3771   0.670   2.708   7.259  1.3822 -0.5626 -0.6722
   28SAPC   C37 3772   0.633   2.583   7.444  0.5087 -0.0165  0.4473
   28SAPC   H7X 3773   0.736   2.569   7.481  0.1139 -1.3666  1.0681
   28SAPC   H7Y 3774   0.587   2.483   7.460  0.3070 -0.0467 -0.2773
   28SAPC   C38 3775   0.559   2.681   7.532 -1.2721  0.7783  0.1489
   28SAPC   H8X 3776   0.454   2.691   7.495 -1.3466 -0.0492  0.1306
   28SAPC   H8Y 3777   0.607   2.781   7.540  0.5418  0.0993 -1.8545
   28SAPC   C39 3778   0.554   2.619   7.674 -0.3152 -0.1264 -0.3038
   28SAPC   H9X 3779   0.522   2.512   7.672  1.6583 -0.7314 -0.3337
   28SAPC   H9Y 3780   0.478   2.683   7.723  0.6590  0.2586  0.7236
   28SAPC  C310 3781   0.696   2.619   7.747  0.0491 -0.1911  0.5174
   28SAPC  H10X 3782   0.756   2.705   7.709  0.6018 -1.4862 -1.6415
   28SAPC  H10Y 3783   0.758   2.535   7.708 -2.7845 -2.3609  0.4962
   28SAPC  C311 3784   0.695   2.616   7.897 -0.4384  0.3035 -0.8301
   28SAPC  H11X 3785   0.603   2.667   7.930 -0.2706  1.0094 -1.4636
   28SAPC  H11Y 3786   0.787   2.668   7.932  0.1995 -1.6151  0.4922
   28SAPC  C312 3787   0.695   2.470   7.944 -0.3207 -0.0297  0.8311
   28SAPC  H12X 3788   0.777   2.415   7.895 -0.4991 -0.9369  1.5436
   28SAPC  H12Y 3789   0.603   2.420   7.906 -0.5627  1.3653 -0.4893
   28SAPC  C313 3790   0.687   2.462   8.094 -0.0141 -0.6542 -0.3442
   28SAPC  H13X 3791   0.601   2.523   8.128  0.9821  0.0591  0.9679
   28SAPC  H13Y 3792   0.782   2.494   8.142 -2.4394  1.8843  2.9814
   28SAPC  C314 3793   0.648   2.316   8.144 -0.1398 -0.3125 -0.2712
   28SAPC  H14X 3794   0.738   2.253   8.126 -0.1750 -0.0629 -1.3461
   28SAPC  H14Y 3795   0.565   2.266   8.090  1.6159 -2.5999 -0.9626
   28SAPC  C315 3796   0.622   2.302   8.297 -0.0375  0.4613  0.1760
   28SAPC  H15X 3797   0.521   2.342   8.319  0.0788 -0.2805  2.1542
   28SAPC  H15Y 3798   0.701   2.362   8.346  0.8512 -0.1864 -0.4493
   28SAPC  C316 3799   0.648   2.165   8.364  0.1649 -0.0842 -0.1913
   28SAPC  H16X 3800   0.747   2.176   8.414 -0.3374  3.6685  0.0660
   28SAPC  H16Y 3801   0.666   2.093   8.281  2.1403 -0.5470  0.5952
   28SAPC  C317 3802   0.539   2.118   8.458  0.1452 -0.1492  0.4996
   28SAPC  H17X 3803   0.441   2.113   8.407 -0.1235  1.3989  0.8204
   28SAPC  H17Y 3804   0.535   2.204   8.529 -0.1946  0.5237 -0.3147
   28SAPC  C318 3805   0.571   1.984   8.526  0.0544 -0.1775  0.3676
   28SAPC  H18X 3806   0.493   1.967   8.603  1.9183 -0.5501  2.2205
   28SAPC  H18Y 3807   0.668   1.990   8.579  1.2396 -3.4038 -1.2611
   28SAPC  H18Z 3808   0.570   1.893   8.462  0.5846 -0.1394  0.3027
   29SAPC     N 3809   2.941   6.473   6.100 -0.3366 -0.2516 -0.1937
   29SAPC   C12 3810   3.070   6.480   6.166  0.1896 -1.2013  0.2115
   29SAPC  H12A 3811   3.093   6.586   6.164  0.2872 -1.2339 -0.4276
   29SAPC  H12B 3812   3.148   6.454   6.096  0.3661  2.0216 -0.8916
   29SAPC   C13 3813   2.836   6.545   6.177  0.2197 -0.4306  0.2763
   29SAPC  H13A 3814   2.742   6.547   6.124 -0.4244 -0.8923  1.3703
   29SAPC  H13B 3815   2.805   6.494   6.267 -0.3982  3.0601  2.1064
   29SAPC  H13C 3816   2.864   6.648   6.188 -0.6670 -0.3914  2.4582
   29SAPC   C14 3817   2.951   6.545   5.968  0.4923 -0.2776 -0.5311
   29SAPC  H14A 3818   3.003   6.487   5.893 -0.6352  0.6390 -2.0456
   29SAPC  H14B 3819   2.855   6.563   5.923  0.4581  0.9603  0.0030
   29SAPC  H14C 3820   3.006   6.636   5.987  1.5463 -0.6857 -1.5704
   29SAPC   C15 3821   2.905   6.332   6.076  0.0928 -0.0841 -0.6013
   29SAPC  H15A 3822   2.799   6.332   6.057  0.1307 -0.4448 -0.8290
   29SAPC  H15B 3823   2.947   6.287   5.987  0.2780 -0.9930 -0.0704
   29SAPC  H15C 3824   2.920   6.277   6.168  2.5821 -0.5937 -1.2791
   29SAPC   C11 3825   3.097   6.412   6.305  0.0929 -0.2017  0.2337
   29SAPC  H11A 3826   3.047   6.460   6.392  1.7194  1.4862  0.2679
   29SAPC  H11B 3827   3.204   6.434   6.326 -0.5421  1.8754  1.4455
   29SAPC     P 3828   3.179   6.169   6.243 -0.1009 -0.0782 -0.2522
   29SAPC   O13 3829   3.106   6.043   6.242 -0.4574  0.6011 -0.0324
   29SAPC   O14 3830   3.236   6.214   6.112 -0.1466 -0.2042 -0.0280
   29SAPC   O12 3831   3.069   6.267   6.297  0.0178 -0.4834 -0.5426
   29SAPC   O11 3832   3.297   6.160   6.344 -0.1573  0.1133  0.4519
   29SAPC    C1 3833   3.275   6.166   6.488 -0.6529 -0.7015 -0.1277
   29SAPC    HA 3834   3.364   6.205   6.543 -0.1469  2.7280 -3.1513
   29SAPC    HB 3835   3.189   6.232   6.513 -0.9640 -0.0554 -2.7907
   29SAPC    C2 3836   3.258   6.032   6.558 -0.2942 -0.0725 -0.5549
   29SAPC    HS 3837   3.292   6.032   6.664  0.9513  0.4817 -0.9477
   29SAPC   O21 3838   3.323   5.928   6.484 -0.0525  0.5270 -0.0182
   29SAPC   C21 3839   3.454   5.944   6.479 -0.5134  0.7115 -0.9209
   29SAPC   O22 3840   3.518   6.020   6.546  0.6175  0.5700 -0.6099
   29SAPC   C22 3841   3.513   5.847   6.382  0.2464 -0.5122  0.0762
   29SAPC   H2R 3842   3.467   5.747   6.399 -3.6728  1.4369  1.4711
   29SAPC   H2S 3843   3.483   5.899   6.288  0.6683  2.1599  1.3747
   29SAPC    C3 3844   3.107   5.989   6.577 -0.2123  0.3752 -0.6282
   29SAPC    HX 3845   3.084   5.887   6.614  2.1357  0.2990  0.7312
   29SAPC    HY 3846   3.064   5.995   6.475  0.6631  2.7226 -0.9001
   29SAPC   O31 3847   3.042   6.090   6.669  0.2067  0.3664  0.4337
   29SAPC   C31 3848   2.939   6.051   6.733 -0.1448 -0.5001 -0.6240
   29SAPC   O32 3849   2.901   5.940   6.737  0.5872 -0.0538  0.5804
   29SAPC   C32 3850   2.882   6.167   6.814  0.3846 -1.0027 -0.1522
   29SAPC   H2X 3851   2.776   6.177   6.783  0.8647 -1.5251 -1.9935
   29SAPC   H2Y 3852   2.925   6.268   6.795 -1.1165 -0.1694  0.7766
   29SAPC   C23 3853   3.663   5.842   6.403 -0.7951  0.7827 -0.0668
   29SAPC   H3R 3854   3.714   5.940   6.391 -0.6467  0.3705 -3.0312
   29SAPC   H3S 3855   3.702   5.788   6.315 -2.0794  0.7036 -0.5977
   29SAPC   C24 3856   3.701   5.741   6.521 -0.2114  0.2652  0.0778
   29SAPC   H4R 3857   3.692   5.645   6.466  0.5525 -0.3687  1.0475
   29SAPC   H4S 3858   3.620   5.754   6.596  1.4022  0.7078  1.7684
   29SAPC   C25 3859   3.838   5.765   6.573 -0.2487  0.3443 -0.5528
   29SAPC   H5R 3860   3.917   5.771   6.496  0.4521  0.7997  0.1906
   29SAPC   C26 3861   3.877   5.791   6.696  0.7347  0.4060 -0.2393
   29SAPC   H6R 3862   3.984   5.796   6.718  0.4520 -0.2435  1.4172
   29SAPC   C27 3863   3.788   5.797   6.822  0.4653 -0.2445 -0.3544
   29SAPC   H7R 3864   3.855   5.798   6.911 -1.2179 -0.1498  0.9439
   29SAPC   H7S 3865   3.718   5.710   6.826 -0.1681  0.1175 -2.8052
   29SAPC   C28 3866   3.695   5.915   6.831 -0.2459  0.1401  0.4306
   29SAPC   H8R 3867   3.655   5.953   6.737 -1.3088  1.4119  1.3788
   29SAPC   C29 3868   3.677   5.986   6.949 -0.6445 -0.3069 -0.1904
   29SAPC   H9R 3869   3.622   6.081   6.938 -0.6948 -0.2128  0.8561
   29SAPC  C210 3870   3.732   5.965   7.084  0.5853  0.1205 -0.0738
   29SAPC  H10R 3871   3.740   6.063   7.135 -0.4221  0.8706 -1.3327
   29SAPC  H10S 3872   3.833   5.920   7.078  0.0738 -1.4659  2.5882
   29SAPC  C211 3873   3.659   5.876   7.181 -0.2590 -0.0093 -0.6586
   29SAPC  H11R 3874   3.589   5.804   7.136 -1.7189 -1.1172  3.1115
   29SAPC  C212 3875   3.680   5.883   7.317 -0.0812  0.0101 -0.7571
   29SAPC  H12R 3876   3.621   5.811   7.376  3.5949 -1.7203  0.9871
   29SAPC  C213 3877   3.776   5.964   7.402  0.0013 -0.4238  0.1154
   29SAPC  H13R 3878   3.720   6.000   7.491  2.9541  1.9354  1.1094
   29SAPC  H13S 3879   3.807   6.055   7.346 -0.7303 -0.0373  0.3400
   29SAPC  C214 3880   3.901   5.897   7.452  0.4701 -0.0061  0.5260
   29SAPC  H14R 3881   3.978   5.903   7.374 -0.2975 -1.1024 -0.3358
   29SAPC  C215 3882   3.912   5.813   7.556  0.5741  0.2498 -0.3584
   29SAPC  H15R 3883   4.014   5.781   7.581  1.2716  1.1984 -1.9154
   29SAPC  C216 3884   3.796   5.781   7.644 -0.0297  0.5255 -0.4385
   29SAPC  H16R 3885   3.820   5.680   7.684  0.8898  0.9838  0.2021
   29SAPC  H16S 3886   3.704   5.765   7.583 -0.0182  0.8278 -0.5360
   29SAPC  C217 3887   3.793   5.885   7.753  0.6450 -0.3967 -0.8121
   29SAPC  H17R 3888   3.695   5.870   7.802  1.0575  0.0236  0.1568
   29SAPC  H17S 3889   3.792   5.986   7.708  0.9493 -0.4514 -0.9433
   29SAPC  C218 3890   3.903   5.889   7.859  0.6735 -0.1382  0.9102
   29SAPC  H18R 3891   4.003   5.886   7.811  1.3924  0.4479  2.3421
   29SAPC  H18S 3892   3.887   5.806   7.930  0.7661 -0.1091  0.9645
   29SAPC  C219 3893   3.899   6.023   7.936  0.6289  0.4947  0.0500
   29SAPC  H19R 3894   3.792   6.039   7.962  0.6433  0.8917 -0.1290
   29SAPC  H19S 3895   3.926   6.099   7.859  0.2790 -0.1436 -0.7010
   29SAPC  C220 3896   3.997   6.038   8.048 -0.0947  1.0347  0.5626
   29SAPC  H20R 3897   3.978   5.953   8.117 -0.9197  0.3308 -0.5227
   29SAPC  H20S 3898   3.973   6.128   8.109  1.3822  0.9892  1.2215
   29SAPC  H20T 3899   4.101   6.056   8.013  0.0105  0.6056  0.6572
   29SAPC   C33 3900   2.866   6.136   6.968  0.1393 -0.4297 -0.6202
   29SAPC   H3X 3901   2.790   6.057   6.985  0.1934 -0.6216 -1.2794
   29SAPC   H3Y 3902   2.834   6.233   7.013 -0.7117 -0.1815 -1.7396
   29SAPC   C34 3903   2.994   6.093   7.043 -0.5606  0.2694  0.9804
   29SAPC   H4X 3904   3.078   6.165   7.039  0.8105 -1.3495 -0.3275
   29SAPC   H4Y 3905   3.019   6.000   6.987 -1.2772  1.3022 -1.1319
   29SAPC   C35 3906   2.980   6.038   7.186 -0.0677 -0.1510  0.6332
   29SAPC   H5X 3907   3.070   5.984   7.222 -1.5119 -0.7808  3.4411
   29SAPC   H5Y 3908   2.903   5.958   7.182 -0.4571  0.2720 -0.5385
   29SAPC   C36 3909   2.966   6.152   7.288 -0.3136  0.9248 -0.0897
   29SAPC   H6X 3910   2.867   6.199   7.265 -0.3795  0.2396 -1.2979
   29SAPC   H6Y 3911   3.043   6.229   7.270  1.6069 -1.0841 -0.6751
   29SAPC   C37 3912   2.962   6.092   7.432  0.1968 -0.0931  0.6203
   29SAPC   H7X 3913   3.042   6.018   7.451 -0.0775 -0.5398  0.0575
   29SAPC   H7Y 3914   2.870   6.032   7.448 -0.5057  0.7067 -0.3946
   29SAPC   C38 3915   2.975   6.191   7.552  0.2219 -0.0805 -1.2027
   29SAPC   H8X 3916   2.899   6.272   7.545 -0.8025 -0.8869  0.1959
   29SAPC   H8Y 3917   3.072   6.244   7.550 -0.6577  1.5838 -0.8163
   29SAPC   C39 3918   2.949   6.127   7.691  0.1269  0.3046  0.4189
   29SAPC   H9X 3919   3.019   6.040   7.697  0.2017  0.2929 -0.5202
   29SAPC   H9Y 3920   2.846   6.085   7.697  0.4130 -0.2630  1.5801
   29SAPC  C310 3921   2.970   6.227   7.805  0.7571 -0.2500 -0.6611
   29SAPC  H10X 3922   2.902   6.315   7.806  1.0421 -0.0265  0.3748
   29SAPC  H10Y 3923   3.074   6.257   7.782  0.3608  1.0786 -0.7648
   29SAPC  C311 3924   2.976   6.152   7.941 -0.1738  0.5655 -0.1838
   29SAPC  H11X 3925   3.056   6.075   7.934 -0.2038  0.4659  0.5216
   29SAPC  H11Y 3926   2.881   6.096   7.958 -0.6882  1.2956 -0.6058
   29SAPC  C312 3927   3.012   6.238   8.059  0.7926 -0.6912 -0.2813
   29SAPC  H12X 3928   2.963   6.338   8.054  0.4472 -0.9129 -1.4764
   29SAPC  H12Y 3929   3.118   6.266   8.043  0.4962 -0.0624 -1.1881
   29SAPC  C313 3930   2.994   6.169   8.197  0.6044  0.3003 -0.3320
   29SAPC  H13X 3931   3.062   6.080   8.201 -0.1937 -0.3809 -1.4171
   29SAPC  H13Y 3932   2.890   6.131   8.208  1.0033 -0.8009 -0.2527
   29SAPC  C314 3933   3.013   6.260   8.323 -0.4240 -0.1102  0.8719
   29SAPC  H14X 3934   2.967   6.356   8.291 -0.5107 -1.0378 -1.8699
   29SAPC  H14Y 3935   3.121   6.277   8.343 -0.5508 -0.1055  1.5891
   29SAPC  C315 3936   2.944   6.207   8.448  0.6613 -0.3661  0.8752
   29SAPC  H15X 3937   2.833   6.200   8.443  0.6895  0.2364 -1.2346
   29SAPC  H15Y 3938   2.972   6.281   8.526  0.6260 -0.9322  1.4251
   29SAPC  C316 3939   3.006   6.074   8.486  0.0471 -0.1755  0.7432
   29SAPC  H16X 3940   3.116   6.088   8.482 -0.0969  1.1650  1.4314
   29SAPC  H16Y 3941   2.978   5.990   8.418 -0.6189 -0.6938  1.6539
   29SAPC  C317 3942   2.952   6.030   8.624  0.4956 -0.6389 -0.5905
   29SAPC  H17X 3943   2.841   6.041   8.626  0.5775  0.2580 -0.5688
   29SAPC  H17Y 3944   2.985   6.111   8.693 -0.5449  0.8146 -1.7498
   29SAPC  C318 3945   3.005   5.900   8.683  0.3007 -0.4680  0.0212
   29SAPC  H18X 3946   3.115   5.897   8.672  0.1769 -0.4672 -1.3130
   29SAPC  H18Y 3947   2.967   5.818   8.618 -2.0726 -0.4924  1.4055
   29SAPC  H18Z 3948   2.958   5.883   8.782  1.9433 -2.0530  0.5461
   30SAPC     N 3949   4.619   0.075   5.861  0.4163 -0.2265  0.0859
   30SAPC   C12 3950   4.685  -0.034   5.945  0.0603  0.6793  0.2191
   30SAPC  H12A 3951   4.792  -0.030   5.932  0.0155  0.8446 -0.0981
   30SAPC  H12B 3952   4.651  -0.131   5.911  1.5502  0.2154  0.0507
   30SAPC   C13 3953   4.471   0.083   5.903 -0.8091 -0.1219 -0.0553
   30SAPC  H13A 3954   4.428   0.151   5.831  0.3211  1.0770  0.3715
   30SAPC  H13B 3955   4.425  -0.012   5.880  0.6857 -0.0377 -3.7601
   30SAPC  H13C 3956   4.470   0.121   6.004  0.4390  0.2938 -0.1864
   30SAPC   C14 3957   4.687   0.205   5.879  0.0236 -0.4350  0.6820
   30SAPC  H14A 3958   4.656   0.282   5.810  1.6780  2.9506  3.5463
   30SAPC  H14B 3959   4.670   0.222   5.984  1.3385 -2.1652  1.2036
   30SAPC  H14C 3960   4.794   0.189   5.876 -0.2403 -2.0736 -0.7007
   30SAPC   C15 3961   4.620   0.033   5.721 -0.6328 -0.8155  0.0256
   30SAPC  H15A 3962   4.583   0.109   5.654  2.1055  0.9746  0.4412
   30SAPC  H15B 3963   4.721   0.010   5.692 -0.5079  0.5708 -0.7050
   30SAPC  H15C 3964   4.561  -0.055   5.705  0.2613 -1.4049 -0.0633
   30SAPC   C11 3965   4.658  -0.031   6.102  0.6911  0.5321  0.2354
   30SAPC  H11A 3966   4.719  -0.113   6.146 -0.0731  0.9118  2.0266
   30SAPC  H11B 3967   4.552  -0.062   6.115  0.5015  0.2842 -1.7811
   30SAPC     P 3968   4.586   0.119   6.303 -0.0887  0.1936 -0.1955
   30SAPC   O13 3969   4.624   0.246   6.372  0.4522  0.1952  0.0893
   30SAPC   O14 3970   4.446   0.098   6.263 -0.5122  0.2666  0.5438
   30SAPC   O12 3971   4.681   0.095   6.171  0.1487 -0.3882 -0.4114
   30SAPC   O11 3972   4.624  -0.003   6.395  0.6266 -0.3268  0.5536
   30SAPC    C1 3973   4.753  -0.022   6.451  0.9867  0.5151 -0.7971
   30SAPC    HA 3974   4.793  -0.113   6.402  0.5869 -0.0345 -0.1073
   30SAPC    HB 3975   4.826   0.055   6.417  1.5243 -0.3404 -1.5872
   30SAPC    C2 3976   4.733  -0.025   6.604  0.2483 -0.1385  0.1781
   30SAPC    HS 3977   4.829  -0.010   6.659 -0.3782  1.5014  0.8446
   30SAPC   O21 3978   4.661  -0.143   6.651  0.2123 -0.3204 -0.2445
   30SAPC   C21 3979   4.722  -0.259   6.632  0.5966  0.4384 -0.3584
   30SAPC   O22 3980   4.831  -0.277   6.584 -0.6650 -0.1061  0.2508
   30SAPC   C22 3981   4.637  -0.379   6.680 -0.1711 -0.8406  0.3467
   30SAPC   H2R 3982   4.668  -0.390   6.787 -0.4874 -0.6694  0.4561
   30SAPC   H2S 3983   4.530  -0.356   6.661  0.7145  1.7475 -1.8140
   30SAPC    C3 3984   4.652   0.096   6.662 -0.0112 -0.4509 -0.0555
   30SAPC    HX 3985   4.552   0.105   6.612  1.3100 -1.6946 -3.0315
   30SAPC    HY 3986   4.706   0.190   6.636  0.3296 -0.0499  2.0392
   30SAPC   O31 3987   4.636   0.096   6.807  0.2682 -0.0469  0.4028
   30SAPC   C31 3988   4.519   0.072   6.854 -0.0057 -0.2113  0.2250
   30SAPC   O32 3989   4.423   0.033   6.787 -0.1079  0.0678  0.0326
   30SAPC   C32 3990   4.513   0.103   7.001 -0.8619  0.4383 -0.7338
   30SAPC   H2X 3991   4.524   0.213   7.008 -1.8878  0.6342 -1.9463
   30SAPC   H2Y 3992   4.601   0.062   7.055 -1.5857  1.0908  0.9632
   30SAPC   C23 3993   4.670  -0.507   6.595  0.1882  0.3847 -0.1385
   30SAPC   H3R 3994   4.780  -0.520   6.604  0.0197 -1.5886 -0.6214
   30SAPC   H3S 3995   4.626  -0.483   6.496 -1.8625 -3.4861 -0.2697
   30SAPC   C24 3996   4.598  -0.624   6.656 -0.7372 -0.6706 -0.4963
   30SAPC   H4R 3997   4.489  -0.607   6.657 -0.7639 -0.9044  0.5613
   30SAPC   H4S 3998   4.622  -0.626   6.765  4.6059 -0.9385 -1.5188
   30SAPC   C25 3999   4.639  -0.756   6.603 -0.3737 -0.0462  0.2502
   30SAPC   H5R 4000   4.620  -0.773   6.496  1.6263  1.2534 -0.3473
   30SAPC   C26 4001   4.692  -0.861   6.664  0.0246  0.4501 -0.1798
   30SAPC   H6R 4002   4.715  -0.952   6.607  0.2077  0.0680  0.5066
   30SAPC   C27 4003   4.714  -0.867   6.813  1.1231 -1.2305 -0.3969
   30SAPC   H7R 4004   4.682  -0.968   6.846 -1.7289 -0.2048  0.1409
   30SAPC   H7S 4005   4.645  -0.797   6.865  1.2847 -1.4257  0.0797
   30SAPC   C28 4006   4.856  -0.838   6.853 -0.5261 -0.8454  0.4027
   30SAPC   H8R 4007   4.934  -0.886   6.791  2.2280  2.7688  0.8833
   30SAPC   C29 4008   4.895  -0.761   6.955 -0.2616  0.5675 -0.0386
   30SAPC   H9R 4009   5.001  -0.730   6.962  0.4328 -1.7002 -0.0533
   30SAPC  C210 4010   4.797  -0.693   7.045 -0.4706 -0.5712 -0.0149
   30SAPC  H10R 4011   4.728  -0.629   6.986  0.7061  0.9229  0.2089
   30SAPC  H10S 4012   4.862  -0.627   7.106  1.0290 -1.6345 -0.4223
   30SAPC  C211 4013   4.709  -0.769   7.142  0.1851  0.4610  0.3355
   30SAPC  H11R 4014   4.625  -0.816   7.090  1.7160  0.7162 -2.4515
   30SAPC  C212 4015   4.728  -0.797   7.278  0.3246 -0.2369  0.7613
   30SAPC  H12R 4016   4.653  -0.856   7.334 -0.4922  1.1101  1.0975
   30SAPC  C213 4017   4.846  -0.755   7.354  0.2361 -0.2030  0.9520
   30SAPC  H13R 4018   4.918  -0.691   7.300 -1.9489  1.8068  0.3384
   30SAPC  H13S 4019   4.908  -0.839   7.392  2.8771  0.3057 -1.9837
   30SAPC  C214 4020   4.794  -0.681   7.475 -0.0408  0.4014  0.5253
   30SAPC  H14R 4021   4.757  -0.581   7.450 -1.4281 -0.2053  0.1317
   30SAPC  C215 4022   4.796  -0.727   7.602  0.2040 -0.9327  0.2430
   30SAPC  H15R 4023   4.752  -0.657   7.676 -1.1869  0.2327 -1.6524
   30SAPC  C216 4024   4.838  -0.861   7.653 -0.5735  0.1382  0.4171
   30SAPC  H16R 4025   4.835  -0.940   7.575 -0.7076 -0.2685  0.8307
   30SAPC  H16S 4026   4.757  -0.898   7.719 -1.8334  0.8429 -0.7218
   30SAPC  C217 4027   4.976  -0.872   7.729 -0.3646  0.1538 -0.2133
   30SAPC  H17R 4028   5.059  -0.824   7.672 -0.9343  0.2772 -0.9392
   30SAPC  H17S 4029   5.012  -0.977   7.729 -0.6240  0.0656 -0.3814
   30SAPC  C218 4030   4.964  -0.819   7.874 -0.4017  0.2444  0.4719
   30SAPC  H18R 4031   4.884  -0.871   7.931  0.5157 -0.8291  0.8106
   30SAPC  H18S 4032   4.933  -0.715   7.855  0.3847  0.6660  1.4316
   30SAPC  C219 4033   5.096  -0.835   7.948 -0.6778  0.6504  0.3995
   30SAPC  H19R 4034   5.182  -0.798   7.888  0.1117  1.1777  1.8274
   30SAPC  H19S 4035   5.124  -0.942   7.957  0.9328  1.1352  1.2914
   30SAPC  C220 4036   5.101  -0.786   8.091  0.5434 -0.4703 -0.4339
   30SAPC  H20R 4037   5.193  -0.814   8.148  2.0458  0.6346 -2.2810
   30SAPC  H20S 4038   5.012  -0.819   8.149 -2.5865  2.4677 -3.3789
   30SAPC  H20T 4039   5.109  -0.675   8.092  0.6863 -0.4757 -1.0266
   30SAPC   C33 4040   4.377   0.073   7.068  0.0177 -0.3791  0.5183
   30SAPC   H3X 4041   4.373  -0.037   7.080  2.2947 -0.4342  1.0110
   30SAPC   H3Y 4042   4.303   0.118   6.998  2.0643  1.6082 -0.4679
   30SAPC   C34 4043   4.357   0.133   7.207 -0.4921 -0.0941 -0.3857
   30SAPC   H4X 4044   4.253   0.109   7.237  0.1847  0.7348  2.7822
   30SAPC   H4Y 4045   4.367   0.244   7.203  0.0551 -0.1219  0.2123
   30SAPC   C35 4046   4.439   0.064   7.306 -1.0414  0.3019 -0.2751
   30SAPC   H5X 4047   4.545   0.084   7.277 -1.0913 -0.0889 -0.7302
   30SAPC   H5Y 4048   4.427  -0.046   7.312 -0.9829  0.2735 -0.6450
   30SAPC   C36 4049   4.432   0.109   7.449  0.3645 -0.1507 -1.1153
   30SAPC   H6X 4050   4.332   0.109   7.498  0.8604  0.6498 -0.0781
   30SAPC   H6Y 4051   4.482   0.208   7.439  2.7697 -1.0094  1.6049
   30SAPC   C37 4052   4.512   0.016   7.551  0.2771  0.4427 -0.1205
   30SAPC   H7X 4053   4.621   0.017   7.529 -0.0873  1.5231 -1.9354
   30SAPC   H7Y 4054   4.477  -0.089   7.560 -0.9241  0.9324  1.1265
   30SAPC   C38 4055   4.488   0.077   7.693  0.1044 -0.4505 -0.7174
   30SAPC   H8X 4056   4.384   0.098   7.725  0.4370  1.2151 -0.6858
   30SAPC   H8Y 4057   4.542   0.174   7.695 -0.9978  0.1825  1.9236
   30SAPC   C39 4058   4.532  -0.025   7.808  0.8791 -0.1330  0.0828
   30SAPC   H9X 4059   4.634   0.013   7.830 -0.2341  2.6273  0.6767
   30SAPC   H9Y 4060   4.545  -0.126   7.763  1.3236  0.6062 -1.4924
   30SAPC  C310 4061   4.442  -0.023   7.936 -0.1304  0.1088 -0.2422
   30SAPC  H10X 4062   4.352  -0.087   7.919  0.1907 -0.1282 -1.0752
   30SAPC  H10Y 4063   4.394   0.077   7.946 -1.4657 -0.4645 -0.7944
   30SAPC  C311 4064   4.501  -0.073   8.070 -0.4526 -0.0561  0.4151
   30SAPC  H11X 4065   4.606  -0.038   8.075 -0.5861  0.6855 -1.6745
   30SAPC  H11Y 4066   4.501  -0.184   8.065  1.3653 -0.0044 -0.8922
   30SAPC  C312 4067   4.426  -0.042   8.196  0.6612  0.5227 -0.1957
   30SAPC  H12X 4068   4.322  -0.082   8.188 -0.2300  2.4617  1.2901
   30SAPC  H12Y 4069   4.412   0.066   8.217 -0.0583  0.1973  1.0261
   30SAPC  C313 4070   4.480  -0.102   8.322 -0.4354  0.4217  0.2365
   30SAPC  H13X 4071   4.589  -0.081   8.328 -0.5020  0.7800  0.2037
   30SAPC  H13Y 4072   4.471  -0.213   8.316 -3.1889  0.6461 -0.5114
   30SAPC  C314 4073   4.414  -0.037   8.442 -0.2320  0.4159 -0.5051
   30SAPC  H14X 4074   4.305  -0.048   8.421 -0.3032 -1.7396  0.7849
   30SAPC  H14Y 4075   4.441   0.070   8.447  0.8643  0.1573 -0.7544
   30SAPC  C315 4076   4.413  -0.116   8.576 -0.5785 -0.0943  0.0642
   30SAPC  H15X 4077   4.511  -0.108   8.628 -0.2315 -0.9969 -0.4369
   30SAPC  H15Y 4078   4.416  -0.223   8.548  0.2126 -0.0146 -0.1788
   30SAPC  C316 4079   4.297  -0.092   8.671 -0.3295 -0.1133 -0.6710
   30SAPC  H16X 4080   4.204  -0.075   8.612 -1.8479 -0.9355  1.4398
   30SAPC  H16Y 4081   4.323  -0.000   8.728  0.7729  0.5857 -2.2306
   30SAPC  C317 4082   4.251  -0.200   8.770  0.3051  0.1321  0.0700
   30SAPC  H17X 4083   4.179  -0.172   8.850  1.0624  2.1657  0.0538
   30SAPC  H17Y 4084   4.344  -0.225   8.826 -0.4374  0.6488  1.5570
   30SAPC  C318 4085   4.204  -0.334   8.707 -0.7394  0.4726  0.4007
   30SAPC  H18X 4086   4.288  -0.371   8.644 -1.3135 -1.1989  0.5903
   30SAPC  H18Y 4087   4.114  -0.324   8.643  0.6215  2.5005 -1.2685
   30SAPC  H18Z 4088   4.178  -0.394   8.797  0.5994  1.9937  1.8307
   31SAPC     N 4089   5.377   0.143   6.167 -0.6086  0.0580  0.2572
   31SAPC   C12 4090   5.400   0.172   6.318 -0.9957 -0.0040  0.4708
   31SAPC  H12A 4091   5.313   0.147   6.377 -1.6948 -1.9658 -1.3312
   31SAPC  H12B 4092   5.402   0.280   6.331  0.6526  0.2447 -1.5073
   31SAPC   C13 4093   5.247   0.203   6.132  0.3223  0.1818  0.7798
   31SAPC  H13A 4094   5.215   0.182   6.031  0.4032 -0.1045  0.8112
   31SAPC  H13B 4095   5.167   0.168   6.196  1.2590 -1.9352  0.8383
   31SAPC  H13C 4096   5.251   0.310   6.145  1.3531  0.1779  0.5122
   31SAPC   C14 4097   5.479   0.204   6.077  0.0226 -0.3202  0.1290
   31SAPC  H14A 4098   5.451   0.175   5.977  0.3878 -2.5230  0.6401
   31SAPC  H14B 4099   5.452   0.308   6.091  2.2490  0.0993  1.7768
   31SAPC  H14C 4100   5.582   0.188   6.106  0.9210  0.7754 -2.3292
   31SAPC   C15 4101   5.375  -0.003   6.141  0.2752  0.2885  0.1242
   31SAPC  H15A 4102   5.291  -0.056   6.181  2.2365 -1.0196  2.6364
   31SAPC  H15B 4103   5.384  -0.026   6.035  1.5707  1.0049  0.0549
   31SAPC  H15C 4104   5.464  -0.043   6.188  0.4249 -0.3303 -0.6737
   31SAPC   C11 4105   5.532   0.115   6.377  1.4706  0.2282 -0.2015
   31SAPC  H11A 4106   5.540   0.007   6.351 -1.3501 -0.0791  0.0989
   31SAPC  H11B 4107   5.538   0.132   6.487  2.4379  0.7347 -0.3199
   31SAPC     P 4108   5.671   0.341   6.360  0.3239 -0.1079  0.3080
   31SAPC   O13 4109   5.780   0.381   6.267 -0.1459 -0.3826 -0.0352
   31SAPC   O14 4110   5.554   0.427   6.349  0.0583 -0.0719 -0.3763
   31SAPC   O12 4111   5.637   0.184   6.321  0.1272  0.1389  0.2507
   31SAPC   O11 4112   5.721   0.357   6.507 -0.2617  0.3577 -0.4540
   31SAPC    C1 4113   5.851   0.316   6.555 -0.6331  0.1512  0.5320
   31SAPC    HA 4114   5.905   0.260   6.477 -1.0111  0.4254  0.0654
   31SAPC    HB 4115   5.923   0.400   6.568 -2.1989  1.7559 -0.7701
   31SAPC    C2 4116   5.849   0.221   6.676 -0.8057 -0.4977 -0.9234
   31SAPC    HS 4117   5.949   0.210   6.723 -1.5949  0.7514  1.1209
   31SAPC   O21 4118   5.803   0.086   6.630 -0.4307 -0.2175 -0.5100
   31SAPC   C21 4119   5.904   0.006   6.593  0.5028 -0.9004 -0.9653
   31SAPC   O22 4120   6.020   0.036   6.586  0.3307  0.2869 -0.2544
   31SAPC   C22 4121   5.846  -0.126   6.544  0.0796  0.1027 -0.3493
   31SAPC   H2R 4122   5.829  -0.187   6.636  1.2896 -0.0399 -0.2122
   31SAPC   H2S 4123   5.755  -0.116   6.481  0.6614 -0.9437 -1.3456
   31SAPC    C3 4124   5.749   0.267   6.785 -0.4443 -0.3733  0.1586
   31SAPC    HX 4125   5.742   0.180   6.854  0.4072 -0.5840 -0.0099
   31SAPC    HY 4126   5.652   0.288   6.737 -0.5483 -0.8983  0.1319
   31SAPC   O31 4127   5.797   0.394   6.843 -0.1257  0.8793  0.0672
   31SAPC   C31 4128   5.854   0.384   6.965 -0.0522  0.3063 -0.5964
   31SAPC   O32 4129   5.858   0.282   7.030 -0.1132 -0.1932 -0.0110
   31SAPC   C32 4130   5.895   0.525   7.005  0.5541  0.0195 -0.7741
   31SAPC   H2X 4131   5.803   0.589   7.005  1.8563  1.9536 -3.0409
   31SAPC   H2Y 4132   5.967   0.566   6.932 -0.0142  1.5758 -0.4881
   31SAPC   C23 4133   5.960  -0.204   6.468 -0.1331  0.7133  0.3658
   31SAPC   H3R 4134   6.012  -0.142   6.392 -1.4676 -2.3089 -3.1806
   31SAPC   H3S 4135   5.916  -0.278   6.398  1.8199  0.1690 -0.2976
   31SAPC   C24 4136   6.052  -0.280   6.573  0.4038 -0.1610 -0.9026
   31SAPC   H4R 4137   6.078  -0.207   6.653  0.7951 -0.1921 -0.9986
   31SAPC   H4S 4138   6.146  -0.323   6.531 -0.2591 -0.0715 -2.5148
   31SAPC   C25 4139   5.975  -0.401   6.616 -0.4247 -0.3344  0.5753
   31SAPC   H5R 4140   5.937  -0.456   6.529  0.3469 -0.3330  0.2317
   31SAPC   C26 4141   5.946  -0.430   6.745  1.3676  0.1476 -0.0352
   31SAPC   H6R 4142   5.879  -0.515   6.761 -0.5079  1.0129 -2.7841
   31SAPC   C27 4143   6.000  -0.350   6.866  0.5737 -0.2874  0.1299
   31SAPC   H7R 4144   6.110  -0.342   6.866  0.4843  1.1524 -0.9088
   31SAPC   H7S 4145   5.990  -0.425   6.947  1.9508  1.9254  2.4264
   31SAPC   C28 4146   5.920  -0.228   6.920  0.0189  0.7040 -0.1589
   31SAPC   H8R 4147   5.960  -0.131   6.888 -3.1199  2.3850  0.7840
   31SAPC   C29 4148   5.818  -0.236   7.004  0.1549  0.0714 -0.2964
   31SAPC   H9R 4149   5.771  -0.142   7.034 -2.2435 -1.2493  0.1995
   31SAPC  C210 4150   5.751  -0.358   7.073 -0.6166 -1.2224 -0.0545
   31SAPC  H10R 4151   5.783  -0.356   7.179 -0.4595 -2.1374 -0.0801
   31SAPC  H10S 4152   5.788  -0.456   7.035 -1.8257 -1.5441 -0.4352
   31SAPC  C211 4153   5.602  -0.347   7.074  0.6370 -0.2558 -0.2113
   31SAPC  H11R 4154   5.554  -0.330   6.977 -1.3713  0.3064  0.8529
   31SAPC  C212 4155   5.515  -0.343   7.176 -0.5440  0.0587  1.1462
   31SAPC  H12R 4156   5.407  -0.343   7.151  0.0170  0.2008 -1.4038
   31SAPC  C213 4157   5.554  -0.370   7.319  0.4642 -0.1884 -0.1444
   31SAPC  H13R 4158   5.502  -0.290   7.376  1.7228 -0.0600  0.8683
   31SAPC  H13S 4159   5.664  -0.358   7.332  0.3472  1.1586 -0.4021
   31SAPC  C214 4160   5.522  -0.508   7.369 -0.3550  0.2173 -0.5775
   31SAPC  H14R 4161   5.418  -0.540   7.353 -0.6420  0.8220  0.0765
   31SAPC  C215 4162   5.606  -0.602   7.415  0.7525 -0.1897 -0.7896
   31SAPC  H15R 4163   5.563  -0.700   7.442  1.1779 -0.4902 -1.1811
   31SAPC  C216 4164   5.755  -0.592   7.436 -0.1753  0.3549 -0.4542
   31SAPC  H16R 4165   5.773  -0.601   7.546 -0.9024  0.6164 -0.3095
   31SAPC  H16S 4166   5.794  -0.492   7.406  2.5488 -0.2316  0.9354
   31SAPC  C217 4167   5.835  -0.708   7.364  0.5410  0.1641 -0.3951
   31SAPC  H17R 4168   5.799  -0.810   7.389 -1.0797  0.9187  0.4133
   31SAPC  H17S 4169   5.943  -0.704   7.390  0.5111 -1.8465  0.1004
   31SAPC  C218 4170   5.819  -0.691   7.214  0.2270  0.1973  0.2608
   31SAPC  H18R 4171   5.862  -0.595   7.178 -0.3861 -0.0828 -1.2734
   31SAPC  H18S 4172   5.710  -0.683   7.199 -0.0720 -1.7842  1.2177
   31SAPC  C219 4173   5.878  -0.809   7.130 -0.6851 -0.3185  0.5771
   31SAPC  H19R 4174   5.818  -0.901   7.141 -0.4784 -0.2050  2.9899
   31SAPC  H19S 4175   5.979  -0.836   7.167 -1.0896 -0.9528  1.2308
   31SAPC  C220 4176   5.868  -0.775   6.984 -0.1959 -0.0691 -0.1287
   31SAPC  H20R 4177   5.888  -0.866   6.924  2.4345  0.7169 -0.5138
   31SAPC  H20S 4178   5.953  -0.707   6.961 -0.9073  0.8980  0.0561
   31SAPC  H20T 4179   5.774  -0.719   6.967  0.5824  1.8898  1.7854
   31SAPC   C33 4180   5.954   0.540   7.154  0.5136  0.7336  0.7464
   31SAPC   H3X 4181   6.065   0.548   7.143  0.4405  2.0219  0.8526
   31SAPC   H3Y 4182   5.932   0.453   7.220  2.0106  0.1856  0.5399
   31SAPC   C34 4183   5.923   0.676   7.223 -0.1733 -0.4985  0.1023
   31SAPC   H4X 4184   5.815   0.699   7.234 -1.0426 -2.0853 -3.9519
   31SAPC   H4Y 4185   5.949   0.750   7.144 -1.3424 -2.5061 -2.2331
   31SAPC   C35 4186   6.006   0.701   7.348 -0.9208 -0.4673 -0.5456
   31SAPC   H5X 4187   6.016   0.809   7.374 -2.2208 -0.3976 -0.2539
   31SAPC   H5Y 4188   6.106   0.668   7.316 -0.5758  0.5040 -0.4965
   31SAPC   C36 4189   5.994   0.614   7.477  0.5276 -0.4226  0.0044
   31SAPC   H6X 4190   6.066   0.648   7.555  1.5799  1.5537 -1.7953
   31SAPC   H6Y 4191   6.022   0.513   7.439  0.6830 -0.3196 -0.1553
   31SAPC   C37 4192   5.851   0.607   7.541  0.2528 -0.3061  0.7372
   31SAPC   H7X 4193   5.834   0.521   7.609 -1.3753 -0.8457 -0.3093
   31SAPC   H7Y 4194   5.770   0.609   7.465  1.5719  2.6447 -0.6403
   31SAPC   C38 4195   5.825   0.723   7.635  0.1307 -0.0465 -0.4959
   31SAPC   H8X 4196   5.812   0.812   7.571  0.6621 -0.8343 -1.7237
   31SAPC   H8Y 4197   5.919   0.728   7.695  0.0819 -0.8929 -0.3344
   31SAPC   C39 4198   5.716   0.701   7.733  0.4389 -0.7606 -0.4921
   31SAPC   H9X 4199   5.739   0.743   7.834 -0.3073 -0.7210 -0.3398
   31SAPC   H9Y 4200   5.693   0.594   7.754  1.4637 -1.5137 -3.0246
   31SAPC  C310 4201   5.586   0.763   7.688  0.1834  0.0694 -0.3708
   31SAPC  H10X 4202   5.569   0.711   7.591  2.1888 -1.1355 -0.1144
   31SAPC  H10Y 4203   5.601   0.873   7.679 -0.3709  0.2737  1.1175
   31SAPC  C311 4204   5.472   0.742   7.789 -0.3281  1.1430 -0.0156
   31SAPC  H11X 4205   5.495   0.801   7.880 -1.7562 -0.1135  1.1851
   31SAPC  H11Y 4206   5.463   0.638   7.826  2.1908  0.4318 -1.2859
   31SAPC  C312 4207   5.340   0.789   7.737 -0.0782 -0.1534  0.3678
   31SAPC  H12X 4208   5.310   0.737   7.643  0.7331 -0.3416  0.2034
   31SAPC  H12Y 4209   5.336   0.896   7.708  0.8327 -0.4671 -0.9766
   31SAPC  C313 4210   5.233   0.774   7.848 -0.1808  0.1136  0.2628
   31SAPC  H13X 4211   5.277   0.809   7.944 -1.7864  0.4753  0.8910
   31SAPC  H13Y 4212   5.192   0.672   7.862 -2.5276  1.2503  2.1175
   31SAPC  C314 4213   5.107   0.863   7.822  0.4636 -0.3645  0.1189
   31SAPC  H14X 4214   5.061   0.828   7.728 -1.0984 -0.3373  0.8662
   31SAPC  H14Y 4215   5.137   0.969   7.816  0.0506 -0.2588 -0.0665
   31SAPC  C315 4216   4.999   0.850   7.934  0.5687  0.0818 -0.4344
   31SAPC  H15X 4217   4.912   0.904   7.891  0.0946 -0.7405 -0.5287
   31SAPC  H15Y 4218   5.025   0.897   8.031 -2.7151 -0.4358  0.7590
   31SAPC  C316 4219   4.933   0.707   7.949 -0.2918  0.0210  0.4383
   31SAPC  H16X 4220   4.944   0.644   7.858 -1.4232 -0.0473  0.3462
   31SAPC  H16Y 4221   4.828   0.722   7.981 -0.3256 -1.7444  1.2477
   31SAPC  C317 4222   4.991   0.651   8.081 -0.1374  0.0218  0.0191
   31SAPC  H17X 4223   4.956   0.716   8.164  1.8839  0.9522  0.1827
   31SAPC  H17Y 4224   5.101   0.664   8.078 -0.0874 -0.5667 -1.3039
   31SAPC  C318 4225   4.938   0.508   8.106 -0.3006 -0.2755 -0.6923
   31SAPC  H18X 4226   5.011   0.461   8.175  0.7456  2.1554 -0.0926
   31SAPC  H18Y 4227   4.948   0.454   8.009  1.3790  2.5698 -2.1568
   31SAPC  H18Z 4228   4.834   0.506   8.146  0.2988  2.5025  1.1231
   32SAPC     N 4229   0.807   1.485   6.075  0.3183  0.3160 -0.1007
   32SAPC   C12 4230   0.689   1.405   6.146  0.1269 -0.0215 -0.1779
   32SAPC  H12A 4231   0.651   1.342   6.067  0.6426  0.1460 -0.5575
   32SAPC  H12B 4232   0.606   1.472   6.162 -0.7138 -1.7807  3.4497
   32SAPC   C13 4233   0.878   1.569   6.179  0.2803 -0.5743  0.0356
   32SAPC  H13A 4234   0.964   1.622   6.139 -0.7353 -0.7045 -2.3655
   32SAPC  H13B 4235   0.812   1.642   6.224 -1.6908 -1.9836 -0.5116
   32SAPC  H13C 4236   0.920   1.511   6.260 -0.4624  0.0837  0.9012
   32SAPC   C14 4237   0.915   1.402   6.006  0.2265  0.5962 -0.1738
   32SAPC  H14A 4238   1.001   1.463   5.981 -1.1363  1.8946 -1.8253
   32SAPC  H14B 4239   0.940   1.319   6.069  0.4991  0.2487 -0.7424
   32SAPC  H14C 4240   0.869   1.353   5.921 -0.0858 -1.5370  1.1825
   32SAPC   C15 4241   0.748   1.580   5.976 -0.0898  0.1116 -0.0628
   32SAPC  H15A 4242   0.698   1.528   5.895 -2.2077  1.7141  0.1710
   32SAPC  H15B 4243   0.685   1.646   6.034  0.1280 -0.9659  1.4281
   32SAPC  H15C 4244   0.821   1.644   5.929 -3.3883  2.9408 -1.5614
   32SAPC   C11 4245   0.706   1.313   6.265  0.4830  0.2935 -0.0890
   32SAPC  H11A 4246   0.612   1.255   6.280  1.7688 -1.8503 -0.0018
   32SAPC  H11B 4247   0.721   1.374   6.357  2.8105  1.6927 -1.3773
   32SAPC     P 4248   0.811   1.072   6.205  0.1615 -0.0826 -0.4151
   32SAPC   O13 4249   0.682   1.059   6.125 -0.0802 -0.0542 -0.0845
   32SAPC   O14 4250   0.943   1.044   6.145  0.0437 -0.4070 -0.2616
   32SAPC   O12 4251   0.821   1.224   6.243 -0.6377  0.4915 -0.0047
   32SAPC   O11 4252   0.800   0.994   6.342  0.3153 -0.6894  0.2701
   32SAPC    C1 4253   0.840   1.058   6.467  0.5386  0.1425  0.4376
   32SAPC    HA 4254   0.881   0.974   6.527 -2.5154 -1.7665 -0.0555
   32SAPC    HB 4255   0.912   1.143   6.456 -1.3249  1.5729 -0.9770
   32SAPC    C2 4256   0.715   1.109   6.541  0.4974  0.4975 -0.7007
   32SAPC    HS 4257   0.681   1.203   6.494  0.2450  0.2401 -1.0342
   32SAPC   O21 4258   0.741   1.117   6.685  0.1696  0.1591 -0.2363
   32SAPC   C21 4259   0.692   1.215   6.750  0.0813  0.3606 -0.3680
   32SAPC   O22 4260   0.632   1.313   6.702 -0.2536 -0.0705  0.0054
   32SAPC   C22 4261   0.701   1.178   6.898  0.0123  0.7989 -0.1868
   32SAPC   H2R 4262   0.597   1.177   6.938  1.3058 -0.5436  3.3252
   32SAPC   H2S 4263   0.737   1.073   6.910 -2.9188 -0.2237  0.0490
   32SAPC    C3 4264   0.586   1.015   6.516  0.2877  0.3347 -0.6087
   32SAPC    HX 4265   0.614   0.910   6.537  0.0892  0.1561 -1.2234
   32SAPC    HY 4266   0.562   1.018   6.408 -0.6187  1.7062 -0.3822
   32SAPC   O31 4267   0.475   1.059   6.604 -0.2767 -0.0548 -0.3668
   32SAPC   C31 4268   0.412   1.159   6.560  0.5691 -0.4681  0.2832
   32SAPC   O32 4269   0.418   1.201   6.446 -0.4379 -0.3886 -0.1009
   32SAPC   C32 4270   0.297   1.203   6.644 -0.9647 -0.5768 -0.3541
   32SAPC   H2X 4271   0.202   1.164   6.601 -0.6695  0.1878 -1.7118
   32SAPC   H2Y 4272   0.288   1.314   6.641 -0.8803 -0.6022 -1.7054
   32SAPC   C23 4273   0.785   1.278   6.971 -0.0054 -0.1655 -0.6786
   32SAPC   H3R 4274   0.742   1.379   6.950 -1.3104 -0.2529  1.4859
   32SAPC   H3S 4275   0.893   1.277   6.944  0.1245 -0.8354 -0.1493
   32SAPC   C24 4276   0.764   1.268   7.129  0.3938  0.2555  0.1393
   32SAPC   H4R 4277   0.805   1.172   7.167 -3.3521 -0.2929  3.0833
   32SAPC   H4S 4278   0.658   1.264   7.163 -0.5595 -1.0001 -2.8605
   32SAPC   C25 4279   0.826   1.385   7.196 -0.4659 -0.3122 -0.3057
   32SAPC   H5R 4280   0.815   1.475   7.133 -2.8002 -0.5074 -0.2162
   32SAPC   C26 4281   0.898   1.388   7.309  0.0294  0.3111  0.3620
   32SAPC   H6R 4282   0.918   1.493   7.337 -0.9130  0.8496 -0.8926
   32SAPC   C27 4283   0.929   1.274   7.410  0.2170  0.3181  0.5434
   32SAPC   H7R 4284   1.037   1.259   7.388 -0.4657 -1.8758 -1.5086
   32SAPC   H7S 4285   0.872   1.181   7.390  0.8878 -0.4882  2.2802
   32SAPC   C28 4286   0.899   1.328   7.541  0.2467 -0.2243 -1.2160
   32SAPC   H8R 4287   0.794   1.364   7.545  0.7763  1.5322 -2.2223
   32SAPC   C29 4288   0.980   1.338   7.647 -0.3723  0.2503  0.5452
   32SAPC   H9R 4289   0.933   1.385   7.734 -1.9050  0.8064 -0.5798
   32SAPC  C210 4290   1.126   1.283   7.640  0.4451  0.2441  0.4538
   32SAPC  H10R 4291   1.169   1.267   7.539 -0.7972 -2.8446  0.3788
   32SAPC  H10S 4292   1.132   1.180   7.682  1.6665  0.0910 -0.0761
   32SAPC  C211 4293   1.224   1.362   7.729  0.0919 -0.1978  0.1196
   32SAPC  H11R 4294   1.278   1.443   7.678 -0.9765 -0.3285 -1.2687
   32SAPC  C212 4295   1.270   1.334   7.852 -0.0680 -0.0691  0.1870
   32SAPC  H12R 4296   1.351   1.397   7.891 -0.0649 -0.5187  0.9320
   32SAPC  C213 4297   1.232   1.223   7.937  0.0359 -0.0164  0.0244
   32SAPC  H13R 4298   1.265   1.125   7.895 -0.6094 -0.7732  1.2631
   32SAPC  H13S 4299   1.123   1.202   7.941 -0.2279  1.5710  2.1701
   32SAPC  C214 4300   1.290   1.234   8.073 -0.1315  0.2100  0.0177
   32SAPC  H14R 4301   1.399   1.224   8.070 -0.0083  1.5154  0.1698
   32SAPC  C215 4302   1.232   1.255   8.188 -0.4630  0.0493 -0.1779
   32SAPC  H15R 4303   1.291   1.251   8.281  0.7907 -0.9044 -0.9904
   32SAPC  C216 4304   1.091   1.268   8.228 -0.6129  0.1067  0.0369
   32SAPC  H16R 4305   1.077   1.244   8.335  0.1998  2.4714  0.7135
   32SAPC  H16S 4306   1.039   1.187   8.173 -1.0388 -1.2781  2.4089
   32SAPC  C217 4307   1.025   1.406   8.213 -0.3691  0.6603 -0.4855
   32SAPC  H17R 4308   1.045   1.450   8.113  1.5819 -0.1377 -0.4779
   32SAPC  H17S 4309   1.089   1.477   8.271  0.8508 -1.5468  0.9480
   32SAPC  C218 4310   0.883   1.407   8.267 -0.2990  0.7204  0.0291
   32SAPC  H18R 4311   0.847   1.512   8.260 -0.7598  0.5090 -0.7588
   32SAPC  H18S 4312   0.891   1.391   8.376  0.4155  0.7085 -0.0198
   32SAPC  C219 4313   0.790   1.309   8.190 -0.2279 -0.0804  0.0543
   32SAPC  H19R 4314   0.702   1.290   8.254 -0.3248 -1.5377 -0.4802
   32SAPC  H19S 4315   0.835   1.207   8.182  1.8844  0.8813 -0.8991
   32SAPC  C220 4316   0.749   1.355   8.047  0.7664  0.6258  0.1006
   32SAPC  H20R 4317   0.839   1.352   7.981  2.4250  2.7775  2.1655
   32SAPC  H20S 4318   0.699   1.455   8.050  0.6859  0.5999 -0.3297
   32SAPC  H20T 4319   0.677   1.278   8.011 -2.8038  3.7991  0.1664
   32SAPC   C33 4320   0.310   1.164   6.798 -0.1151 -0.3867  0.0741
   32SAPC   H3X 4321   0.410   1.197   6.834 -0.7947  0.6165  1.1107
   32SAPC   H3Y 4322   0.304   1.055   6.815 -2.3926 -0.5722 -1.7282
   32SAPC   C34 4323   0.188   1.228   6.873  0.0680 -0.4253  0.5188
   32SAPC   H4X 4324   0.099   1.197   6.814  1.2389  0.3400 -1.7127
   32SAPC   H4Y 4325   0.191   1.339   6.864  0.5483 -0.5059 -0.3499
   32SAPC   C35 4326   0.159   1.168   7.005 -0.3660 -0.1521 -0.4445
   32SAPC   H5X 4327   0.253   1.164   7.063 -0.8080 -0.4276  0.2631
   32SAPC   H5Y 4328   0.134   1.061   6.986  0.2390 -0.5435  0.8633
   32SAPC   C36 4329   0.044   1.243   7.079 -0.8474  1.0886 -0.0954
   32SAPC   H6X 4330  -0.037   1.254   7.004 -0.7550  0.8397 -0.2347
   32SAPC   H6Y 4331   0.081   1.343   7.110 -0.7742  0.2360  2.6418
   32SAPC   C37 4332  -0.015   1.177   7.212  0.4727  0.1206 -0.0005
   32SAPC   H7X 4333  -0.066   1.085   7.175 -2.0026  1.2690  0.4545
   32SAPC   H7Y 4334  -0.093   1.246   7.251 -1.9625 -1.8971 -1.1752
   32SAPC   C38 4335   0.090   1.148   7.319 -0.1757  0.0965 -0.6690
   32SAPC   H8X 4336   0.167   1.228   7.322 -0.2487  0.1258  1.1587
   32SAPC   H8Y 4337   0.145   1.055   7.295 -0.3434 -1.0177  2.9411
   32SAPC   C39 4338   0.057   1.139   7.467 -0.0731 -0.2942 -0.5072
   32SAPC   H9X 4339  -0.018   1.218   7.485 -1.9205 -2.1470  0.1124
   32SAPC   H9Y 4340   0.149   1.160   7.526  2.1904 -1.4101 -3.5148
   32SAPC  C310 4341  -0.016   1.008   7.495  0.2085 -0.5086 -0.1625
   32SAPC  H10X 4342   0.037   0.917   7.459  1.5822  0.6419 -1.0752
   32SAPC  H10Y 4343  -0.112   1.017   7.440  0.9340 -0.7719 -1.4896
   32SAPC  C311 4344  -0.066   1.002   7.645 -0.4566 -0.0861  0.1398
   32SAPC  H11X 4345  -0.135   0.916   7.637  0.2782 -0.5723 -1.0924
   32SAPC  H11Y 4346  -0.123   1.095   7.665  1.0579  0.9270 -0.1215
   32SAPC  C312 4347   0.050   1.010   7.751 -0.0848 -0.0964 -0.1844
   32SAPC  H12X 4348   0.092   1.113   7.755 -0.7486  0.1795 -0.2162
   32SAPC  H12Y 4349   0.128   0.939   7.715  0.4633  1.0390 -1.2729
   32SAPC  C313 4350  -0.002   0.979   7.890  0.0989 -0.2101  0.7331
   32SAPC  H13X 4351  -0.052   0.880   7.896  1.1964 -0.7965  0.4380
   32SAPC  H13Y 4352  -0.080   1.056   7.909  2.2426  2.9608 -2.5272
   32SAPC  C314 4353   0.115   0.983   7.990  0.0352  0.5576  0.1849
   32SAPC  H14X 4354   0.139   1.088   8.015 -1.0404  1.0375 -0.7670
   32SAPC  H14Y 4355   0.199   0.939   7.933 -0.1361  2.2087 -1.3763
   32SAPC  C315 4356   0.102   0.905   8.121  0.8932  0.0775  0.3452
   32SAPC  H15X 4357   0.077   0.798   8.105  0.7931  0.2211 -0.4925
   32SAPC  H15Y 4358   0.018   0.956   8.172 -0.4203  1.0708 -2.7262
   32SAPC  C316 4359   0.219   0.921   8.221  0.3257 -0.5370 -0.2359
   32SAPC  H16X 4360   0.264   1.022   8.231 -1.4832  0.0598  2.2802
   32SAPC  H16Y 4361   0.303   0.857   8.186  1.2786  1.2397 -1.2627
   32SAPC  C317 4362   0.194   0.867   8.366  0.3463 -0.2717 -0.3642
   32SAPC  H17X 4363   0.204   0.756   8.374  2.1637 -0.4984 -4.2648
   32SAPC  H17Y 4364   0.092   0.903   8.389  0.7772  1.0975 -0.5572
   32SAPC  C318 4365   0.291   0.935   8.463 -0.1462  0.4324  0.2608
   32SAPC  H18X 4366   0.366   0.858   8.489  0.3839  0.7766 -0.2353
   32SAPC  H18Y 4367   0.236   0.975   8.551 -0.3110  0.2510  0.2407
   32SAPC  H18Z 4368   0.343   1.023   8.418 -0.6480  0.7979  0.3879
   33POPC     N 4369   4.108   2.334  10.439 -0.1793 -0.5493 -0.2500
   33POPC   C12 4370   4.175   2.466  10.423  0.5221 -0.5569  0.1318
   33POPC  H12A 4371   4.246   2.478  10.504 -0.5432  0.7183  0.8950
   33POPC  H12B 4372   4.109   2.550  10.433  0.7694 -0.2100 -1.1295
   33POPC   C13 4373   4.036   2.332  10.567 -0.4919  0.2520 -0.1415
   33POPC  H13A 4374   3.930   2.353  10.566 -0.8940 -1.6442 -0.0181
   33POPC  H13B 4375   4.047   2.231  10.604  3.8259  0.2791 -1.0337
   33POPC  H13C 4376   4.089   2.400  10.631  1.0765 -0.8394 -0.2389
   33POPC   C14 4377   4.017   2.304  10.330 -0.0316  0.0335 -0.1372
   33POPC  H14A 4378   4.066   2.326  10.236 -2.8307  2.2841 -1.1480
   33POPC  H14B 4379   3.976   2.204  10.331  1.5980 -0.6539 -0.6740
   33POPC  H14C 4380   3.940   2.378  10.346  1.1534  1.1634  0.4636
   33POPC   C15 4381   4.209   2.220  10.447  0.2428  0.0298 -0.4139
   33POPC  H15A 4382   4.285   2.233  10.523 -0.4911 -0.9296  0.4957
   33POPC  H15B 4383   4.266   2.209  10.355 -2.9292  0.6192 -2.5166
   33POPC  H15C 4384   4.152   2.130  10.463 -2.3142  1.2279 -2.4709
   33POPC   C11 4385   4.247   2.487  10.283 -0.3708  0.3403  0.5420
   33POPC  H11A 4386   4.279   2.593  10.269 -1.6877  0.5718 -0.8830
   33POPC  H11B 4387   4.179   2.473  10.196  1.3242 -1.1533 -0.5647
   33POPC     P 4388   4.490   2.419  10.359 -0.4026  0.0249 -0.2302
   33POPC   O13 4389   4.561   2.295  10.332  0.5387 -0.9353 -0.1303
   33POPC   O14 4390   4.447   2.446  10.494 -0.4348  0.1927  0.0570
   33POPC   O12 4391   4.361   2.404  10.271 -0.0264  0.0184  0.2713
   33POPC   O11 4392   4.573   2.546  10.307 -0.1257 -0.2937 -0.6610
   33POPC    C1 4393   4.582   2.572  10.172  0.3068  0.2492  0.3842
   33POPC    HA 4394   4.689   2.559  10.143  0.1355  1.1213 -0.6834
   33POPC    HB 4395   4.531   2.505  10.100 -1.2247  1.0360  0.7082
   33POPC    C2 4396   4.527   2.717  10.134  0.2371 -0.3050 -0.9984
   33POPC    HS 4397   4.417   2.705  10.128 -0.3549  2.7157  1.9781
   33POPC   O21 4398   4.579   2.782  10.014 -0.3180 -0.4692 -0.3470
   33POPC   C21 4399   4.551   2.717   9.905  0.3250  0.1109 -0.1374
   33POPC   O22 4400   4.482   2.613   9.903 -0.5129  0.4005  0.1167
   33POPC   C22 4401   4.598   2.793   9.779  0.1963  0.3344  0.7306
   33POPC   H2R 4402   4.709   2.796   9.783  0.2349 -0.6298  0.2954
   33POPC   H2S 4403   4.551   2.893   9.794  0.8917  0.8733 -0.6602
   33POPC    C3 4404   4.544   2.801  10.262 -0.2180 -0.4012  0.2572
   33POPC    HX 4405   4.649   2.803  10.298  0.2257 -1.5104 -0.9553
   33POPC    HY 4406   4.489   2.764  10.351  1.4108 -0.1640  1.3807
   33POPC   O31 4407   4.497   2.936  10.231 -0.1235 -0.0596 -0.3137
   33POPC   C31 4408   4.365   2.961  10.239 -0.0141 -0.3755 -0.4042
   33POPC   O32 4409   4.280   2.874  10.264 -0.2511  0.3214  0.2968
   33POPC   C32 4410   4.339   3.102  10.215 -0.0473 -0.0007 -0.2231
   33POPC   H2X 4411   4.429   3.147  10.167 -0.1814  1.0925  0.5351
   33POPC   H2Y 4412   4.319   3.155  10.311 -0.1862 -0.5671  0.0655
   33POPC   C23 4413   4.557   2.725   9.648 -0.6783 -0.1598  0.3222
   33POPC   H3R 4414   4.446   2.711   9.644 -0.6617  0.0074 -0.9732
   33POPC   H3S 4415   4.600   2.623   9.654  0.0394  0.2981  3.4087
   33POPC   C24 4416   4.601   2.792   9.507 -0.8072 -0.1063  0.3968
   33POPC   H4R 4417   4.712   2.790   9.503 -0.8613 -0.6126 -1.8183
   33POPC   H4S 4418   4.563   2.896   9.516 -2.1367 -0.5041 -0.3601
   33POPC   C25 4419   4.547   2.712   9.387 -0.1352 -0.2420  0.4788
   33POPC   H5R 4420   4.438   2.721   9.367  0.0687 -0.7081 -0.8927
   33POPC   H5S 4421   4.562   2.604   9.404  2.0477  0.0539  0.6648
   33POPC   C26 4422   4.606   2.742   9.252 -0.2034 -0.0275 -0.1791
   33POPC   H6R 4423   4.715   2.734   9.272 -0.2032  2.1510  0.8319
   33POPC   H6S 4424   4.587   2.850   9.231  0.2329  0.1437  0.2779
   33POPC   C27 4425   4.554   2.657   9.133  0.5220 -1.0226  0.5180
   33POPC   H7R 4426   4.446   2.678   9.123  0.5111 -1.6594 -0.7370
   33POPC   H7S 4427   4.548   2.550   9.160  1.0060 -1.6905 -1.9344
   33POPC   C28 4428   4.632   2.673   9.006  1.1135  0.1257  0.0745
   33POPC   H8R 4429   4.590   2.594   8.941 -3.4821  1.9400  0.6534
   33POPC   H8S 4430   4.735   2.635   9.027  0.5010 -1.6034  0.0076
   33POPC   C29 4431   4.619   2.798   8.927 -0.3910 -0.3189  0.0940
   33POPC   H91 4432   4.529   2.855   8.951 -0.4568  0.7610 -2.5623
   33POPC  C210 4433   4.706   2.858   8.844 -0.2437  0.1338 -0.4751
   33POPC  H101 4434   4.691   2.962   8.809 -0.3120  0.7213  1.2440
   33POPC  C211 4435   4.829   2.795   8.792  0.5451 -0.0115 -0.5289
   33POPC  H11R 4436   4.826   2.793   8.681  1.1172  2.5575 -0.6424
   33POPC  H11S 4437   4.841   2.695   8.838  0.3449 -0.0384 -0.5362
   33POPC  C212 4438   4.964   2.873   8.808 -0.1753 -0.2172 -0.6811
   33POPC  H12R 4439   4.983   2.898   8.915  1.1431 -0.6396 -0.8072
   33POPC  H12S 4440   4.958   2.973   8.759  2.7380 -0.1998 -1.0934
   33POPC  C213 4441   5.095   2.800   8.759 -0.5589 -0.3279 -0.7105
   33POPC  H13R 4442   5.125   2.725   8.835  0.8629  1.3542  0.4258
   33POPC  H13S 4443   5.174   2.876   8.742 -1.3796  0.4511 -1.0782
   33POPC  C214 4444   5.071   2.730   8.630 -0.5408  0.2550  1.1536
   33POPC  H14R 4445   5.013   2.792   8.557 -1.1405 -3.0730 -1.3235
   33POPC  H14S 4446   5.012   2.642   8.665 -1.7731  0.0485 -1.3295
   33POPC  C215 4447   5.204   2.686   8.574  0.1597 -0.4662 -1.0923
   33POPC  H15R 4448   5.251   2.624   8.653 -0.6635  0.1410 -0.1220
   33POPC  H15S 4449   5.284   2.763   8.564 -0.3147  0.3950  1.3604
   33POPC  C216 4450   5.185   2.619   8.435  0.5080  0.4276  0.6459
   33POPC  H16R 4451   5.103   2.670   8.382  1.2039 -1.3112 -2.2039
   33POPC  H16S 4452   5.148   2.515   8.445 -1.0783  0.8853 -0.4741
   33POPC  C217 4453   5.309   2.602   8.348 -0.1669 -0.2781 -0.1704
   33POPC  H17R 4454   5.393   2.545   8.394  0.7165  0.0284 -1.3980
   33POPC  H17S 4455   5.357   2.701   8.338 -1.1393  0.1623 -0.5062
   33POPC  C218 4456   5.293   2.548   8.211 -0.1268 -0.2354 -0.0977
   33POPC  H18R 4457   5.374   2.577   8.142  1.3254 -2.0234  0.8327
   33POPC  H18S 4458   5.202   2.586   8.158  0.2091 -0.8287 -1.1114
   33POPC  H18T 4459   5.286   2.437   8.211  0.6800 -0.2868 -0.4829
   33POPC   C33 4460   4.225   3.128  10.114 -0.1065  0.1991 -0.0070
   33POPC   H3X 4461   4.216   3.235  10.085 -2.7638 -0.1366 -0.4821
   33POPC   H3Y 4462   4.136   3.100  10.174 -0.2076  0.1430 -0.1848
   33POPC   C34 4463   4.236   3.050   9.979 -0.4078 -0.8577 -0.0589
   33POPC   H4X 4464   4.190   2.949   9.989 -0.8589 -0.4030  2.8667
   33POPC   H4Y 4465   4.346   3.040   9.972 -0.0329  0.4930  3.1146
   33POPC   C35 4466   4.196   3.123   9.851  0.4838  0.4757 -0.0491
   33POPC   H5X 4467   4.268   3.205   9.832  2.4496 -1.5229 -1.4773
   33POPC   H5Y 4468   4.093   3.161   9.865  0.3109  0.7189 -1.8321
   33POPC   C36 4469   4.196   3.023   9.737  0.2969 -0.1836 -0.1035
   33POPC   H6X 4470   4.122   2.947   9.771 -0.6137  0.0382 -1.5581
   33POPC   H6Y 4471   4.298   2.979   9.731  1.0723  1.4203  0.8909
   33POPC   C37 4472   4.166   3.094   9.602  1.0346  0.1175  0.0367
   33POPC   H7X 4473   4.250   3.166   9.598  0.9911  0.1700  0.0685
   33POPC   H7Y 4474   4.066   3.142   9.609  2.1773  2.5868  0.0535
   33POPC   C38 4475   4.169   2.999   9.483 -0.2564  0.3218  0.3390
   33POPC   H8X 4476   4.084   2.928   9.490 -0.1750  0.3090  1.2454
   33POPC   H8Y 4477   4.259   2.935   9.490 -1.3434 -1.3310 -0.5242
   33POPC   C39 4478   4.152   3.044   9.333  0.0227  0.0937  0.1152
   33POPC   H9X 4479   4.233   3.117   9.313 -0.7512  0.6469 -1.0468
   33POPC   H9Y 4480   4.067   3.114   9.323  0.9824  1.0547 -1.6083
   33POPC  C310 4481   4.144   2.922   9.241  0.8789  0.3770 -0.5696
   33POPC  H10X 4482   4.056   2.860   9.267  3.7835 -3.0291  1.6056
   33POPC  H10Y 4483   4.234   2.860   9.260 -0.3051 -1.1325  0.2113
   33POPC  C311 4484   4.139   2.946   9.086  0.2333 -0.1064 -0.5574
   33POPC  H11X 4485   4.043   2.997   9.065  0.5903  0.5616 -0.5688
   33POPC  H11Y 4486   4.131   2.850   9.031  0.0733 -0.1861 -0.3983
   33POPC  C312 4487   4.256   3.028   9.034  0.2451 -0.3141 -0.0293
   33POPC  H12X 4488   4.351   2.981   9.067 -0.4303 -0.8489  1.1769
   33POPC  H12Y 4489   4.259   3.128   9.084  2.9899  0.5299 -1.7510
   33POPC  C313 4490   4.258   3.058   8.884  0.9855 -0.1171 -0.3983
   33POPC  H13X 4491   4.340   3.127   8.855 -0.0744  1.0471 -0.7095
   33POPC  H13Y 4492   4.166   3.111   8.848  1.1249 -1.7817 -3.3989
   33POPC  C314 4493   4.254   2.931   8.796  0.9086 -0.1486 -0.6676
   33POPC  H14X 4494   4.166   2.870   8.823  0.0663  0.8934 -1.0382
   33POPC  H14Y 4495   4.345   2.872   8.820  0.2266 -0.8315  0.2464
   33POPC  C315 4496   4.242   2.961   8.649  0.0639  0.0933  0.2720
   33POPC  H15X 4497   4.341   2.999   8.617 -0.8184 -0.4109 -3.2941
   33POPC  H15Y 4498   4.170   3.045   8.638 -0.7936 -0.3749  2.1283
   33POPC  C316 4499   4.203   2.838   8.576 -0.5808  0.4850 -0.0618
   33POPC  H16X 4500   4.096   2.805   8.577  0.4599 -3.1031  0.7824
   33POPC  H16Y 4501   4.275   2.758   8.605 -0.0811  0.9494 -0.0290
   33POPC  H16Z 4502   4.231   2.851   8.469 -0.3855  0.0787 -0.0616
   34POPC     N 4503   5.114   3.368  10.794 -0.1861 -0.8499 -0.3792
   34POPC   C12 4504   4.985   3.378  10.723  0.3226  0.4758  0.0744
   34POPC  H12A 4505   4.961   3.285  10.674 -1.1584  0.2135  1.2505
   34POPC  H12B 4506   5.002   3.446  10.641  1.3712  0.0570 -0.0624
   34POPC   C13 4507   5.170   3.506  10.816 -0.8746  0.2720 -0.0415
   34POPC  H13A 4508   5.258   3.517  10.878 -0.0710  1.0769 -1.2847
   34POPC  H13B 4509   5.189   3.560  10.724 -0.8428  0.9096  0.3350
   34POPC  H13C 4510   5.093   3.560  10.868  0.8839 -0.9966  4.0828
   34POPC   C14 4511   5.105   3.302  10.925 -0.4092  0.5621  1.0638
   34POPC  H14A 4512   5.080   3.197  10.920 -0.8141  0.6408  1.4133
   34POPC  H14B 4513   5.197   3.316  10.980 -0.3647  0.3724  1.0379
   34POPC  H14C 4514   5.025   3.352  10.979 -1.4941 -0.6299  0.5913
   34POPC   C15 4515   5.220   3.294  10.709 -0.0123 -0.3128  0.5373
   34POPC  H15A 4516   5.203   3.187  10.714 -1.4037 -0.2485 -2.1546
   34POPC  H15B 4517   5.315   3.313  10.758 -0.3021 -3.7905  2.6529
   34POPC  H15C 4518   5.225   3.330  10.607 -2.5751  0.5521  0.6892
   34POPC   C11 4519   4.855   3.424  10.800  0.1602 -0.4322  0.6089
   34POPC  H11A 4520   4.842   3.358  10.888 -0.6071 -0.1865  0.6777
   34POPC  H11B 4521   4.763   3.414  10.740 -0.7165 -0.9316  2.0088
   34POPC     P 4522   4.843   3.690  10.773  0.0198  0.0765  0.0802
   34POPC   O13 4523   4.957   3.721  10.688 -0.5041  0.4018 -0.0202
   34POPC   O14 4524   4.812   3.796  10.873  0.7574 -0.3329 -0.1111
   34POPC   O12 4525   4.875   3.559  10.853  0.4667 -0.1829  0.3990
   34POPC   O11 4526   4.717   3.660  10.676 -0.4991 -0.0647  0.2829
   34POPC    C1 4527   4.582   3.647  10.721  0.4862 -0.3719 -0.3185
   34POPC    HA 4528   4.545   3.751  10.732 -2.1492 -1.0810 -2.0940
   34POPC    HB 4529   4.588   3.614  10.827  1.1291 -0.3927 -0.3545
   34POPC    C2 4530   4.502   3.536  10.646 -0.7020  0.1218 -0.4626
   34POPC    HS 4531   4.562   3.444  10.660  0.7166  0.6713 -2.6465
   34POPC   O21 4532   4.498   3.589  10.510  0.4266 -0.2143 -0.4118
   34POPC   C21 4533   4.513   3.509  10.414 -0.2028 -0.5387 -0.6692
   34POPC   O22 4534   4.547   3.392  10.426  0.5801  0.1083 -0.2985
   34POPC   C22 4535   4.507   3.584  10.278  0.4425 -0.0194 -0.4239
   34POPC   H2R 4536   4.605   3.605  10.228 -0.1154  1.4189 -0.9494
   34POPC   H2S 4537   4.450   3.678  10.298  0.9894  0.0513  0.9106
   34POPC    C3 4538   4.358   3.515  10.691 -0.7253 -0.1837  0.6133
   34POPC    HX 4539   4.366   3.485  10.797  0.3721 -2.4472 -0.0793
   34POPC    HY 4540   4.316   3.428  10.636 -0.2900 -0.3944  0.6106
   34POPC   O31 4541   4.282   3.633  10.691  0.2837 -0.2214  0.0807
   34POPC   C31 4542   4.195   3.646  10.590 -0.6189  0.2754  0.5059
   34POPC   O32 4543   4.156   3.562  10.513  0.1692 -0.1090  0.1393
   34POPC   C32 4544   4.134   3.784  10.602 -0.0059  0.9998  0.3447
   34POPC   H2X 4545   4.214   3.860  10.610  0.0093  0.9116  1.0398
   34POPC   H2Y 4546   4.080   3.776  10.699 -0.6087  0.7529 -0.0040
   34POPC   C23 4547   4.418   3.516  10.177  0.4550  0.0318 -0.3836
   34POPC   H3R 4548   4.314   3.516  10.217  1.0004 -2.1979  1.1503
   34POPC   H3S 4549   4.445   3.408  10.166 -0.9907 -0.6631  2.2717
   34POPC   C24 4550   4.430   3.587  10.047  0.3075 -0.7247 -0.2341
   34POPC   H4R 4551   4.536   3.596  10.013 -0.5697  0.1853 -2.8904
   34POPC   H4S 4552   4.396   3.692  10.063  2.1358 -0.3726  1.5954
   34POPC   C25 4553   4.344   3.526   9.941 -0.0484  0.1605 -1.1064
   34POPC   H5R 4554   4.248   3.496   9.989  2.4668 -2.2011  2.7095
   34POPC   H5S 4555   4.392   3.435   9.899  0.6924  0.4911 -0.9822
   34POPC   C26 4556   4.307   3.611   9.817 -0.2017 -0.8976 -0.3465
   34POPC   H6R 4557   4.391   3.679   9.790 -0.8577  0.6376  1.4119
   34POPC   H6S 4558   4.234   3.689   9.847  2.8835  1.9009  0.2628
   34POPC   C27 4559   4.272   3.525   9.695  1.3346  0.0201 -0.6182
   34POPC   H7R 4560   4.192   3.454   9.725  1.8486 -0.2659  0.0745
   34POPC   H7S 4561   4.360   3.473   9.652  0.6847  0.8766 -3.1251
   34POPC   C28 4562   4.223   3.602   9.571  0.6792 -0.6877 -0.1943
   34POPC   H8R 4563   4.310   3.662   9.535  0.3502 -0.4582 -0.6104
   34POPC   H8S 4564   4.158   3.682   9.611  0.3762 -0.7227 -0.6108
   34POPC   C29 4565   4.157   3.516   9.469 -0.0168 -0.1151  0.4399
   34POPC   H91 4566   4.073   3.455   9.506 -0.8057 -0.5250 -1.9262
   34POPC  C210 4567   4.187   3.498   9.340  0.6748 -0.2856 -1.3800
   34POPC  H101 4568   4.124   3.421   9.293  0.8616 -3.2941  3.0582
   34POPC  C211 4569   4.290   3.559   9.253 -0.2407 -0.0008 -0.2773
   34POPC  H11R 4570   4.375   3.490   9.274 -2.2259 -1.9715  1.6289
   34POPC  H11S 4571   4.317   3.660   9.288 -0.3591  0.6704 -2.0936
   34POPC  C212 4572   4.247   3.564   9.104  0.4381  0.1077  0.5125
   34POPC  H12R 4573   4.315   3.634   9.051  0.2804 -0.8583 -1.0099
   34POPC  H12S 4574   4.140   3.594   9.109  0.7665  1.1509  1.1712
   34POPC  C213 4575   4.242   3.429   9.024  0.1886  0.3633 -1.3190
   34POPC  H13R 4576   4.154   3.369   9.053  2.7841 -2.8107  0.3887
   34POPC  H13S 4577   4.329   3.362   9.042 -1.6993 -2.2748 -1.8311
   34POPC  C214 4578   4.243   3.450   8.870 -0.2927  1.0316 -0.1069
   34POPC  H14R 4579   4.162   3.515   8.830 -1.5810  0.3329  1.3018
   34POPC  H14S 4580   4.229   3.349   8.827  1.2486  0.5168  0.5661
   34POPC  C215 4581   4.371   3.501   8.806 -0.1671  0.6169  0.3268
   34POPC  H15R 4582   4.440   3.414   8.815  1.7588  1.9846 -0.8367
   34POPC  H15S 4583   4.412   3.589   8.859  0.6069 -0.2598  1.2220
   34POPC  C216 4584   4.342   3.538   8.663  0.9368  0.5222  0.1648
   34POPC  H16R 4585   4.432   3.585   8.618  0.1869  2.5218  0.6889
   34POPC  H16S 4586   4.268   3.620   8.651 -0.9411 -1.1309  0.3408
   34POPC  C217 4587   4.278   3.424   8.589 -0.1910  0.2647  0.9101
   34POPC  H17R 4588   4.175   3.410   8.629 -1.0943  0.6946 -1.1697
   34POPC  H17S 4589   4.335   3.329   8.601 -2.5433 -1.1462  1.1977
   34POPC  C218 4590   4.262   3.442   8.439  0.4019  0.0218  0.4550
   34POPC  H18R 4591   4.364   3.423   8.398 -0.3795  0.0541 -1.5030
   34POPC  H18S 4592   4.232   3.547   8.416 -0.8952  0.0723  2.2958
   34POPC  H18T 4593   4.180   3.387   8.390  1.6583  0.4786 -2.2234
   34POPC   C33 4594   4.018   3.808  10.502 -0.9178 -0.0170  0.2400
   34POPC   H3X 4595   3.973   3.906  10.526 -0.8054  0.1822 -0.3544
   34POPC   H3Y 4596   3.931   3.739  10.511 -1.4720  0.5335 -0.8386
   34POPC   C34 4597   4.071   3.827  10.363 -0.2513  0.1790  0.6528
   34POPC   H4X 4598   4.130   3.744  10.318  0.7325  1.1318  0.1503
   34POPC   H4Y 4599   4.137   3.915  10.344  0.8646 -0.8709 -0.4680
   34POPC   C35 4600   3.961   3.834  10.261 -0.8478 -0.5515 -0.6007
   34POPC   H5X 4601   3.888   3.916  10.279  2.0015  1.8554  0.3963
   34POPC   H5Y 4602   3.911   3.736  10.276 -0.8060 -0.8473 -2.2790
   34POPC   C36 4603   4.008   3.850  10.116  0.3801  0.1597  0.1005
   34POPC   H6X 4604   4.073   3.768  10.077  0.1551  0.1275 -0.2087
   34POPC   H6Y 4605   4.061   3.947  10.107 -1.0586  1.1443  1.9285
   34POPC   C37 4606   3.877   3.871  10.027  0.3039  0.2203  0.5734
   34POPC   H7X 4607   3.829   3.964  10.063 -1.0900  0.2639 -1.3607
   34POPC   H7Y 4608   3.818   3.783  10.060  0.1258  0.3297  0.5464
   34POPC   C38 4609   3.903   3.867   9.875  0.4362  0.7279 -0.0139
   34POPC   H8X 4610   3.969   3.780   9.857 -1.8784 -0.5605 -2.7189
   34POPC   H8Y 4611   3.966   3.953   9.846  2.0354 -0.9773 -1.7431
   34POPC   C39 4612   3.774   3.867   9.796  0.3044 -0.0856  0.4218
   34POPC   H9X 4613   3.704   3.786   9.826  2.2938 -2.8050 -1.9136
   34POPC   H9Y 4614   3.797   3.825   9.696  2.1374 -0.5353  0.9982
   34POPC  C310 4615   3.709   4.008   9.806  0.0129  0.0942  0.3832
   34POPC  H10X 4616   3.791   4.082   9.796  0.4702 -0.3209  1.0160
   34POPC  H10Y 4617   3.672   4.019   9.911  0.9732 -1.3071  0.8972
   34POPC  C311 4618   3.604   4.024   9.697  0.0531 -0.7179  0.1592
   34POPC  H11X 4619   3.637   4.008   9.592  0.1345 -1.0574  0.2363
   34POPC  H11Y 4620   3.569   4.130   9.701  2.0928 -0.0887  2.2018
   34POPC  C312 4621   3.484   3.936   9.726  0.3305 -0.0105 -0.3635
   34POPC  H12X 4622   3.457   3.959   9.831 -3.4799 -1.4758 -0.9273
   34POPC  H12Y 4623   3.507   3.829   9.708 -1.0872 -0.3818 -0.0360
   34POPC  C313 4624   3.369   3.978   9.640 -1.0134  0.4816  0.5277
   34POPC  H13X 4625   3.354   4.087   9.627 -0.8620 -0.0316 -4.6625
   34POPC  H13Y 4626   3.281   3.937   9.694 -1.2176 -0.6348 -0.6494
   34POPC  C314 4627   3.383   3.914   9.500 -0.0005 -0.1724 -0.2162
   34POPC  H14X 4628   3.352   3.810   9.521  2.0851 -0.6432  0.6086
   34POPC  H14Y 4629   3.487   3.930   9.464 -1.0183 -0.3952 -3.4093
   34POPC  C315 4630   3.303   3.981   9.381  0.5866 -0.3238 -0.6670
   34POPC  H15X 4631   3.348   4.082   9.365  0.3625 -0.2171 -0.6185
   34POPC  H15Y 4632   3.195   3.987   9.403  0.6066 -0.3169 -0.5707
   34POPC  C316 4633   3.323   3.913   9.247  0.2730  0.1031  0.0839
   34POPC  H16X 4634   3.261   3.961   9.168  1.9694  0.1978 -1.2120
   34POPC  H16Y 4635   3.295   3.806   9.256 -0.0088  0.1195 -0.5887
   34POPC  H16Z 4636   3.427   3.923   9.210  0.2214 -1.6534 -0.5817
   35POPC     N 4637   3.391   1.547  11.407  0.2013  0.0945  0.3370
   35POPC   C12 4638   3.358   1.599  11.265 -1.1529 -0.1554 -0.6418
   35POPC  H12A 4639   3.455   1.609  11.220 -0.5498  0.8074  0.8259
   35POPC  H12B 4640   3.322   1.699  11.282 -1.0492  0.0574 -1.6847
   35POPC   C13 4641   3.490   1.639  11.468 -0.3306 -1.3945  0.0428
   35POPC  H13A 4642   3.588   1.614  11.431 -0.6960 -3.6252  0.4644
   35POPC  H13B 4643   3.465   1.743  11.458  2.5297 -0.5222  1.3825
   35POPC  H13C 4644   3.507   1.637  11.575  1.0351  0.2432 -0.1393
   35POPC   C14 4645   3.271   1.547  11.494 -0.0781 -0.0867 -0.5420
   35POPC  H14A 4646   3.196   1.483  11.450  1.5293 -1.3381 -1.5187
   35POPC  H14B 4647   3.297   1.510  11.592 -0.7337 -2.4699 -1.2301
   35POPC  H14C 4648   3.228   1.646  11.501 -0.1765 -0.2405  1.0884
   35POPC   C15 4649   3.436   1.408  11.407 -0.3641 -0.0230 -0.2303
   35POPC  H15A 4650   3.512   1.390  11.331  0.9443 -1.5662  1.4122
   35POPC  H15B 4651   3.364   1.335  11.374 -0.9677  0.9009 -0.9718
   35POPC  H15C 4652   3.470   1.387  11.507 -1.3150  4.3039  1.0891
   35POPC   C11 4653   3.250   1.526  11.175  0.3448  0.2773  0.4999
   35POPC  H11A 4654   3.219   1.587  11.088 -0.3636 -1.1930 -0.3038
   35POPC  H11B 4655   3.159   1.519  11.237  1.4714 -0.6844  2.0989
   35POPC     P 4656   3.384   1.350  11.039 -0.2138  0.0391  0.5428
   35POPC   O13 4657   3.508   1.302  11.105 -0.0054 -0.4243 -0.3163
   35POPC   O14 4658   3.398   1.443  10.921  0.0941  0.4066  0.1295
   35POPC   O12 4659   3.272   1.391  11.142 -0.1477 -0.4359  0.2083
   35POPC   O11 4660   3.324   1.215  10.980 -0.1389  0.0584 -0.0900
   35POPC    C1 4661   3.198   1.195  10.920  0.9819  0.2732 -0.5776
   35POPC    HA 4662   3.124   1.261  10.970  1.3786  1.5022 -1.5837
   35POPC    HB 4663   3.163   1.090  10.934  0.1068  0.4970 -1.0451
   35POPC    C2 4664   3.197   1.223  10.765  0.2522  0.6768 -1.2293
   35POPC    HS 4665   3.297   1.185  10.735 -0.1823 -1.2837 -0.2404
   35POPC   O21 4666   3.176   1.364  10.753 -0.6633 -0.3371  0.4558
   35POPC   C21 4667   3.245   1.420  10.662 -0.1652 -0.1946  0.3268
   35POPC   O22 4668   3.327   1.365  10.595 -0.3829 -0.2173  0.2529
   35POPC   C22 4669   3.195   1.570  10.650 -0.7947 -0.1178 -0.1117
   35POPC   H2R 4670   3.234   1.619  10.742  0.2035 -1.0070 -0.0497
   35POPC   H2S 4671   3.085   1.568  10.642 -0.6973  1.6779 -2.9039
   35POPC    C3 4672   3.088   1.139  10.694  0.1574  0.0731  0.6314
   35POPC    HX 4673   2.988   1.162  10.738  0.3172  0.7806  0.6296
   35POPC    HY 4674   3.119   1.034  10.716  1.5522  0.6114  1.2629
   35POPC   O31 4675   3.090   1.163  10.553 -0.0430  0.0807  0.3777
   35POPC   C31 4676   3.014   1.093  10.468  0.3866 -0.5247 -0.1359
   35POPC   O32 4677   2.941   0.999  10.490  0.2944  0.0192 -0.3187
   35POPC   C32 4678   3.045   1.145  10.331  0.7115  0.2684 -0.2141
   35POPC   H2X 4679   3.152   1.172  10.322  0.9709 -1.2334 -1.8954
   35POPC   H2Y 4680   3.010   1.249  10.346 -0.9978 -0.3048 -0.1044
   35POPC   C23 4681   3.259   1.652  10.536 -0.5909  0.2213 -0.2010
   35POPC   H3R 4682   3.368   1.642  10.514 -0.4484  0.8539  0.1841
   35POPC   H3S 4683   3.262   1.752  10.585 -2.0316  0.2772 -0.2067
   35POPC   C24 4684   3.188   1.654  10.407  0.0944 -0.1172 -0.0477
   35POPC   H4R 4685   3.192   1.756  10.364  0.8490  0.5640  1.6038
   35POPC   H4S 4686   3.082   1.626  10.424  0.3362 -0.2385  1.2886
   35POPC   C25 4687   3.230   1.543  10.300 -0.1612 -0.6242 -0.2982
   35POPC   H5R 4688   3.264   1.455  10.359 -1.0644 -1.5097 -1.0711
   35POPC   H5S 4689   3.313   1.573  10.233  1.8712  1.4769  2.9842
   35POPC   C26 4690   3.115   1.502  10.208 -0.1598 -0.2092  0.3266
   35POPC   H6R 4691   3.024   1.528  10.265 -0.7415  2.4979 -1.7070
   35POPC   H6S 4692   3.122   1.392  10.193  2.5966 -0.2189  1.4028
   35POPC   C27 4693   3.090   1.585  10.077 -0.8924  0.0854 -0.3421
   35POPC   H7R 4694   3.106   1.694  10.091  1.4655 -0.4155  0.9958
   35POPC   H7S 4695   2.981   1.591  10.054 -1.1837 -0.3566  0.8972
   35POPC   C28 4696   3.164   1.529   9.952 -0.3308 -0.1443 -0.1824
   35POPC   H8R 4697   3.104   1.552   9.861  0.8199  1.7034 -0.5115
   35POPC   H8S 4698   3.156   1.422   9.978  0.0545 -0.0885  0.1690
   35POPC   C29 4699   3.308   1.573   9.930 -0.9411 -0.3315  0.5550
   35POPC   H91 4700   3.383   1.547  10.005 -0.4826  0.7253  0.4689
   35POPC  C210 4701   3.346   1.643   9.828 -0.4147  0.0238  0.8324
   35POPC  H101 4702   3.449   1.680   9.825  0.1505 -1.5601  0.4274
   35POPC  C211 4703   3.270   1.699   9.705  0.1775  0.0517 -0.8410
   35POPC  H11R 4704   3.290   1.807   9.688 -1.0872  0.4435  0.0323
   35POPC  H11S 4705   3.160   1.683   9.703  0.5906 -3.0562 -3.0860
   35POPC  C212 4706   3.340   1.623   9.587 -0.4364  0.0071 -0.0306
   35POPC  H12R 4707   3.314   1.515   9.586 -1.2150  0.1947 -0.0267
   35POPC  H12S 4708   3.450   1.642   9.588 -0.9437  3.2931 -0.1940
   35POPC  C213 4709   3.295   1.662   9.447  0.3172 -0.3404  0.6014
   35POPC  H13R 4710   3.306   1.772   9.439  2.4039 -0.7064 -2.1744
   35POPC  H13S 4711   3.186   1.651   9.430 -0.2454 -0.9133  4.0494
   35POPC  C214 4712   3.371   1.603   9.326  0.6600 -0.1189  0.2039
   35POPC  H14R 4713   3.347   1.495   9.332  0.5269  0.0235  2.4762
   35POPC  H14S 4714   3.481   1.612   9.338  0.6415  0.4583 -0.0592
   35POPC  C215 4715   3.317   1.663   9.191  0.3378  0.6603  0.4009
   35POPC  H15R 4716   3.353   1.765   9.167 -2.2591  1.8328  1.2965
   35POPC  H15S 4717   3.211   1.690   9.210 -0.0513  0.3064 -1.1992
   35POPC  C216 4718   3.335   1.571   9.081 -0.6453 -0.5191 -0.4147
   35POPC  H16R 4719   3.242   1.566   9.020 -1.0782  0.0416  0.1942
   35POPC  H16S 4720   3.345   1.469   9.123 -1.3711 -0.8244 -0.9692
   35POPC  C217 4721   3.452   1.614   8.986  0.1540  0.9236  0.8376
   35POPC  H17R 4722   3.549   1.620   9.040  0.3138 -0.3253  0.7034
   35POPC  H17S 4723   3.435   1.711   8.935  0.0352  1.1359  1.2768
   35POPC  C218 4724   3.466   1.505   8.877  0.3109 -0.2059 -0.1271
   35POPC  H18R 4725   3.545   1.544   8.808 -0.0925 -2.8172 -2.1803
   35POPC  H18S 4726   3.372   1.503   8.818  1.9431 -1.2254 -2.8199
   35POPC  H18T 4727   3.499   1.404   8.910  1.2883  0.1313 -0.0621
   35POPC   C33 4728   2.980   1.060  10.211  0.0550  0.2148 -0.1284
   35POPC   H3X 4729   2.882   1.027  10.253 -0.5620  0.9086 -1.0058
   35POPC   H3Y 4730   3.042   0.968  10.209 -1.8533 -1.1012  0.3360
   35POPC   C34 4731   2.966   1.141  10.088  0.4496 -0.3187  0.3066
   35POPC   H4X 4732   3.046   1.219  10.092 -1.0177  1.3222 -1.4574
   35POPC   H4Y 4733   2.867   1.189  10.077 -0.1012 -0.9904  2.1186
   35POPC   C35 4734   2.982   1.058   9.958 -0.0066  0.2586 -0.0619
   35POPC   H5X 4735   2.933   0.958   9.956 -1.3945  0.9322  0.1126
   35POPC   H5Y 4736   3.091   1.041   9.942  1.0259  5.3331  0.8392
   35POPC   C36 4737   2.938   1.120   9.822 -0.1417 -0.2953  0.1934
   35POPC   H6X 4738   2.828   1.137   9.830 -0.1037  0.1721 -0.2444
   35POPC   H6Y 4739   2.955   1.037   9.751  1.0790 -1.7051  2.0872
   35POPC   C37 4740   3.012   1.250   9.784  0.3245  0.5419  0.6743
   35POPC   H7X 4741   3.122   1.246   9.798  0.0903 -0.0560  2.3954
   35POPC   H7Y 4742   2.973   1.334   9.845 -0.0092 -0.3745  1.7302
   35POPC   C38 4743   2.985   1.299   9.635  0.1922 -0.5628  0.4059
   35POPC   H8X 4744   3.028   1.397   9.606 -0.0936 -0.6726 -0.3857
   35POPC   H8Y 4745   2.876   1.317   9.622  0.4489 -0.0827 -1.1934
   35POPC   C39 4746   3.039   1.204   9.526  0.3240 -0.8131  0.8512
   35POPC   H9X 4747   3.018   1.101   9.562 -0.7035 -0.3048  1.7042
   35POPC   H9Y 4748   3.148   1.228   9.528  0.0538  1.1173 -2.5655
   35POPC  C310 4749   2.976   1.217   9.385 -0.3883  0.2319  0.2518
   35POPC  H10X 4750   2.867   1.237   9.391 -0.6821 -1.3960  0.5929
   35POPC  H10Y 4751   2.993   1.126   9.324 -1.7358 -0.4130  0.7974
   35POPC  C311 4752   3.032   1.342   9.318 -0.1655  0.5977  0.1227
   35POPC  H11X 4753   3.143   1.343   9.317 -0.1702  0.9708 -1.0411
   35POPC  H11Y 4754   3.003   1.433   9.374 -1.6063  0.8103 -0.9342
   35POPC  C312 4755   3.000   1.350   9.166  0.2419 -0.2318  0.2803
   35POPC  H12X 4756   3.025   1.452   9.129  1.1459  0.1646  1.9273
   35POPC  H12Y 4757   2.893   1.333   9.143  0.1246  0.0794  0.5848
   35POPC  C313 4758   3.072   1.255   9.070 -0.1131  0.5254  0.1146
   35POPC  H13X 4759   3.057   1.151   9.106  1.6990 -0.0675 -0.8077
   35POPC  H13Y 4760   3.177   1.288   9.085 -0.2277  1.6831 -1.5340
   35POPC  C314 4761   3.035   1.267   8.924 -0.6051 -0.1996  0.3456
   35POPC  H14X 4762   3.049   1.370   8.886 -4.1960 -0.6504 -2.4958
   35POPC  H14Y 4763   2.925   1.247   8.921 -0.5661 -0.5608  1.2390
   35POPC  C315 4764   3.110   1.161   8.839  0.6142 -0.4860  0.3107
   35POPC  H15X 4765   3.116   1.064   8.894  0.5710 -0.3952  0.4788
   35POPC  H15Y 4766   3.213   1.198   8.821 -0.1578  1.7635  0.3146
   35POPC  C316 4767   3.044   1.140   8.699 -0.4304  0.3446  0.5787
   35POPC  H16X 4768   2.934   1.131   8.708 -0.3559 -1.1666  0.0512
   35POPC  H16Y 4769   3.078   1.047   8.649  0.6315 -0.7529  3.2367
   35POPC  H16Z 4770   3.074   1.230   8.641 -0.9308 -0.1390 -0.4332
   36POPC     N 4771   2.619   6.453  11.249 -0.2337 -0.3448 -0.1299
   36POPC   C12 4772   2.639   6.530  11.119 -0.4894 -0.0509  0.2105
   36POPC  H12A 4773   2.742   6.558  11.108 -0.2012 -1.1950 -0.1056
   36POPC  H12B 4774   2.585   6.624  11.120 -0.1994  0.1593 -1.4617
   36POPC   C13 4775   2.477   6.406  11.267  0.1352  0.0393 -0.4635
   36POPC  H13A 4776   2.407   6.484  11.245 -0.6542 -1.4933 -3.6582
   36POPC  H13B 4777   2.468   6.332  11.189 -1.9165 -0.1280 -0.0803
   36POPC  H13C 4778   2.458   6.377  11.369 -0.2317  2.5302  0.2094
   36POPC   C14 4779   2.701   6.327  11.242 -0.1625 -0.2954 -0.5695
   36POPC  H14A 4780   2.709   6.289  11.342 -3.1592 -1.1616 -0.6218
   36POPC  H14B 4781   2.657   6.259  11.171 -1.1233  0.5179 -0.7598
   36POPC  H14C 4782   2.800   6.353  11.207 -0.6306  1.7999 -0.4319
   36POPC   C15 4783   2.650   6.540  11.369  0.3937  0.3314 -0.0159
   36POPC  H15A 4784   2.570   6.611  11.383 -0.6261 -0.9303  0.7057
   36POPC  H15B 4785   2.739   6.598  11.353 -0.0149  0.6980 -0.9779
   36POPC  H15C 4786   2.663   6.491  11.464  3.4095  0.6487 -0.2002
   36POPC   C11 4787   2.593   6.463  10.984 -0.2388  0.2965  0.2925
   36POPC  H11A 4788   2.597   6.526  10.893 -0.8045 -0.4049 -0.2230
   36POPC  H11B 4789   2.484   6.440  10.990 -0.6967  1.6352 -2.3860
   36POPC     P 4790   2.809   6.342  10.895  0.1380 -0.0998  0.0513
   36POPC   O13 4791   2.906   6.250  10.968  0.0062 -0.1098  0.9564
   36POPC   O14 4792   2.852   6.485  10.883 -0.0649  0.3836  0.2303
   36POPC   O12 4793   2.668   6.335  10.961 -0.0450  0.3638 -0.1859
   36POPC   O11 4794   2.788   6.289  10.757 -0.0742  0.5431  0.1849
   36POPC    C1 4795   2.707   6.186  10.716  0.2628 -0.1330  0.6211
   36POPC    HA 4796   2.617   6.174  10.781 -0.4874 -1.0420 -0.5691
   36POPC    HB 4797   2.768   6.094  10.715  0.3323 -0.0933 -1.7192
   36POPC    C2 4798   2.658   6.213  10.573  0.0093 -0.3067 -0.6281
   36POPC    HS 4799   2.612   6.123  10.527  1.8716 -1.5665 -0.1078
   36POPC   O21 4800   2.760   6.266  10.496 -0.1135  0.0935  0.0688
   36POPC   C21 4801   2.836   6.169  10.449 -0.0205  0.1921 -0.2777
   36POPC   O22 4802   2.830   6.052  10.470  0.1789  0.1335  0.8958
   36POPC   C22 4803   2.927   6.226  10.339 -0.4438 -0.1645  0.4756
   36POPC   H2R 4804   3.022   6.253  10.389 -1.0687 -0.3115  1.7701
   36POPC   H2S 4805   2.895   6.324  10.296 -0.1910 -0.2592  0.0707
   36POPC    C3 4806   2.547   6.319  10.583 -0.3890 -0.1268 -0.7213
   36POPC    HX 4807   2.592   6.417  10.610 -0.5961  0.2052 -1.5511
   36POPC    HY 4808   2.477   6.293  10.666 -1.8994  1.6830 -1.3723
   36POPC   O31 4809   2.477   6.315  10.462  0.1646 -0.4675 -0.6197
   36POPC   C31 4810   2.420   6.429  10.424  0.1164 -0.5184 -0.7487
   36POPC   O32 4811   2.440   6.546  10.469  0.1225  0.3874 -0.0831
   36POPC   C32 4812   2.324   6.394  10.310  0.2879 -0.4518  0.6362
   36POPC   H2X 4813   2.220   6.406  10.347  1.0496  0.6252  2.4687
   36POPC   H2Y 4814   2.338   6.287  10.282 -1.9583 -0.4436 -0.6286
   36POPC   C23 4815   2.947   6.120  10.222  0.4590  0.2480  0.5094
   36POPC   H3R 4816   2.978   6.027  10.274 -0.1316  0.5041  1.3250
   36POPC   H3S 4817   3.035   6.152  10.162  0.4012  0.2393  0.4195
   36POPC   C24 4818   2.831   6.105  10.129 -0.7550  0.4461 -0.3883
   36POPC   H4R 4819   2.737   6.080  10.183 -1.6845  1.9125 -1.2923
   36POPC   H4S 4820   2.863   6.029  10.054  2.2039  4.5110 -3.4619
   36POPC   C25 4821   2.816   6.225  10.040  0.2841 -0.4406 -0.4868
   36POPC   H5R 4822   2.919   6.248  10.004  0.3743  0.5064  0.3387
   36POPC   H5S 4823   2.769   6.308  10.097 -3.2600 -1.1258 -2.2515
   36POPC   C26 4824   2.728   6.189   9.923 -0.1425  0.1609 -0.6207
   36POPC   H6R 4825   2.640   6.144   9.975 -0.5361  0.3887 -1.0836
   36POPC   H6S 4826   2.761   6.104   9.858 -2.3162 -1.5493  0.4419
   36POPC   C27 4827   2.689   6.308   9.843 -0.4442  0.4644  0.0654
   36POPC   H7R 4828   2.786   6.353   9.812 -0.3882  1.5415  1.7563
   36POPC   H7S 4829   2.629   6.387   9.893 -0.4634 -0.8130  2.1165
   36POPC   C28 4830   2.611   6.268   9.713 -0.5701 -0.1770  0.2180
   36POPC   H8R 4831   2.506   6.245   9.739 -1.0543  2.3544  0.6544
   36POPC   H8S 4832   2.646   6.172   9.668 -1.2880 -0.5387  0.4349
   36POPC   C29 4833   2.623   6.382   9.614  0.4037 -0.2562 -0.5220
   36POPC   H91 4834   2.554   6.468   9.611  0.6959  0.0328  0.8869
   36POPC  C210 4835   2.728   6.385   9.533  0.7278  0.6428 -0.3354
   36POPC  H101 4836   2.731   6.466   9.458  0.1220 -0.6484 -1.7909
   36POPC  C211 4837   2.848   6.296   9.524  0.6448 -0.4876 -0.5574
   36POPC  H11R 4838   2.847   6.208   9.593 -1.6131 -1.2052 -1.4791
   36POPC  H11S 4839   2.939   6.359   9.537 -0.1417  0.1074  2.6213
   36POPC  C212 4840   2.867   6.241   9.387 -0.0473 -0.0918  0.9372
   36POPC  H12R 4841   2.784   6.175   9.356  2.0824 -1.5829 -1.9001
   36POPC  H12S 4842   2.955   6.173   9.385 -1.1035 -1.4449 -1.7570
   36POPC  C213 4843   2.888   6.342   9.269  0.5698  0.5476  0.6162
   36POPC  H13R 4844   2.971   6.318   9.199  0.3711  0.1784  0.5052
   36POPC  H13S 4845   2.919   6.445   9.295 -1.3470  1.8024 -1.8848
   36POPC  C214 4846   2.759   6.344   9.185  0.1463  0.2281 -0.2252
   36POPC  H14R 4847   2.668   6.342   9.250 -0.6252  2.1226 -1.2182
   36POPC  H14S 4848   2.763   6.244   9.137  0.2915  0.7142 -1.2226
   36POPC  C215 4849   2.745   6.453   9.081 -0.0045  0.3832 -0.3312
   36POPC  H15R 4850   2.722   6.555   9.119 -3.7674 -0.3112 -0.6130
   36POPC  H15S 4851   2.664   6.418   9.014  0.8484 -0.9108 -0.7137
   36POPC  C216 4852   2.875   6.463   8.999  0.0211 -0.3774 -0.1984
   36POPC  H16R 4853   2.916   6.365   8.966 -2.6307 -1.3133 -0.7952
   36POPC  H16S 4854   2.955   6.508   9.062 -2.3651 -0.4022  2.9257
   36POPC  C217 4855   2.864   6.548   8.873  0.4272  0.1652  0.5538
   36POPC  H17R 4856   2.822   6.648   8.897  0.3341  0.4266 -0.6729
   36POPC  H17S 4857   2.787   6.491   8.815 -0.1971  1.9190 -0.3756
   36POPC  C218 4858   2.986   6.542   8.786  0.0555  0.2276  0.8158
   36POPC  H18R 4859   3.069   6.600   8.832  1.8959 -3.1614  1.8890
   36POPC  H18S 4860   2.972   6.583   8.684  0.9290 -0.4961  0.4025
   36POPC  H18T 4861   3.028   6.441   8.771 -0.1075 -0.4398  4.2843
   36POPC   C33 4862   2.322   6.485  10.188 -0.2508 -0.3029 -0.2036
   36POPC   H3X 4863   2.340   6.593  10.206  3.4169 -0.3959 -2.6904
   36POPC   H3Y 4864   2.217   6.487  10.150 -0.6175  0.1169  0.8130
   36POPC   C34 4865   2.407   6.436  10.073 -0.6571 -1.0330  0.1628
   36POPC   H4X 4866   2.381   6.328  10.068 -1.8593 -0.9371  3.5451
   36POPC   H4Y 4867   2.514   6.457  10.093 -0.8695  0.8402 -0.6168
   36POPC   C35 4868   2.361   6.513   9.949  0.0958  0.2168  0.0598
   36POPC   H5X 4869   2.455   6.526   9.891 -0.5863 -0.8780 -1.3296
   36POPC   H5Y 4870   2.329   6.618   9.960 -0.4098  0.2283 -1.4549
   36POPC   C36 4871   2.253   6.442   9.879 -0.2744  0.6648 -0.4729
   36POPC   H6X 4872   2.174   6.421   9.955  0.9668 -1.3075  0.3240
   36POPC   H6Y 4873   2.272   6.339   9.841 -0.7167  0.1184  0.7546
   36POPC   C37 4874   2.209   6.515   9.751  0.5168 -0.3884  0.8378
   36POPC   H7X 4875   2.187   6.620   9.780 -1.1801  0.3831 -2.8465
   36POPC   H7Y 4876   2.129   6.454   9.703  1.6001 -1.2777  0.1345
   36POPC   C38 4877   2.315   6.532   9.641 -0.1435 -1.1395 -0.5900
   36POPC   H8X 4878   2.342   6.427   9.617 -0.9146 -1.7626  1.1934
   36POPC   H8Y 4879   2.398   6.599   9.674 -1.2397 -0.2847  0.4665
   36POPC   C39 4880   2.253   6.585   9.511  0.5010 -0.1763  0.0400
   36POPC   H9X 4881   2.238   6.694   9.516  1.7456 -0.0111  0.4350
   36POPC   H9Y 4882   2.149   6.549   9.498 -0.1899  2.4423 -2.0064
   36POPC  C310 4883   2.346   6.551   9.391  0.0131  0.6169 -0.7290
   36POPC  H10X 4884   2.368   6.443   9.383 -0.3184  0.6729 -2.5555
   36POPC  H10Y 4885   2.443   6.598   9.418 -0.9190  0.7291  2.6321
   36POPC  C311 4886   2.294   6.613   9.257 -0.0588  0.5231 -0.1318
   36POPC  H11X 4887   2.274   6.723   9.262  1.4801  0.9286 -2.1806
   36POPC  H11Y 4888   2.208   6.554   9.221 -1.2612  2.2589 -0.1940
   36POPC  C312 4889   2.399   6.601   9.146  0.7176 -0.2695 -0.0910
   36POPC  H12X 4890   2.436   6.497   9.154  1.7587  0.0212 -1.0167
   36POPC  H12Y 4891   2.486   6.666   9.171  1.8002 -1.5924 -0.3523
   36POPC  C313 4892   2.338   6.620   9.003 -0.4377  0.2553 -0.5700
   36POPC  H13X 4893   2.260   6.698   9.007 -0.7586 -0.1626  2.0520
   36POPC  H13Y 4894   2.278   6.532   8.972 -0.8106  0.0562  0.6957
   36POPC  C314 4895   2.439   6.669   8.900 -0.0236  0.1916  0.2979
   36POPC  H14X 4896   2.403   6.670   8.795  2.1186 -0.5263 -0.4642
   36POPC  H14Y 4897   2.518   6.591   8.897 -1.9596 -1.7549 -3.8749
   36POPC  C315 4898   2.499   6.810   8.920 -0.2894  0.3443 -0.4112
   36POPC  H15X 4899   2.589   6.830   8.858 -0.3138  1.2004 -0.1790
   36POPC  H15Y 4900   2.528   6.823   9.026  0.5523  0.3817 -0.6423
   36POPC  C316 4901   2.393   6.915   8.878 -0.4757 -0.1883  0.1407
   36POPC  H16X 4902   2.364   6.882   8.775  1.7863  0.0340 -0.6092
   36POPC  H16Y 4903   2.446   7.011   8.863 -0.3319  0.0542  2.1276
   36POPC  H16Z 4904   2.299   6.906   8.935 -0.7116  0.3784 -0.1531
   37POPC     N 4905   2.151   1.258   6.372 -0.3564  0.1059  0.1348
   37POPC   C12 4906   2.049   1.220   6.478 -0.9675  0.0819  0.1158
   37POPC  H12A 4907   2.097   1.226   6.575  0.0220  0.6977 -0.3979
   37POPC  H12B 4908   2.028   1.116   6.459 -1.8307  0.7594 -2.8889
   37POPC   C13 4909   2.207   1.393   6.397 -0.3922 -0.7800  0.5811
   37POPC  H13A 4910   2.135   1.472   6.417  0.1330 -0.1479 -0.0253
   37POPC  H13B 4911   2.255   1.397   6.494  1.7466 -1.6577 -0.4205
   37POPC  H13C 4912   2.276   1.421   6.319 -0.5088  0.2781  0.8541
   37POPC   C14 4913   2.268   1.160   6.383  0.5191  0.0929 -0.4683
   37POPC  H14A 4914   2.356   1.199   6.334  0.7994  0.4622  0.3189
   37POPC  H14B 4915   2.303   1.156   6.485  1.5361 -0.3543 -0.8328
   37POPC  H14C 4916   2.243   1.063   6.343  0.9549 -0.5886  0.8914
   37POPC   C15 4917   2.097   1.258   6.241 -0.3370  0.0662  0.3538
   37POPC  H15A 4918   2.174   1.269   6.166 -0.6446 -0.5644 -0.0627
   37POPC  H15B 4919   2.017   1.330   6.230  1.7447  2.4259  0.3713
   37POPC  H15C 4920   2.062   1.162   6.206  0.3095 -0.7163  1.8236
   37POPC   C11 4921   1.919   1.298   6.493 -0.9625  0.3754 -0.1992
   37POPC  H11A 4922   1.874   1.250   6.583  3.6764 -0.8125  1.6845
   37POPC  H11B 4923   1.857   1.275   6.404 -1.5731 -1.5755  0.6899
   37POPC     P 4924   1.964   1.505   6.658 -0.0844 -0.4954 -0.3783
   37POPC   O13 4925   1.953   1.652   6.645  0.2648  0.5581 -0.0973
   37POPC   O14 4926   2.090   1.460   6.717 -0.2728 -0.3650  0.0362
   37POPC   O12 4927   1.934   1.433   6.518 -0.4653  0.3144 -0.1409
   37POPC   O11 4928   1.848   1.453   6.752 -0.2210 -0.4565  0.0663
   37POPC    C1 4929   1.717   1.485   6.714 -0.1373  0.2397 -0.1988
   37POPC    HA 4930   1.698   1.468   6.606  0.1425 -0.7149 -0.1051
   37POPC    HB 4931   1.691   1.590   6.737 -0.2260 -0.1840  1.7750
   37POPC    C2 4932   1.617   1.392   6.792 -0.0485 -0.0486  0.4685
   37POPC    HS 4933   1.517   1.439   6.781  0.7027  1.0827 -1.9053
   37POPC   O21 4934   1.646   1.372   6.929  0.0386  0.8229 -0.6365
   37POPC   C21 4935   1.654   1.481   7.004 -0.2653  0.3067 -0.1979
   37POPC   O22 4936   1.614   1.595   6.976  0.1384  0.2946  0.3016
   37POPC   C22 4937   1.701   1.430   7.134 -0.4415  0.7018  0.5677
   37POPC   H2R 4938   1.795   1.374   7.116 -0.8135  0.7989 -1.7258
   37POPC   H2S 4939   1.623   1.364   7.176 -0.2757 -0.6971 -1.2832
   37POPC    C3 4940   1.605   1.253   6.738  0.4882  0.2913  0.2415
   37POPC    HX 4941   1.703   1.207   6.763 -0.1537 -0.1012  2.1803
   37POPC    HY 4942   1.602   1.257   6.627  2.6845  0.6641  0.1872
   37POPC   O31 4943   1.490   1.186   6.798  0.3636  0.3023  0.1986
   37POPC   C31 4944   1.481   1.056   6.748 -0.0925 -0.4465  0.8219
   37POPC   O32 4945   1.566   1.005   6.677  0.0577 -0.2154  0.1888
   37POPC   C32 4946   1.355   0.987   6.807 -0.5361  0.4842 -0.6954
   37POPC   H2X 4947   1.357   0.884   6.767 -1.6746 -0.5094  1.7566
   37POPC   H2Y 4948   1.272   1.037   6.752 -0.0368  0.1587 -1.7625
   37POPC   C23 4949   1.738   1.546   7.234  0.7309  0.5103  0.8467
   37POPC   H3R 4950   1.663   1.628   7.231 -0.8263 -0.9195 -1.8184
   37POPC   H3S 4951   1.831   1.586   7.188  0.5354 -1.7192 -1.6716
   37POPC   C24 4952   1.758   1.486   7.374 -0.6610 -0.0502  0.7422
   37POPC   H4R 4953   1.831   1.402   7.367 -0.5280 -0.0263  1.7546
   37POPC   H4S 4954   1.661   1.456   7.420 -1.6806  1.1278 -0.6025
   37POPC   C25 4955   1.818   1.595   7.470  0.2524 -0.0457  0.0693
   37POPC   H5R 4956   1.753   1.685   7.469  0.1608 -0.1163 -0.3766
   37POPC   H5S 4957   1.916   1.625   7.427  0.3757 -0.6493 -0.0818
   37POPC   C26 4958   1.828   1.544   7.614  0.0312 -0.3142  0.2954
   37POPC   H6R 4959   1.902   1.461   7.620  2.2810  1.2904 -3.1271
   37POPC   H6S 4960   1.729   1.512   7.650 -0.3049  1.2709  0.8352
   37POPC   C27 4961   1.861   1.667   7.708 -0.6511  0.0640  0.4392
   37POPC   H7R 4962   1.765   1.724   7.705 -2.3206 -2.7815 -3.0444
   37POPC   H7S 4963   1.948   1.723   7.668 -1.1522  0.4601 -0.0953
   37POPC   C28 4964   1.874   1.607   7.846  0.2576  0.4069 -0.5853
   37POPC   H8R 4965   1.942   1.519   7.843 -0.6504 -0.2709 -1.2278
   37POPC   H8S 4966   1.773   1.575   7.878  0.7642 -0.9533 -0.3447
   37POPC   C29 4967   1.926   1.696   7.948  0.1655  0.6666 -0.3958
   37POPC   H91 4968   1.874   1.792   7.962  1.1560  1.2353 -0.5526
   37POPC  C210 4969   2.036   1.684   8.024  0.0590  0.5059 -0.0190
   37POPC  H101 4970   2.071   1.777   8.073 -0.4011  0.7108 -0.0751
   37POPC  C211 4971   2.131   1.576   8.033 -0.0326 -0.2013  0.8006
   37POPC  H11R 4972   2.098   1.485   7.979  1.3815 -0.8232  0.9349
   37POPC  H11S 4973   2.134   1.534   8.135  0.9805  0.6213  1.1243
   37POPC  C212 4974   2.278   1.600   8.000 -0.0614 -0.7410  0.1997
   37POPC  H12R 4975   2.321   1.502   8.032 -0.9003 -0.7741  1.2584
   37POPC  H12S 4976   2.322   1.666   8.078 -1.5974  0.3166  0.1887
   37POPC  C213 4977   2.304   1.655   7.864  0.5140  0.6027 -0.6184
   37POPC  H13R 4978   2.412   1.677   7.850  0.3831  1.5453 -0.2230
   37POPC  H13S 4979   2.261   1.757   7.854 -0.5672  0.2475  0.3485
   37POPC  C214 4980   2.247   1.560   7.756 -0.4119 -0.5391  0.1316
   37POPC  H14R 4981   2.137   1.547   7.762 -0.0821 -2.5595  2.7856
   37POPC  H14S 4982   2.284   1.455   7.758  4.1301  0.9467 -1.2413
   37POPC  C215 4983   2.278   1.612   7.617 -0.0346 -0.1451  0.2192
   37POPC  H15R 4984   2.387   1.598   7.599  0.0772 -1.5522  1.8436
   37POPC  H15S 4985   2.243   1.717   7.618 -0.3685 -0.2471  2.1940
   37POPC  C216 4986   2.215   1.541   7.494  0.5542 -0.5738 -0.2397
   37POPC  H16R 4987   2.106   1.562   7.496  0.4948 -0.9635  1.0680
   37POPC  H16S 4988   2.216   1.433   7.521  0.2007 -0.1856  1.3892
   37POPC  C217 4989   2.276   1.573   7.362 -0.5455 -0.0719  0.4905
   37POPC  H17R 4990   2.382   1.543   7.379 -0.4785 -0.2775 -0.2729
   37POPC  H17S 4991   2.269   1.682   7.340  0.5297 -0.2778 -0.9461
   37POPC  C218 4992   2.212   1.507   7.245  0.8098 -0.0197 -0.3385
   37POPC  H18R 4993   2.107   1.534   7.218  0.2167 -0.9672  0.9707
   37POPC  H18S 4994   2.222   1.402   7.277 -0.0037 -0.2204 -0.7219
   37POPC  H18T 4995   2.262   1.527   7.148 -0.0547 -1.2067 -1.0309
   37POPC   C33 4996   1.349   0.972   6.960  0.6152  0.2309  0.1757
   37POPC   H3X 4997   1.445   0.946   7.010 -0.8795 -2.2095  1.8210
   37POPC   H3Y 4998   1.277   0.896   6.995 -1.7455  1.9086 -0.8828
   37POPC   C34 4999   1.299   1.101   7.026  0.4750  0.4835  0.0272
   37POPC   H4X 5000   1.202   1.122   6.976  0.0681  0.2149  0.6856
   37POPC   H4Y 5001   1.373   1.179   7.001 -2.1260  1.9123 -3.6440
   37POPC   C35 5002   1.255   1.088   7.175 -0.1756  0.0441  0.5040
   37POPC   H5X 5003   1.170   1.016   7.183 -0.6303  0.3205 -1.4471
   37POPC   H5Y 5004   1.232   1.192   7.206  0.5015  0.3559 -0.0404
   37POPC   C36 5005   1.369   1.041   7.267  0.6521  0.1137  0.3070
   37POPC   H6X 5006   1.404   0.939   7.242 -0.3641 -0.2018  0.1544
   37POPC   H6Y 5007   1.326   1.038   7.369 -0.6494  0.5900 -0.2136
   37POPC   C37 5008   1.484   1.140   7.272 -0.0312 -0.7071 -0.2942
   37POPC   H7X 5009   1.430   1.236   7.286 -1.1764 -1.1855 -1.4052
   37POPC   H7Y 5010   1.546   1.142   7.179 -2.0049  2.2478 -1.6124
   37POPC   C38 5011   1.581   1.108   7.385 -0.3426 -0.2832 -0.1164
   37POPC   H8X 5012   1.676   1.162   7.363 -0.4963 -0.6110 -1.6292
   37POPC   H8Y 5013   1.611   1.001   7.380  2.5110  0.4361  0.7203
   37POPC   C39 5014   1.534   1.140   7.530  0.3975 -0.9648 -0.3804
   37POPC   H9X 5015   1.423   1.136   7.527  0.3367  0.2734  0.0377
   37POPC   H9Y 5016   1.567   1.245   7.545  1.3843 -1.1176 -1.3758
   37POPC  C310 5017   1.595   1.034   7.622  0.6159 -0.2605  0.1604
   37POPC  H10X 5018   1.704   1.022   7.612  0.4864 -1.0622 -0.2915
   37POPC  H10Y 5019   1.547   0.936   7.598  0.2153  0.3550 -1.6195
   37POPC  C311 5020   1.587   1.074   7.776  0.5079 -0.8533  0.0888
   37POPC  H11X 5021   1.492   1.128   7.794  0.7734 -0.1434 -0.6220
   37POPC  H11Y 5022   1.667   1.149   7.795 -1.1502  1.0324 -0.1688
   37POPC  C312 5023   1.588   0.959   7.874  0.0420 -1.0327  0.3441
   37POPC  H12X 5024   1.676   0.895   7.852 -0.7419 -1.5450 -1.4037
   37POPC  H12Y 5025   1.509   0.882   7.860  0.8246 -1.7353 -0.2358
   37POPC  C313 5026   1.598   1.008   8.014 -0.7267  0.3622 -0.0398
   37POPC  H13X 5027   1.511   1.070   8.043 -1.5870 -0.7321 -0.2757
   37POPC  H13Y 5028   1.689   1.072   8.022 -1.2674  1.2233 -0.6704
   37POPC  C314 5029   1.607   0.881   8.100  0.8520  0.1377 -0.0503
   37POPC  H14X 5030   1.687   0.813   8.063  1.0285  1.0545 -1.3712
   37POPC  H14Y 5031   1.512   0.824   8.104 -0.1495  1.8566  1.0850
   37POPC  C315 5032   1.642   0.926   8.244  0.2379 -0.1893  0.2019
   37POPC  H15X 5033   1.571   1.007   8.273 -0.7370 -0.2105 -2.0347
   37POPC  H15Y 5034   1.745   0.966   8.251  0.1154 -0.1093  1.6810
   37POPC  C316 5035   1.638   0.809   8.350  0.4468  0.1540 -0.0399
   37POPC  H16X 5036   1.700   0.730   8.301  1.2449  1.0041 -0.4235
   37POPC  H16Y 5037   1.537   0.773   8.378 -0.9366  2.2394 -2.1642
   37POPC  H16Z 5038   1.697   0.833   8.441  0.9757 -1.3580  0.0228
   38POPC     N 5039   3.008   5.521   6.016  0.3579  0.0675 -0.0492
   38POPC   C12 5040   3.075   5.484   6.144  0.3026 -0.2112  0.1993
   38POPC  H12A 5041   3.023   5.539   6.221 -1.0148  0.0772 -0.8718
   38POPC  H12B 5042   3.171   5.531   6.138 -1.0542  2.6639  0.0285
   38POPC   C13 5043   3.104   5.490   5.904 -0.2187  0.6761 -0.4247
   38POPC  H13A 5044   3.068   5.529   5.810  2.3345 -2.2225 -2.7042
   38POPC  H13B 5045   3.207   5.518   5.922 -0.2786  0.9855 -0.5593
   38POPC  H13C 5046   3.113   5.383   5.895  0.3159  0.5361  1.4995
   38POPC   C14 5047   2.887   5.429   6.004 -0.6520 -1.0437 -0.4268
   38POPC  H14A 5048   2.924   5.328   6.006  0.4460 -0.6529 -0.6938
   38POPC  H14B 5049   2.824   5.449   6.090  0.1958  0.3106 -0.0960
   38POPC  H14C 5050   2.829   5.456   5.917  0.7208 -0.1415 -1.0829
   38POPC   C15 5051   2.975   5.662   6.013  0.0402  0.2610 -0.1021
   38POPC  H15A 5052   3.059   5.729   6.026  0.0226  0.4976 -1.1531
   38POPC  H15B 5053   2.899   5.690   6.084 -0.3517 -0.4096 -0.2602
   38POPC  H15C 5054   2.930   5.691   5.919 -2.1731  0.2713  0.9384
   38POPC   C11 5055   3.096   5.344   6.191 -0.3413  0.1381 -0.7526
   38POPC  H11A 5056   3.174   5.335   6.270 -1.1948 -0.4843  0.0303
   38POPC  H11B 5057   3.139   5.293   6.102  1.6452 -1.2858  0.9872
   38POPC     P 5058   2.933   5.289   6.387 -0.3927  0.0912 -0.0889
   38POPC   O13 5059   2.839   5.179   6.413  0.4880  0.2972 -0.1826
   38POPC   O14 5060   2.875   5.425   6.420  0.2054  0.4654 -0.0255
   38POPC   O12 5061   2.977   5.281   6.234  0.6380 -0.5450  0.5532
   38POPC   O11 5062   3.067   5.261   6.471  0.3073 -0.7192 -0.0591
   38POPC    C1 5063   3.131   5.132   6.472 -0.7140  0.1079 -0.7780
   38POPC    HA 5064   3.240   5.144   6.488 -1.0177  1.4389  0.3517
   38POPC    HB 5065   3.117   5.081   6.374 -1.8223  0.5918 -0.8748
   38POPC    C2 5066   3.082   5.042   6.582 -0.3494  0.5877 -0.1451
   38POPC    HS 5067   2.979   5.012   6.552 -1.2852  0.2191  3.2922
   38POPC   O21 5068   3.091   5.100   6.713 -0.1764  0.4832  0.3495
   38POPC   C21 5069   2.971   5.147   6.749  0.2166  1.1803 -0.2918
   38POPC   O22 5070   2.856   5.121   6.704 -0.1095 -0.2655  0.2410
   38POPC   C22 5071   2.994   5.244   6.871 -0.5538  0.0173 -0.3061
   38POPC   H2R 5072   2.961   5.343   6.834 -2.2892 -0.7967 -0.9986
   38POPC   H2S 5073   3.102   5.248   6.898 -0.0091 -1.6955 -2.1101
   38POPC    C3 5074   3.159   4.907   6.589 -0.0957  0.3178  0.1733
   38POPC    HX 5075   3.148   4.863   6.488 -2.5787 -0.3303  0.7110
   38POPC    HY 5076   3.123   4.842   6.672 -0.8624  0.0657 -0.3526
   38POPC   O31 5077   3.302   4.932   6.605 -0.8604  0.3680  0.6903
   38POPC   C31 5078   3.384   4.827   6.592 -0.4663  0.0176 -0.1700
   38POPC   O32 5079   3.347   4.711   6.562 -0.0372 -0.1103  0.5788
   38POPC   C32 5080   3.523   4.880   6.607  0.2042 -0.0878  0.2948
   38POPC   H2X 5081   3.516   4.991   6.615 -0.5685 -0.2410  1.8935
   38POPC   H2Y 5082   3.587   4.859   6.519  0.4929  1.0325  0.2334
   38POPC   C23 5083   2.903   5.212   6.985 -0.0324 -0.0414 -0.3397
   38POPC   H3R 5084   2.802   5.175   6.955  0.9026 -1.4003 -1.8918
   38POPC   H3S 5085   2.886   5.296   7.055  3.3095  1.2615 -0.9940
   38POPC   C24 5086   2.983   5.117   7.078 -0.1180 -0.3328  0.5768
   38POPC   H4R 5087   3.063   5.174   7.129 -0.9788  1.4848 -0.0622
   38POPC   H4S 5088   3.035   5.039   7.018  1.0909  1.7319 -1.1236
   38POPC   C25 5089   2.903   5.044   7.188  0.2938  0.6086  0.1863
   38POPC   H5R 5090   2.967   4.962   7.226  0.3205  0.5786  0.0748
   38POPC   H5S 5091   2.809   4.995   7.155  0.9732 -0.4663 -0.1910
   38POPC   C26 5092   2.877   5.136   7.307  0.2560  0.7596  0.1395
   38POPC   H6R 5093   2.815   5.223   7.279 -1.2417 -0.8369 -1.6024
   38POPC   H6S 5094   2.976   5.171   7.346  0.2477  2.3864 -1.2521
   38POPC   C27 5095   2.815   5.053   7.420 -0.4631 -0.7782 -0.5341
   38POPC   H7R 5096   2.877   4.964   7.445 -0.7586 -0.8912 -0.1993
   38POPC   H7S 5097   2.717   5.009   7.390  0.6913 -2.6048 -1.7392
   38POPC   C28 5098   2.762   5.144   7.535  0.0842 -0.6262  0.7702
   38POPC   H8R 5099   2.703   5.087   7.610 -1.4758  1.2686  1.0045
   38POPC   H8S 5100   2.693   5.216   7.486 -1.0562 -1.7838  0.6630
   38POPC   C29 5101   2.865   5.241   7.602  0.2629  0.0150 -0.1892
   38POPC   H91 5102   2.937   5.290   7.535 -1.3089  2.1638 -0.3863
   38POPC  C210 5103   2.880   5.260   7.729 -0.3329  0.3721 -0.8384
   38POPC  H101 5104   2.962   5.323   7.768 -1.0683  0.6160  0.3354
   38POPC  C211 5105   2.804   5.185   7.837 -0.5188  0.0453  0.0810
   38POPC  H11R 5106   2.805   5.074   7.827  0.9628 -0.1751  2.3455
   38POPC  H11S 5107   2.704   5.231   7.826  0.0063  0.8007 -1.8780
   38POPC  C212 5108   2.843   5.236   7.986  0.0142 -0.0075  0.5155
   38POPC  H12R 5109   2.775   5.173   8.048 -2.0339  2.1626  0.5797
   38POPC  H12S 5110   2.829   5.346   7.990 -0.1505  0.0369 -0.9783
   38POPC  C213 5111   2.985   5.193   8.021 -0.0529 -0.1031  0.4830
   38POPC  H13R 5112   3.063   5.241   7.959 -0.0662  0.0408  0.5773
   38POPC  H13S 5113   2.976   5.085   7.993 -0.6902 -0.3185  1.5050
   38POPC  C214 5114   3.031   5.215   8.168 -0.1065 -0.5510 -0.4102
   38POPC  H14R 5115   3.138   5.187   8.173  0.0348  0.1658  0.6969
   38POPC  H14S 5116   2.966   5.162   8.240 -0.0050  2.0405  1.6559
   38POPC  C215 5117   3.042   5.368   8.199 -0.0343 -0.4228  0.5392
   38POPC  H15R 5118   2.945   5.417   8.178  0.3287 -0.0135 -0.2038
   38POPC  H15S 5119   3.123   5.407   8.133 -0.7412  0.0328 -0.0579
   38POPC  C216 5120   3.072   5.412   8.340 -0.0040  0.6299  1.0480
   38POPC  H16R 5121   3.167   5.375   8.384 -0.2142 -1.4180 -0.1560
   38POPC  H16S 5122   2.984   5.384   8.402  1.9599 -3.0917  2.3164
   38POPC  C217 5123   3.085   5.565   8.334  0.3235  0.4049  0.0446
   38POPC  H17R 5124   2.998   5.609   8.281 -0.7673 -0.7874  0.8098
   38POPC  H17S 5125   3.175   5.596   8.277  0.4871 -1.5204 -0.7972
   38POPC  C218 5126   3.105   5.617   8.476 -0.3555 -0.0349 -0.3355
   38POPC  H18R 5127   3.083   5.726   8.479  2.1451  0.4593  2.7040
   38POPC  H18S 5128   3.209   5.602   8.513 -0.9621 -0.2112  1.3616
   38POPC  H18T 5129   3.031   5.568   8.543 -0.7796  1.7522  0.5419
   38POPC   C33 5130   3.580   4.833   6.736  0.8720  0.3498  0.9401
   38POPC   H3X 5131   3.522   4.868   6.824 -0.1562 -0.9555  0.7927
   38POPC   H3Y 5132   3.682   4.878   6.745  0.6353  0.9190  0.7972
   38POPC   C34 5133   3.609   4.682   6.742 -0.3651 -0.1251 -0.5338
   38POPC   H4X 5134   3.651   4.656   6.643 -1.2110  0.2999 -1.0050
   38POPC   H4Y 5135   3.508   4.640   6.759  1.0357 -3.3518  0.3162
   38POPC   C35 5136   3.699   4.638   6.856  0.6941  0.3173 -0.2361
   38POPC   H5X 5137   3.802   4.679   6.851  0.9087 -0.0808  0.8836
   38POPC   H5Y 5138   3.719   4.528   6.859 -0.6298  0.0341 -1.0577
   38POPC   C36 5139   3.648   4.676   6.996 -0.1764 -0.4628 -0.0191
   38POPC   H6X 5140   3.538   4.675   7.012  0.2780 -0.1641  3.3670
   38POPC   H6Y 5141   3.668   4.784   7.013 -3.0670  0.0123  0.6053
   38POPC   C37 5142   3.716   4.586   7.112 -0.3632 -0.6688  0.4661
   38POPC   H7X 5143   3.825   4.594   7.095 -0.6525 -0.5285 -1.5198
   38POPC   H7Y 5144   3.688   4.484   7.079  0.7764 -0.9492  0.3476
   38POPC   C38 5145   3.679   4.622   7.251 -0.5258  0.0077 -0.4479
   38POPC   H8X 5146   3.572   4.653   7.252  0.0046  1.9057  0.0381
   38POPC   H8Y 5147   3.724   4.718   7.283  0.0459 -0.9139  1.5784
   38POPC   C39 5148   3.714   4.513   7.356 -0.1369  0.6040  0.5128
   38POPC   H9X 5149   3.818   4.477   7.347 -0.6488 -0.8801  0.3808
   38POPC   H9Y 5150   3.647   4.426   7.341  0.9475 -0.2667  0.7143
   38POPC  C310 5151   3.695   4.556   7.504  0.9902  0.2274  0.9638
   38POPC  H10X 5152   3.627   4.643   7.512 -1.1429 -1.2948 -0.0561
   38POPC  H10Y 5153   3.801   4.577   7.530  1.0296  3.5078 -1.5708
   38POPC  C311 5154   3.655   4.437   7.589 -0.0415  0.2713  1.1839
   38POPC  H11X 5155   3.725   4.351   7.578 -0.2654  0.1918  0.3619
   38POPC  H11Y 5156   3.557   4.402   7.552  1.4424  0.6498 -3.4644
   38POPC  C312 5157   3.624   4.474   7.734 -0.3496  0.1268 -0.1633
   38POPC  H12X 5158   3.564   4.389   7.775 -1.0082  1.5732  1.9484
   38POPC  H12Y 5159   3.551   4.558   7.723  0.3275  0.3970 -2.8222
   38POPC  C313 5160   3.743   4.503   7.834  0.2990  0.6249  0.0439
   38POPC  H13X 5161   3.798   4.596   7.808  2.7801 -1.0686 -0.9225
   38POPC  H13Y 5162   3.822   4.427   7.817  1.0556  1.5327 -0.5373
   38POPC  C314 5163   3.694   4.492   7.977  0.3716 -0.7034  1.1157
   38POPC  H14X 5164   3.658   4.387   7.984  0.4828 -1.0568 -2.6179
   38POPC  H14Y 5165   3.609   4.561   8.000  1.7873  1.3165  0.4296
   38POPC  C315 5166   3.795   4.515   8.086  0.2289  0.0569  0.4945
   38POPC  H15X 5167   3.742   4.493   8.181  0.3067 -0.7050  0.3582
   38POPC  H15Y 5168   3.814   4.623   8.065 -2.1681  0.1776 -1.3646
   38POPC  C316 5169   3.920   4.429   8.073 -0.1898  0.0703 -0.1216
   38POPC  H16X 5170   3.999   4.460   8.144  0.2585  0.9720 -1.0058
   38POPC  H16Y 5171   3.974   4.438   7.977  2.9164  2.2029  1.7512
   38POPC  H16Z 5172   3.908   4.319   8.085 -0.9617  0.1584 -0.0593
   39POPC     N 5173   0.082   2.466   5.905 -0.4229 -0.0229 -0.3978
   39POPC   C12 5174  -0.066   2.491   5.943 -0.6866 -0.3317 -0.4670
   39POPC  H12A 5175  -0.097   2.559   5.865 -0.6843 -0.9292 -0.9891
   39POPC  H12B 5176  -0.069   2.539   6.039  0.6501  1.6606 -1.3905
   39POPC   C13 5177   0.144   2.373   6.007  0.1037 -0.2513 -0.6925
   39POPC  H13A 5178   0.072   2.294   6.024  0.2408 -0.4682 -1.1053
   39POPC  H13B 5179   0.240   2.337   5.973  0.4886 -1.4917  1.6020
   39POPC  H13C 5180   0.148   2.433   6.096 -2.4328  0.0630 -0.7507
   39POPC   C14 5181   0.102   2.402   5.771  0.1386  0.2380 -0.2431
   39POPC  H14A 5182   0.075   2.473   5.694 -1.7522 -0.6585 -0.4405
   39POPC  H14B 5183   0.205   2.379   5.748 -0.5758 -0.4448 -2.8348
   39POPC  H14C 5184   0.040   2.317   5.748 -2.8678  1.7194  1.8833
   39POPC   C15 5185   0.160   2.592   5.910 -0.0815  0.2957  0.3017
   39POPC  H15A 5186   0.142   2.645   6.002  1.8509 -2.4853  2.3668
   39POPC  H15B 5187   0.131   2.655   5.827  1.3254  2.5689  1.4845
   39POPC  H15C 5188   0.266   2.577   5.896 -0.4038 -2.5134  0.6024
   39POPC   C11 5189  -0.165   2.373   5.954  0.4750 -0.0823 -0.6249
   39POPC  H11A 5190  -0.176   2.333   5.851 -0.3879  0.2493 -0.6673
   39POPC  H11B 5191  -0.263   2.417   5.982  0.9361  0.0493  0.8374
   39POPC     P 5192  -0.219   2.204   6.147  0.0460 -0.3420  0.8302
   39POPC   O13 5193  -0.160   2.073   6.185 -0.6566  0.1804  0.1272
   39POPC   O14 5194  -0.347   2.194   6.075 -0.0251 -0.2543 -0.1437
   39POPC   O12 5195  -0.119   2.270   6.038  0.4062 -0.0361  0.5138
   39POPC   O11 5196  -0.225   2.300   6.271 -0.5961  0.0893 -0.0823
   39POPC    C1 5197  -0.117   2.389   6.309  0.6720 -0.0389  0.3779
   39POPC    HA 5198  -0.160   2.488   6.333 -1.2607 -1.0015  1.0156
   39POPC    HB 5199  -0.042   2.411   6.229  0.5486  1.3199  0.6355
   39POPC    C2 5200  -0.034   2.329   6.425 -0.4896  0.4764 -0.1344
   39POPC    HS 5201  -0.022   2.222   6.400  3.1714  0.6727  0.5216
   39POPC   O21 5202  -0.105   2.339   6.551  0.2604  0.0464  0.2012
   39POPC   C21 5203  -0.132   2.223   6.609 -0.5064  0.0674  0.6885
   39POPC   O22 5204  -0.113   2.110   6.564  0.8215  0.3452  0.0831
   39POPC   C22 5205  -0.188   2.264   6.747  0.7454  0.6208  0.2721
   39POPC   H2R 5206  -0.272   2.192   6.762 -1.8698  2.5886 -4.1153
   39POPC   H2S 5207  -0.230   2.366   6.737  2.7144  1.4517  0.2394
   39POPC    C3 5208   0.108   2.396   6.442 -0.2976 -0.2324  0.4554
   39POPC    HX 5209   0.089   2.496   6.486  0.4301  0.3691 -0.5804
   39POPC    HY 5210   0.143   2.417   6.339 -1.4110 -0.3348  0.0482
   39POPC   O31 5211   0.191   2.311   6.518  0.3071 -0.2041  0.6070
   39POPC   C31 5212   0.279   2.239   6.452 -0.5093  0.6021 -0.3252
   39POPC   O32 5213   0.292   2.225   6.328  0.6160  0.6038 -0.2313
   39POPC   C32 5214   0.381   2.171   6.543 -0.3858 -0.4171 -0.4288
   39POPC   H2X 5215   0.408   2.252   6.615  1.6773  0.0833 -1.7445
   39POPC   H2Y 5216   0.326   2.103   6.611 -0.2395  1.4474  1.6366
   39POPC   C23 5217  -0.088   2.274   6.860  0.1328  0.4123  0.3858
   39POPC   H3R 5218   0.008   2.316   6.822 -0.4224  0.2331 -1.2728
   39POPC   H3S 5219  -0.061   2.169   6.883  2.3078  0.6943 -0.6782
   39POPC   C24 5220  -0.134   2.349   6.983 -0.0159  0.6784 -0.1987
   39POPC   H4R 5221  -0.162   2.453   6.954 -1.4695  0.5957  0.8447
   39POPC   H4S 5222  -0.055   2.355   7.061 -0.6276  0.2095  0.4663
   39POPC   C25 5223  -0.254   2.281   7.053 -0.2074  0.2651 -0.4636
   39POPC   H5R 5224  -0.222   2.178   7.081  0.7715  0.9807  1.0747
   39POPC   H5S 5225  -0.340   2.267   6.984 -1.2407  2.1474  0.4334
   39POPC   C26 5226  -0.313   2.367   7.177 -1.1591 -0.1262  0.2205
   39POPC   H6R 5227  -0.413   2.327   7.202 -1.1630  0.0820  0.5367
   39POPC   H6S 5228  -0.338   2.471   7.149 -3.3605 -0.8184 -0.4438
   39POPC   C27 5229  -0.227   2.363   7.301  0.2685 -0.5299 -0.4440
   39POPC   H7R 5230  -0.216   2.462   7.352  0.0407 -0.7809  0.0957
   39POPC   H7S 5231  -0.118   2.349   7.279  0.5365  0.9823 -0.1463
   39POPC   C28 5232  -0.283   2.270   7.415 -0.4212 -0.7370  0.2067
   39POPC   H8R 5233  -0.213   2.275   7.501 -1.5786 -1.3619  1.1859
   39POPC   H8S 5234  -0.285   2.164   7.384 -0.6069 -0.1134 -2.0598
   39POPC   C29 5235  -0.423   2.313   7.468  0.2635  0.3061  0.1775
   39POPC   H91 5236  -0.458   2.410   7.431 -1.8114 -0.2517  0.6254
   39POPC  C210 5237  -0.493   2.231   7.548 -0.4026 -0.0200 -0.4064
   39POPC  H101 5238  -0.590   2.262   7.587  0.3609 -0.0812  1.5689
   39POPC  C211 5239  -0.446   2.093   7.599 -0.0420  0.4277  0.2413
   39POPC  H11R 5240  -0.360   2.048   7.545  0.6670  0.8779  0.9919
   39POPC  H11S 5241  -0.526   2.017   7.583 -1.1323  1.7225 -0.6136
   39POPC  C212 5242  -0.405   2.083   7.752  0.1683  0.0361  0.6422
   39POPC  H12R 5243  -0.395   1.975   7.778 -6.2102 -0.8591  0.1688
   39POPC  H12S 5244  -0.491   2.115   7.815  0.9360  2.2689  0.6052
   39POPC  C213 5245  -0.287   2.171   7.784 -0.8335 -0.4391  0.0526
   39POPC  H13R 5246  -0.324   2.270   7.749 -0.3310  0.4748  2.0443
   39POPC  H13S 5247  -0.206   2.133   7.717 -0.1621  0.0803  0.5554
   39POPC  C214 5248  -0.247   2.171   7.938 -0.4483 -0.3975 -0.3728
   39POPC  H14R 5249  -0.257   2.069   7.981  0.8424 -0.9548 -1.3674
   39POPC  H14S 5250  -0.321   2.236   7.990 -1.6799 -0.0447 -2.4937
   39POPC  C215 5251  -0.104   2.219   7.969  0.1050  0.0134 -0.2505
   39POPC  H15R 5252  -0.088   2.250   8.075  0.9551 -0.0168 -0.3653
   39POPC  H15S 5253  -0.085   2.304   7.900 -0.8522  1.7587  1.5391
   39POPC  C216 5254   0.007   2.113   7.933  0.1156  0.1907  0.3049
   39POPC  H16R 5255   0.105   2.160   7.911  0.5084 -0.4625  0.6449
   39POPC  H16S 5256  -0.011   2.050   7.843 -0.5128 -0.3447  0.8071
   39POPC  C217 5257   0.024   2.008   8.032  0.2214 -0.6029  0.5373
   39POPC  H17R 5258  -0.072   1.952   8.037  1.2170 -2.3512  0.6347
   39POPC  H17S 5259   0.055   2.050   8.130 -0.1745 -0.2977  0.5280
   39POPC  C218 5260   0.142   1.916   8.004  0.4628  0.6081 -0.3376
   39POPC  H18R 5261   0.162   1.855   8.094 -2.3367  1.0027  0.6094
   39POPC  H18S 5262   0.242   1.959   7.979  0.5716 -1.7050 -4.3190
   39POPC  H18T 5263   0.121   1.844   7.922 -0.5120 -1.6728  1.8335
   39POPC   C33 5264   0.512   2.126   6.478  0.3209 -0.4986  0.7214
   39POPC   H3X 5265   0.541   2.173   6.381 -0.3423 -0.9204  0.3115
   39POPC   H3Y 5266   0.494   2.020   6.447 -0.8544 -0.2046  0.3751
   39POPC   C34 5267   0.638   2.131   6.561 -0.4694 -0.2459 -0.0300
   39POPC   H4X 5268   0.672   2.233   6.588  0.8812 -0.7477  0.1981
   39POPC   H4Y 5269   0.723   2.079   6.511 -0.6123  0.1482 -0.6888
   39POPC   C35 5270   0.618   2.069   6.699  0.0005  0.2901  0.2907
   39POPC   H5X 5271   0.584   1.963   6.698 -1.3631  0.7138  0.5943
   39POPC   H5Y 5272   0.554   2.129   6.768  0.9349  1.6164  0.0192
   39POPC   C36 5273   0.752   2.053   6.777  0.0087  0.2812 -0.3637
   39POPC   H6X 5274   0.812   2.147   6.768  1.1199 -0.1465  2.0525
   39POPC   H6Y 5275   0.814   1.969   6.739 -0.9603 -1.6433  2.1914
   39POPC   C37 5276   0.736   2.030   6.925  0.3572  0.0537  0.6295
   39POPC   H7X 5277   0.653   1.956   6.936  0.6359 -0.6439 -1.6324
   39POPC   H7Y 5278   0.708   2.129   6.965  0.3568  0.9598 -1.5370
   39POPC   C38 5279   0.864   1.975   6.995 -0.1371  0.0045  0.3780
   39POPC   H8X 5280   0.952   2.032   6.958  0.4048 -0.9947  0.1124
   39POPC   H8Y 5281   0.892   1.874   6.959  1.5445 -0.1228  1.9774
   39POPC   C39 5282   0.851   1.980   7.142 -0.4986  0.1280  1.3107
   39POPC   H9X 5283   0.768   2.051   7.162 -3.1153 -2.9381  1.8446
   39POPC   H9Y 5284   0.940   2.030   7.185  0.6637  0.3894 -1.3339
   39POPC  C310 5285   0.851   1.837   7.200 -0.8911 -0.0891  0.1993
   39POPC  H10X 5286   0.947   1.787   7.175 -0.7995  1.0863 -1.8678
   39POPC  H10Y 5287   0.776   1.769   7.154 -1.6527 -0.5510  2.0600
   39POPC  C311 5288   0.846   1.826   7.365 -0.3366 -0.2278  0.5248
   39POPC  H11X 5289   0.888   1.726   7.390  0.8105  0.2820  0.6822
   39POPC  H11Y 5290   0.739   1.834   7.394 -0.6656  1.3626 -1.0259
   39POPC  C312 5291   0.921   1.939   7.433  0.0357 -0.0574  0.4539
   39POPC  H12X 5292   0.877   2.033   7.395  2.1842  1.0731  0.6688
   39POPC  H12Y 5293   1.030   1.933   7.413  0.0151  1.0759 -0.0472
   39POPC  C313 5294   0.904   1.936   7.582  0.0509  0.0631  0.0154
   39POPC  H13X 5295   0.798   1.968   7.598 -0.3606 -0.9350 -0.6583
   39POPC  H13Y 5296   0.963   2.018   7.628 -1.3639  1.3718 -0.4637
   39POPC  C314 5297   0.952   1.804   7.650  0.1147  0.9909  0.6856
   39POPC  H14X 5298   1.044   1.768   7.599  0.5247  0.5360  1.7382
   39POPC  H14Y 5299   0.873   1.726   7.646 -0.6141  1.6258  2.4670
   39POPC  C315 5300   0.991   1.825   7.803 -0.4967  0.3352 -0.1790
   39POPC  H15X 5301   0.895   1.865   7.842 -1.5450 -0.1234 -2.1903
   39POPC  H15Y 5302   1.070   1.902   7.812 -2.0770  1.9917 -0.2583
   39POPC  C316 5303   1.026   1.694   7.864 -0.9995 -0.0332  0.6202
   39POPC  H16X 5304   0.943   1.627   7.832 -0.8073 -0.6118  1.3329
   39POPC  H16Y 5305   1.028   1.705   7.974 -2.8711  2.5658  0.4451
   39POPC  H16Z 5306   1.130   1.670   7.834 -0.8703  0.6148  0.5454
   40POPC     N 5307   6.366   5.347   6.197  0.2232  0.9408 -0.5336
   40POPC   C12 5308   6.218   5.373   6.206  0.5499 -0.2841 -0.6070
   40POPC  H12A 5309   6.162   5.283   6.188  0.9956 -0.2556 -2.2950
   40POPC  H12B 5310   6.192   5.441   6.126  0.5586 -0.7652 -1.0175
   40POPC   C13 5311   6.434   5.477   6.218 -0.2215 -0.0060  0.1703
   40POPC  H13A 5312   6.540   5.478   6.196 -0.2483  1.4152  0.0598
   40POPC  H13B 5313   6.395   5.551   6.150  0.5596  0.0755 -0.1973
   40POPC  H13C 5314   6.435   5.511   6.320 -2.4260  1.0306 -0.1301
   40POPC   C14 5315   6.413   5.259   6.306  0.6326 -0.6779 -0.1722
   40POPC  H14A 5316   6.418   5.317   6.397  1.7991 -0.8951 -0.0882
   40POPC  H14B 5317   6.347   5.177   6.332  1.0779 -0.9743  0.0358
   40POPC  H14C 5318   6.513   5.220   6.293  2.1827  3.5126 -1.5509
   40POPC   C15 5319   6.401   5.284   6.064 -0.2516  0.4795 -0.1939
   40POPC  H15A 5320   6.373   5.180   6.057 -0.3325  0.5813 -1.3600
   40POPC  H15B 5321   6.505   5.304   6.041 -0.6013  1.8339 -0.6379
   40POPC  H15C 5322   6.350   5.345   5.992  1.2262  2.2662  0.2150
   40POPC   C11 5323   6.154   5.436   6.335  0.1665  0.2641  0.6448
   40POPC  H11A 5324   6.166   5.369   6.423 -0.9154  0.9383  1.3226
   40POPC  H11B 5325   6.044   5.433   6.319  0.1764 -2.6149  0.9628
   40POPC     P 5326   6.154   5.684   6.260 -0.1770 -0.3506 -0.1239
   40POPC   O13 5327   6.116   5.632   6.128 -0.1475 -0.1077 -0.9692
   40POPC   O14 5328   6.255   5.786   6.271  0.2471  0.1768 -0.2607
   40POPC   O12 5329   6.197   5.569   6.354  0.4261  0.1319 -0.2980
   40POPC   O11 5330   6.028   5.729   6.338 -0.6814 -0.5206 -0.2391
   40POPC    C1 5331   6.029   5.825   6.444  0.2963  0.2717  0.2042
   40POPC    HA 5332   5.929   5.874   6.439 -0.0234 -0.4700 -0.8995
   40POPC    HB 5333   6.107   5.902   6.428 -0.8101  1.2738 -0.4997
   40POPC    C2 5334   6.037   5.755   6.577  0.1240 -0.0620 -0.4807
   40POPC    HS 5335   6.135   5.703   6.585  0.3375  0.5339  1.1453
   40POPC   O21 5336   5.924   5.669   6.576 -0.2315  0.4452  0.6648
   40POPC   C21 5337   5.949   5.559   6.643 -0.2249 -0.2604  0.4082
   40POPC   O22 5338   6.052   5.531   6.701 -0.1345  0.0059 -0.4414
   40POPC   C22 5339   5.819   5.468   6.632 -0.4868  0.4008  0.2597
   40POPC   H2R 5340   5.844   5.368   6.673 -1.8877 -1.0275 -2.2372
   40POPC   H2S 5341   5.808   5.453   6.522 -0.9524 -2.1280  0.6121
   40POPC    C3 5342   6.029   5.846   6.701 -0.5300  0.2472 -0.3209
   40POPC    HX 5343   5.924   5.884   6.697 -0.9197 -1.0094 -2.9862
   40POPC    HY 5344   6.099   5.931   6.692  0.4934 -0.5433  0.1431
   40POPC   O31 5345   6.050   5.774   6.822 -0.4252  0.0666 -0.4889
   40POPC   C31 5346   6.169   5.769   6.867  0.3920  0.6498 -0.1391
   40POPC   O32 5347   6.266   5.828   6.823  0.0567  0.4272  0.1671
   40POPC   C32 5348   6.179   5.678   6.989 -0.6402 -0.2340 -0.4892
   40POPC   H2X 5349   6.285   5.671   7.020 -1.1507 -0.0605  1.3552
   40POPC   H2Y 5350   6.134   5.576   6.982 -0.2691 -0.3831 -0.7127
   40POPC   C23 5351   5.697   5.542   6.694 -0.0374  0.0487 -0.3523
   40POPC   H3R 5352   5.609   5.501   6.639 -2.1545  1.6448  1.7377
   40POPC   H3S 5353   5.695   5.651   6.672 -3.9222 -0.1832 -1.6600
   40POPC   C24 5354   5.681   5.512   6.842 -0.3328  0.3950 -0.9494
   40POPC   H4R 5355   5.660   5.404   6.858  1.4602  0.0833 -0.6440
   40POPC   H4S 5356   5.587   5.560   6.877  1.3674  2.3060  1.1620
   40POPC   C25 5357   5.796   5.571   6.931 -0.3867 -0.2463 -0.5429
   40POPC   H5R 5358   5.800   5.680   6.914 -0.5584 -0.0771  0.4602
   40POPC   H5S 5359   5.893   5.524   6.904  0.2720  0.6384  0.2658
   40POPC   C26 5360   5.766   5.539   7.081  0.8416 -0.4528 -0.7877
   40POPC   H6R 5361   5.861   5.549   7.138  0.6139  0.3226 -0.5417
   40POPC   H6S 5362   5.748   5.430   7.089 -0.0661 -0.4338 -2.3513
   40POPC   C27 5363   5.660   5.622   7.140 -0.2465 -0.5204 -0.2656
   40POPC   H7R 5364   5.554   5.612   7.106 -0.6717 -1.1534  1.1968
   40POPC   H7S 5365   5.688   5.729   7.149  1.6621 -1.0887  0.6951
   40POPC   C28 5366   5.643   5.599   7.291 -0.1656  0.2352  0.1658
   40POPC   H8R 5367   5.741   5.628   7.335  0.5874  1.0387 -1.9363
   40POPC   H8S 5368   5.635   5.488   7.296  1.8806 -0.1212 -2.7740
   40POPC   C29 5369   5.522   5.662   7.359 -0.2307 -0.0402  0.2157
   40POPC   H91 5370   5.427   5.628   7.315 -0.2397  1.6677 -1.1335
   40POPC  C210 5371   5.525   5.744   7.461  0.2168 -0.3860 -0.4260
   40POPC  H101 5372   5.431   5.769   7.512 -0.9900 -1.5400 -2.0584
   40POPC  C211 5373   5.654   5.803   7.520 -0.1159 -0.6952  0.6554
   40POPC  H11R 5374   5.643   5.904   7.563 -0.3694 -0.5507  0.2549
   40POPC  H11S 5375   5.720   5.816   7.431 -1.9650 -0.4641 -0.7246
   40POPC  C212 5376   5.729   5.716   7.629 -0.4271  0.0151 -0.2807
   40POPC  H12R 5377   5.836   5.744   7.643 -0.2384 -0.4569 -0.7722
   40POPC  H12S 5378   5.719   5.610   7.598  2.2685 -0.4701  0.3847
   40POPC  C213 5379   5.666   5.713   7.768 -0.3339  0.2011  0.4223
   40POPC  H13R 5380   5.699   5.618   7.816 -1.5055 -0.6640 -0.4598
   40POPC  H13S 5381   5.557   5.698   7.757 -0.5204 -0.1142  2.4460
   40POPC  C214 5382   5.698   5.828   7.858 -0.5124 -0.5646 -0.7578
   40POPC  H14R 5383   5.760   5.904   7.805 -2.3149  0.0934 -1.9772
   40POPC  H14S 5384   5.760   5.797   7.945  3.6125  1.9624 -2.6453
   40POPC  C215 5385   5.568   5.883   7.917 -0.3928 -0.5329 -0.1536
   40POPC  H15R 5386   5.505   5.805   7.966  1.2322 -2.0956 -0.4679
   40POPC  H15S 5387   5.510   5.925   7.832 -0.7294 -2.8955 -1.1506
   40POPC  C216 5388   5.600   5.989   8.026 -0.6574  0.2483  0.5637
   40POPC  H16R 5389   5.595   6.087   7.974 -2.1969 -0.4890 -0.7134
   40POPC  H16S 5390   5.696   5.966   8.077 -0.3029  0.2963 -0.0791
   40POPC  C217 5391   5.486   5.993   8.119 -0.1161  0.1852 -0.4680
   40POPC  H17R 5392   5.479   5.911   8.194 -0.9003  1.9401  1.4478
   40POPC  H17S 5393   5.387   6.003   8.070  0.2245  2.5007 -0.7339
   40POPC  C218 5394   5.490   6.118   8.211  0.4004  0.5600  0.0465
   40POPC  H18R 5395   5.426   6.109   8.302  2.3475 -1.1331  1.2879
   40POPC  H18S 5396   5.433   6.197   8.158  1.2485 -0.3117 -2.2090
   40POPC  H18T 5397   5.596   6.141   8.235  0.6402 -0.9295  0.4771
   40POPC   C33 5398   6.114   5.741   7.123 -0.0562  0.2732  1.0005
   40POPC   H3X 5399   6.006   5.737   7.097  0.4226 -0.9875 -0.9814
   40POPC   H3Y 5400   6.154   5.843   7.140  1.1595 -0.2474  1.3231
   40POPC   C34 5401   6.149   5.662   7.250  0.2290  0.0021  0.0594
   40POPC   H4X 5402   6.258   5.670   7.271  0.2984 -3.0050  1.2512
   40POPC   H4Y 5403   6.136   5.552   7.235 -0.0573  0.0960 -0.3756
   40POPC   C35 5404   6.067   5.699   7.376  0.2868  0.2339 -0.0080
   40POPC   H5X 5405   6.085   5.620   7.452 -1.2150 -1.6113 -1.5049
   40POPC   H5Y 5406   5.964   5.687   7.336  0.3988 -1.7991  0.2475
   40POPC   C36 5407   6.080   5.846   7.442 -0.8655 -1.3261  0.1990
   40POPC   H6X 5408   6.001   5.845   7.521  1.4161  0.2733  2.6077
   40POPC   H6Y 5409   6.059   5.920   7.363 -0.4681 -2.7619 -1.2842
   40POPC   C37 5410   6.220   5.875   7.489  1.0069 -0.5505 -0.1737
   40POPC   H7X 5411   6.296   5.888   7.410  1.8184 -1.1205  0.5091
   40POPC   H7Y 5412   6.240   5.778   7.539 -0.4674 -0.0547  1.4247
   40POPC   C38 5413   6.217   5.984   7.595 -0.0090  0.2814  0.1403
   40POPC   H8X 5414   6.171   6.075   7.552  0.2170 -0.0533 -0.8162
   40POPC   H8Y 5415   6.324   5.999   7.623  0.4490  1.0096 -1.9266
   40POPC   C39 5416   6.139   5.941   7.723 -0.2931 -0.4145  0.5545
   40POPC   H9X 5417   6.182   5.841   7.744 -0.3252 -0.9596 -1.9256
   40POPC   H9Y 5418   6.032   5.933   7.698  0.1720  2.4834 -2.7837
   40POPC  C310 5419   6.170   6.032   7.845 -0.1943 -0.4278  0.4509
   40POPC  H10X 5420   6.143   6.140   7.843 -1.0402 -0.6175  1.1222
   40POPC  H10Y 5421   6.280   6.022   7.851 -0.3559 -3.3877 -0.5598
   40POPC  C311 5422   6.104   5.972   7.970  0.2092 -0.9752 -0.4119
   40POPC  H11X 5423   6.139   5.866   7.966  4.5642  0.3443 -0.4916
   40POPC  H11Y 5424   5.996   5.975   7.944  0.2527  4.1489 -0.5198
   40POPC  C312 5425   6.116   6.050   8.102 -0.1674 -0.0468 -1.1212
   40POPC  H12X 5426   6.210   6.108   8.107  0.3851 -1.0767  0.7817
   40POPC  H12Y 5427   6.098   5.980   8.187  0.2851 -1.0086 -1.8153
   40POPC  C313 5428   6.001   6.153   8.122  0.1891  0.4337 -0.0378
   40POPC  H13X 5429   5.912   6.088   8.104  0.1529  0.4528  0.0770
   40POPC  H13Y 5430   6.009   6.230   8.042 -0.9228 -0.7106 -1.2840
   40POPC  C314 5431   6.000   6.213   8.261 -0.5014  0.4432  0.3788
   40POPC  H14X 5432   6.093   6.274   8.266  0.4614 -0.9321 -0.1508
   40POPC  H14Y 5433   5.995   6.138   8.343  0.8571 -1.0792 -0.8833
   40POPC  C315 5434   5.875   6.300   8.270 -0.1346  0.3781  0.0434
   40POPC  H15X 5435   5.782   6.239   8.266  0.6515 -0.7280 -1.6087
   40POPC  H15Y 5436   5.888   6.376   8.191 -1.1997  0.8258  0.3000
   40POPC  C316 5437   5.880   6.385   8.396  0.4936 -0.5993  0.2867
   40POPC  H16X 5438   5.801   6.463   8.399 -0.4769 -1.5981  1.2414
   40POPC  H16Y 5439   5.980   6.432   8.404 -0.5126  1.1928  2.8802
   40POPC  H16Z 5440   5.869   6.318   8.485 -0.6857 -0.0766  0.5404
   41CHL1    C3 5441   5.276   4.306  10.163  0.2884 -0.2145  0.2495
   41CHL1    H3 5442   5.258   4.410  10.198  0.7936  0.3593 -1.1497
   41CHL1    O3 5443   5.257   4.229  10.283 -0.1570 -0.0498  0.1859
   41CHL1   H3' 5444   5.216   4.146  10.258 -2.0249  1.2244 -1.1070
   41CHL1    C4 5445   5.166   4.270  10.066 -0.6442 -0.4966  0.4919
   41CHL1   H4A 5446   5.179   4.160  10.060  1.3954 -0.2007 -1.3473
   41CHL1   H4B 5447   5.065   4.295  10.105 -0.6349  0.6021 -0.1328
   41CHL1    C5 5448   5.190   4.330   9.924  0.0513 -0.0084 -0.2199
   41CHL1    C6 5449   5.090   4.406   9.872 -0.1239  0.1827  0.1527
   41CHL1    H6 5450   5.002   4.432   9.932 -0.5618 -0.1041 -0.3548
   41CHL1    C7 5451   5.096   4.466   9.733 -0.0409  0.0402 -0.4987
   41CHL1   H7A 5452   4.997   4.456   9.684 -0.4593  0.5918  0.2269
   41CHL1   H7B 5453   5.117   4.575   9.738  1.1747 -0.2365  0.7414
   41CHL1    C8 5454   5.205   4.395   9.645 -0.0129  0.6137  0.2042
   41CHL1    H8 5455   5.178   4.291   9.618 -2.9757  1.4448 -0.1246
   41CHL1   C14 5456   5.235   4.478   9.521 -0.4301  0.8621 -0.5638
   41CHL1   H14 5457   5.270   4.578   9.556  1.3973 -0.1239  0.5387
   41CHL1   C15 5458   5.117   4.516   9.431  0.9370  0.0163  0.5845
   41CHL1  H15A 5459   5.045   4.435   9.409  0.2531  0.6689  0.4090
   41CHL1  H15B 5460   5.060   4.603   9.469 -1.7181 -0.5354 -1.9221
   41CHL1   C16 5461   5.179   4.540   9.288  0.5590 -1.0454  0.0185
   41CHL1  H16A 5462   5.137   4.476   9.208 -0.7391  0.6431 -0.6768
   41CHL1  H16B 5463   5.164   4.648   9.267  2.7558 -0.7381 -0.0413
   41CHL1   C17 5464   5.336   4.518   9.313 -0.4680  0.0096  0.6964
   41CHL1   H17 5465   5.385   4.611   9.350 -0.0757  0.4293 -0.8099
   41CHL1   C13 5466   5.349   4.429   9.436  0.1884 -0.0752  0.4486
   41CHL1   C18 5467   5.321   4.283   9.395 -0.1420  0.4491 -0.0017
   41CHL1  H18A 5468   5.228   4.274   9.335 -0.0621  2.7257 -0.5238
   41CHL1  H18B 5469   5.404   4.259   9.325 -0.4350 -0.3149 -0.0805
   41CHL1  H18C 5470   5.316   4.216   9.483 -0.8836  0.5008 -0.0035
   41CHL1   C12 5471   5.480   4.430   9.520 -0.5758 -0.3927  0.3729
   41CHL1  H12A 5472   5.566   4.377   9.472 -0.6346 -0.0955 -0.0591
   41CHL1  H12B 5473   5.503   4.536   9.545  0.0674 -0.1307 -1.2356
   41CHL1   C11 5474   5.468   4.359   9.654 -0.0078 -0.1534 -0.5002
   41CHL1  H11A 5475   5.478   4.252   9.626  0.7979 -0.0876 -0.4726
   41CHL1  H11B 5476   5.559   4.381   9.713 -0.0319 -0.7496 -0.2381
   41CHL1    C9 5477   5.336   4.394   9.734 -1.0642 -0.3882 -0.0731
   41CHL1    H9 5478   5.348   4.497   9.772  0.7749 -0.6677  0.1705
   41CHL1   C10 5479   5.317   4.301   9.861 -0.1784 -0.0975  0.1377
   41CHL1   C19 5480   5.324   4.151   9.813  0.8781 -0.1262 -0.3331
   41CHL1  H19A 5481   5.242   4.128   9.741  0.0594  2.7392 -0.3774
   41CHL1  H19B 5482   5.422   4.129   9.766  1.5269  1.8874  0.0429
   41CHL1  H19C 5483   5.309   4.091   9.905 -0.9239 -0.1057 -0.5948
   41CHL1    C1 5484   5.429   4.331   9.960 -0.2925 -0.5306 -0.3082
   41CHL1   H1A 5485   5.522   4.293   9.913 -1.0085 -2.8348  0.0468
   41CHL1   H1B 5486   5.445   4.441   9.956  0.7442 -0.4665  3.6053
   41CHL1    C2 5487   5.413   4.276  10.106 -0.6409 -0.2901 -0.1150
   41CHL1   H2A 5488   5.489   4.322  10.173  1.8745 -1.5026 -2.0767
   41CHL1   H2B 5489   5.426   4.166  10.100 -1.7853 -0.3352 -2.3070
   41CHL1   C20 5490   5.404   4.485   9.172  0.1388 -0.8618 -0.2395
   41CHL1   H20 5491   5.351   4.390   9.149 -0.3045 -0.7673  0.3949
   41CHL1   C21 5492   5.558   4.474   9.189  0.9922 -0.1812 -0.6275
   41CHL1  H21A 5493   5.592   4.552   9.260  1.6453 -2.0307  1.1299
   41CHL1  H21B 5494   5.622   4.459   9.099  0.7693  0.8496 -0.9564
   41CHL1  H21C 5495   5.569   4.375   9.239 -0.5302  0.6998  1.4995
   41CHL1   C22 5496   5.355   4.586   9.058  0.6492 -0.2324 -0.1221
   41CHL1  H22A 5497   5.245   4.576   9.045  0.4054  1.3243  0.7254
   41CHL1  H22B 5498   5.383   4.687   9.093  0.1195  0.0259 -0.4479
   41CHL1   C23 5499   5.418   4.568   8.923 -0.3528  0.6657  0.7445
   41CHL1  H23A 5500   5.526   4.590   8.937 -0.5633  0.6142  2.5056
   41CHL1  H23B 5501   5.402   4.461   8.898  0.6538  0.3153  1.5693
   41CHL1   C24 5502   5.368   4.649   8.804  0.5797 -0.5381  0.2942
   41CHL1  H24A 5503   5.259   4.642   8.784  0.1487  2.1893  1.5073
   41CHL1  H24B 5504   5.382   4.757   8.826  0.1876 -0.7974  1.8816
   41CHL1   C25 5505   5.441   4.627   8.677  0.2651 -0.2232  0.4780
   41CHL1   H25 5506   5.545   4.661   8.698  0.2656  1.4180 -1.9640
   41CHL1   C26 5507   5.435   4.477   8.635 -0.3213 -0.6086  0.1378
   41CHL1  H26A 5508   5.333   4.438   8.659 -1.6194  1.0593 -2.4799
   41CHL1  H26B 5509   5.456   4.465   8.527 -1.0812  0.0068 -0.0830
   41CHL1  H26C 5510   5.502   4.411   8.694 -0.9976 -0.2655  1.3144
   41CHL1   C27 5511   5.392   4.703   8.550 -0.1429  0.3429  0.1478
   41CHL1  H27A 5512   5.372   4.810   8.572 -0.0262  0.3680  0.1281
   41CHL1  H27B 5513   5.467   4.679   8.472 -0.5744  1.8265 -0.7315
   41CHL1  H27C 5514   5.294   4.655   8.529 -0.2554 -0.3602  2.1211
   42CHL1    C3 5515   4.706   3.308   9.957  0.7260 -0.6333  0.2035
   42CHL1    H3 5516   4.659   3.403   9.924 -2.5427 -2.2213  0.1054
   42CHL1    O3 5517   4.702   3.284  10.094 -0.1910  0.1591  0.0902
   42CHL1   H3' 5518   4.727   3.367  10.135  1.1377 -0.1459 -0.1022
   42CHL1    C4 5519   4.635   3.192   9.893 -0.6652 -0.3256 -0.3227
   42CHL1   H4A 5520   4.677   3.100   9.939 -0.5195 -0.2237 -0.2506
   42CHL1   H4B 5521   4.530   3.193   9.928 -0.6176 -3.0309  0.0195
   42CHL1    C5 5522   4.638   3.196   9.738  0.4833 -0.3731  0.2363
   42CHL1    C6 5523   4.519   3.207   9.667  0.4043  0.1822 -0.9484
   42CHL1    H6 5524   4.428   3.180   9.723 -0.3922  1.2156 -1.7253
   42CHL1    C7 5525   4.510   3.206   9.515  0.2710 -0.2306 -0.5285
   42CHL1   H7A 5526   4.443   3.126   9.479  0.7714 -1.4822  1.2708
   42CHL1   H7B 5527   4.467   3.302   9.478  1.2618 -0.5315 -2.5152
   42CHL1    C8 5528   4.645   3.179   9.447 -0.3643 -0.1395 -0.1953
   42CHL1    H8 5529   4.674   3.072   9.447  1.9389  0.4259  2.1681
   42CHL1   C14 5530   4.648   3.239   9.308  0.6217  0.5645 -0.2591
   42CHL1   H14 5531   4.633   3.349   9.315  0.3446  0.4800  0.4178
   42CHL1   C15 5532   4.531   3.217   9.212 -0.4913 -0.9645  0.3456
   42CHL1  H15A 5533   4.523   3.107   9.211 -0.9791 -0.9300  0.2744
   42CHL1  H15B 5534   4.438   3.265   9.248  0.2063  0.5211  0.2367
   42CHL1   C16 5535   4.582   3.259   9.077 -1.0475  1.2670 -0.2967
   42CHL1  H16A 5536   4.548   3.186   9.000 -2.3537  0.2119  1.2564
   42CHL1  H16B 5537   4.532   3.357   9.060 -0.7229  1.5312  0.2872
   42CHL1   C17 5538   4.736   3.290   9.095 -0.6472  0.9591  0.7425
   42CHL1   H17 5539   4.746   3.398   9.119 -2.5721  1.2959  0.0883
   42CHL1   C13 5540   4.775   3.219   9.222  0.0179  0.1244 -0.2662
   42CHL1   C18 5541   4.813   3.073   9.201  0.2272 -0.0433  0.2890
   42CHL1  H18A 5542   4.917   3.058   9.164  1.0789 -0.7670  2.9142
   42CHL1  H18B 5543   4.800   3.011   9.292  1.6843 -1.0660 -0.1892
   42CHL1  H18C 5544   4.740   3.031   9.128 -1.2592  2.0713  0.4788
   42CHL1   C12 5545   4.883   3.282   9.307 -0.4434 -0.0272  0.3667
   42CHL1  H12A 5546   4.987   3.281   9.269 -1.0769  0.5801 -1.4793
   42CHL1  H12B 5547   4.846   3.386   9.318 -1.6936 -0.4237  0.0436
   42CHL1   C11 5548   4.891   3.241   9.450 -0.6591  0.0476 -0.2346
   42CHL1  H11A 5549   4.942   3.143   9.441  2.4231  1.6745 -0.9370
   42CHL1  H11B 5550   4.954   3.314   9.505 -2.8327 -0.2548  2.8101
   42CHL1    C9 5551   4.759   3.250   9.529  0.4466  0.8204 -0.0320
   42CHL1    H9 5552   4.727   3.356   9.538  1.5567  1.1104  0.5469
   42CHL1   C10 5553   4.777   3.211   9.673 -0.2840 -0.5121  0.5136
   42CHL1   C19 5554   4.844   3.076   9.692 -0.2107  0.0102  0.1541
   42CHL1  H19A 5555   4.829   3.024   9.790  0.1257 -1.2576 -0.4524
   42CHL1  H19B 5556   4.819   3.002   9.613 -0.4132 -0.1122  0.3315
   42CHL1  H19C 5557   4.951   3.103   9.679 -0.3661  0.1076 -0.9351
   42CHL1    C1 5558   4.857   3.327   9.750 -0.2420  0.5278 -0.3037
   42CHL1   H1A 5559   4.966   3.320   9.734  0.1842  2.1006  1.6408
   42CHL1   H1B 5560   4.818   3.427   9.723 -1.2866  0.6502  1.5789
   42CHL1    C2 5561   4.846   3.308   9.905  0.2066  0.2295 -0.7105
   42CHL1   H2A 5562   4.891   3.393   9.961  2.5152 -3.2711  3.0447
   42CHL1   H2B 5563   4.914   3.228   9.942 -2.0578 -0.8508  1.2038
   42CHL1   C20 5564   4.822   3.254   8.960 -0.5011 -0.1014  0.8620
   42CHL1   H20 5565   4.838   3.145   8.946 -3.0945 -0.2752 -1.0462
   42CHL1   C21 5566   4.968   3.314   8.971  0.4772 -0.4340 -0.1685
   42CHL1  H21A 5567   5.028   3.261   9.048  0.7052 -1.7909 -1.2749
   42CHL1  H21B 5568   4.970   3.424   8.988  2.1323 -0.6927  1.5807
   42CHL1  H21C 5569   5.024   3.292   8.878  0.5154 -0.6585 -0.0939
   42CHL1   C22 5570   4.751   3.286   8.825  0.3029 -0.3537  0.1572
   42CHL1  H22A 5571   4.650   3.240   8.836  0.5751 -0.8950  0.4374
   42CHL1  H22B 5572   4.739   3.396   8.827  0.2614 -0.3510 -0.1964
   42CHL1   C23 5573   4.820   3.247   8.695  0.0972 -0.0569 -0.3668
   42CHL1  H23A 5574   4.919   3.296   8.687  0.2179  0.3450  2.8786
   42CHL1  H23B 5575   4.835   3.138   8.681 -1.9204 -0.4068  0.0187
   42CHL1   C24 5576   4.743   3.306   8.573  0.4985  0.0488  0.9947
   42CHL1  H24A 5577   4.641   3.264   8.569  0.5975 -0.0599 -0.8436
   42CHL1  H24B 5578   4.733   3.417   8.582  0.5026  0.3926 -2.6062
   42CHL1   C25 5579   4.808   3.254   8.444  0.2753  0.6671  1.1502
   42CHL1   H25 5580   4.919   3.259   8.451  0.7947 -3.0796 -2.2656
   42CHL1   C26 5581   4.773   3.107   8.406 -0.7843 -0.4987 -0.3216
   42CHL1  H26A 5582   4.810   3.087   8.304  0.5486  1.6503 -0.2895
   42CHL1  H26B 5583   4.815   3.038   8.482 -2.7704 -1.0749  0.2985
   42CHL1  H26C 5584   4.664   3.085   8.412 -1.4493  2.1490 -1.9351
   42CHL1   C27 5585   4.768   3.346   8.324  0.3268  0.7396 -0.2924
   42CHL1  H27A 5586   4.827   3.319   8.233 -1.9139  0.1435 -1.6210
   42CHL1  H27B 5587   4.663   3.334   8.290  1.1105  0.0239 -2.5604
   42CHL1  H27C 5588   4.772   3.455   8.347  0.6804  0.3497  1.5492
   43CHL1    C3 5589   5.297   3.720  10.026 -0.3672 -0.7206  0.3573
   43CHL1    H3 5590   5.383   3.789  10.013 -1.4363  0.6257  0.3030
   43CHL1    O3 5591   5.266   3.718  10.166  0.2942  0.1277  0.6539
   43CHL1   H3' 5592   5.188   3.773  10.174  0.0171 -0.3447  1.3072
   43CHL1    C4 5593   5.171   3.764   9.955  0.0939 -0.4819  0.9355
   43CHL1   H4A 5594   5.090   3.693   9.983 -0.9115 -0.4310 -1.6948
   43CHL1   H4B 5595   5.159   3.868   9.991  0.1813  0.9905 -3.0434
   43CHL1    C5 5596   5.184   3.756   9.797 -0.0295  0.0567 -0.2422
   43CHL1    C6 5597   5.161   3.865   9.730  0.4409  1.2539 -0.0945
   43CHL1    H6 5598   5.133   3.959   9.781  0.9265  0.6808  1.2459
   43CHL1    C7 5599   5.151   3.875   9.583  0.5671 -0.5758  0.3340
   43CHL1   H7A 5600   5.051   3.913   9.551  1.4337  1.9172  0.4671
   43CHL1   H7B 5601   5.232   3.943   9.549  0.3340 -0.3271  0.2715
   43CHL1    C8 5602   5.182   3.737   9.513  0.0264 -0.6690  0.2512
   43CHL1    H8 5603   5.088   3.678   9.510 -0.9045  0.6488  2.4423
   43CHL1   C14 5604   5.229   3.762   9.368 -0.4475  0.3819 -0.7993
   43CHL1   H14 5605   5.326   3.816   9.370 -0.0514 -0.3671  2.6732
   43CHL1   C15 5606   5.137   3.848   9.287 -0.3081  0.0559 -0.1585
   43CHL1  H15A 5607   5.028   3.825   9.296 -0.0499 -0.7254  1.0290
   43CHL1  H15B 5608   5.151   3.956   9.308 -0.9928  0.1694 -0.2810
   43CHL1   C16 5609   5.188   3.823   9.145  0.0847 -0.1761 -0.5683
   43CHL1  H16A 5610   5.104   3.795   9.078  1.2189 -1.7215 -1.3608
   43CHL1  H16B 5611   5.221   3.922   9.107  1.8721 -0.8286 -0.7776
   43CHL1   C17 5612   5.287   3.700   9.155  0.4216 -0.7167  0.1861
   43CHL1   H17 5613   5.387   3.747   9.162  0.1684 -0.2360  0.5948
   43CHL1   C13 5614   5.256   3.640   9.292  0.2813  0.1276 -0.6255
   43CHL1   C18 5615   5.124   3.560   9.261 -0.7348  0.1074  0.0448
   43CHL1  H18A 5616   5.074   3.547   9.359  2.5676 -2.8795  1.4301
   43CHL1  H18B 5617   5.056   3.602   9.183  2.3937 -2.0343 -4.0336
   43CHL1  H18C 5618   5.139   3.457   9.223 -0.5416  1.2607 -3.2073
   43CHL1   C12 5619   5.367   3.562   9.367 -0.1548 -0.2139  0.2340
   43CHL1  H12A 5620   5.405   3.463   9.334 -0.8860 -0.7153  0.8929
   43CHL1  H12B 5621   5.460   3.624   9.374  0.2628 -0.5347 -2.1675
   43CHL1   C11 5622   5.328   3.521   9.510 -0.5739  0.1842 -0.0834
   43CHL1  H11A 5623   5.237   3.460   9.490  0.5275 -1.4900 -0.0369
   43CHL1  H11B 5624   5.402   3.452   9.555  0.8156  0.2501 -2.2156
   43CHL1    C9 5625   5.283   3.649   9.592 -0.8462  0.0143  0.2679
   43CHL1    H9 5626   5.377   3.708   9.595  0.2424 -1.7155  1.0384
   43CHL1   C10 5627   5.231   3.623   9.736 -0.3371 -0.9894 -0.8674
   43CHL1   C19 5628   5.118   3.527   9.734  0.7822 -0.2184  1.3394
   43CHL1  H19A 5629   5.156   3.427   9.704 -1.3498 -0.8342  0.6419
   43CHL1  H19B 5630   5.075   3.509   9.834 -1.3346 -0.8548  0.3451
   43CHL1  H19C 5631   5.033   3.562   9.671 -1.6125 -2.8949  3.0035
   43CHL1    C1 5632   5.342   3.567   9.823 -0.2137  0.2940 -0.0595
   43CHL1   H1A 5633   5.349   3.460   9.792  0.3643  0.9154 -2.1556
   43CHL1   H1B 5634   5.431   3.626   9.793  0.4957 -0.0247  1.4211
   43CHL1    C2 5635   5.339   3.578   9.979  0.1674 -0.2853  0.7686
   43CHL1   H2A 5636   5.433   3.548  10.029  0.8494  0.7517  0.1212
   43CHL1   H2B 5637   5.252   3.514  10.005 -1.2125  1.5238  0.7135
   43CHL1   C20 5638   5.297   3.614   9.022  0.3265  0.5953 -0.3450
   43CHL1   H20 5639   5.201   3.559   9.015  0.3947  0.4545 -0.1808
   43CHL1   C21 5640   5.411   3.513   9.049  0.7238 -0.5979  0.3250
   43CHL1  H21A 5641   5.498   3.573   9.084  1.8265 -2.1204  0.2494
   43CHL1  H21B 5642   5.445   3.459   8.958 -2.5601 -0.6028 -0.9669
   43CHL1  H21C 5643   5.390   3.430   9.120 -2.1614  0.1460  0.4194
   43CHL1   C22 5644   5.304   3.697   8.895  0.0704  0.2174 -0.1770
   43CHL1  H22A 5645   5.224   3.774   8.886  0.6198  0.7092 -0.9062
   43CHL1  H22B 5646   5.401   3.748   8.880 -0.4008  0.8945 -0.9979
   43CHL1   C23 5647   5.275   3.610   8.763  0.2593  0.3208 -0.5617
   43CHL1  H23A 5648   5.337   3.518   8.754 -1.1889 -0.5761 -1.5369
   43CHL1  H23B 5649   5.169   3.579   8.770 -0.2382  2.3568  1.4967
   43CHL1   C24 5650   5.303   3.695   8.638 -0.4154  0.5540  0.2438
   43CHL1  H24A 5651   5.264   3.798   8.655 -1.0614  0.4567 -0.6422
   43CHL1  H24B 5652   5.414   3.698   8.648 -0.0195 -3.2636 -2.1634
   43CHL1   C25 5653   5.273   3.628   8.503  0.6279  0.0903  0.1356
   43CHL1   H25 5654   5.319   3.527   8.509  2.0275  0.5374 -2.6125
   43CHL1   C26 5655   5.119   3.609   8.486 -0.3743 -0.5720 -0.3095
   43CHL1  H26A 5656   5.073   3.708   8.468  1.1397  0.5630  1.7922
   43CHL1  H26B 5657   5.085   3.540   8.406 -0.2770 -0.8351 -0.1268
   43CHL1  H26C 5658   5.071   3.566   8.576 -0.1256  0.1449  0.1696
   43CHL1   C27 5659   5.331   3.722   8.393 -0.5105 -0.2082 -0.4133
   43CHL1  H27A 5660   5.304   3.678   8.295 -3.3239 -0.9835  0.6573
   43CHL1  H27B 5661   5.293   3.826   8.410 -0.4239 -0.3008  0.4022
   43CHL1  H27C 5662   5.442   3.729   8.400 -0.6089  0.9255  0.1529
   44CHL1    C3 5663   5.884   3.985  10.335  0.0905 -0.4407 -0.4255
   44CHL1    H3 5664   5.795   4.046  10.362  1.2475  0.8760  0.4291
   44CHL1    O3 5665   5.935   3.931  10.454 -0.3406  0.0194 -0.0340
   44CHL1   H3' 5666   6.031   3.936  10.450 -0.0463 -2.4189  1.9455
   44CHL1    C4 5667   5.844   3.855  10.262  0.0345  0.5148 -0.4971
   44CHL1   H4A 5668   5.927   3.782  10.252 -0.4760 -0.2881  1.0971
   44CHL1   H4B 5669   5.759   3.813  10.320  0.0726  1.8770  0.5887
   44CHL1    C5 5670   5.802   3.885  10.125  1.0744 -0.2772 -0.0890
   44CHL1    C6 5671   5.681   3.856  10.076  0.1760  0.2434  0.5654
   44CHL1    H6 5672   5.624   3.797  10.150  2.7154 -1.2717  1.3903
   44CHL1    C7 5673   5.627   3.891   9.936 -0.5596  0.3294 -1.0980
   44CHL1   H7A 5674   5.568   3.807   9.895 -0.3541 -1.8157  2.8082
   44CHL1   H7B 5675   5.566   3.981   9.958  0.8964  0.9161  0.6891
   44CHL1    C8 5676   5.737   3.913   9.836 -0.0528 -0.4812 -0.0217
   44CHL1    H8 5677   5.792   3.821   9.807  0.2244 -0.3354  0.0446
   44CHL1   C14 5678   5.685   3.969   9.708 -0.9804  0.2223 -0.7652
   44CHL1   H14 5679   5.637   4.066   9.735 -1.2160 -0.2510  0.5904
   44CHL1   C15 5680   5.576   3.887   9.642 -0.5594  0.1246  0.7386
   44CHL1  H15A 5681   5.608   3.782   9.659 -1.0964 -0.2976 -0.7454
   44CHL1  H15B 5682   5.472   3.899   9.679 -0.7026 -0.5753  0.5653
   44CHL1   C16 5683   5.574   3.942   9.498  0.6090  0.2331 -0.1899
   44CHL1  H16A 5684   5.574   3.849   9.437  1.5298 -1.3483  2.1584
   44CHL1  H16B 5685   5.481   3.999   9.478  0.3753 -0.1331 -0.1559
   44CHL1   C17 5686   5.693   4.035   9.479  0.0366 -0.3189  0.4189
   44CHL1   H17 5687   5.661   4.140   9.493  1.2362  0.2779 -1.2134
   44CHL1   C13 5688   5.790   3.996   9.600  0.5656 -0.5813  0.2378
   44CHL1   C18 5689   5.863   3.869   9.549 -0.7470 -0.4283 -0.4044
   44CHL1  H18A 5690   5.921   3.892   9.457 -0.1524  0.0642  0.0949
   44CHL1  H18B 5691   5.933   3.833   9.627 -3.4421 -1.8314  1.4397
   44CHL1  H18C 5692   5.799   3.781   9.527 -3.2544  0.7074  2.1523
   44CHL1   C12 5693   5.893   4.098   9.647 -0.4727  0.0357  1.1669
   44CHL1  H12A 5694   5.978   4.104   9.576 -2.2746  0.5998 -0.9743
   44CHL1  H12B 5695   5.842   4.197   9.649 -3.6072 -1.5141  1.0894
   44CHL1   C11 5696   5.944   4.063   9.789  0.2556 -0.4530  0.2669
   44CHL1  H11A 5697   6.010   3.977   9.765 -1.2418 -1.9084  1.2450
   44CHL1  H11B 5698   6.011   4.143   9.826 -1.8110  0.9312  1.0871
   44CHL1    C9 5699   5.843   4.016   9.896  0.0527  0.1073 -0.5603
   44CHL1    H9 5700   5.783   4.106   9.923 -0.0689 -0.1411 -0.0083
   44CHL1   C10 5701   5.900   3.966  10.032  0.2250  0.3771  0.5267
   44CHL1   C19 5702   6.016   3.880   9.985  0.3837  0.2182  0.0811
   44CHL1  H19A 5703   5.987   3.807   9.906  1.4538 -1.5025  1.2314
   44CHL1  H19B 5704   6.104   3.939   9.951  0.8162 -0.5986 -0.2375
   44CHL1  H19C 5705   6.050   3.812  10.067 -0.0622 -0.6033 -0.4019
   44CHL1    C1 5706   5.957   4.082  10.115 -0.2016  0.3295 -0.0243
   44CHL1   H1A 5707   6.037   4.138  10.061  1.0972 -3.5860 -2.3745
   44CHL1   H1B 5708   5.868   4.148  10.120 -0.0698  0.6075 -1.1172
   44CHL1    C2 5709   6.002   4.047  10.262  0.2121  0.2580  0.3812
   44CHL1   H2A 5710   6.023   4.138  10.322  0.3177 -0.5676  1.5972
   44CHL1   H2B 5711   6.094   3.986  10.252  0.6004  1.0351 -0.8959
   44CHL1   C20 5712   5.729   4.046   9.334 -0.7159 -0.2648 -0.9703
   44CHL1   H20 5713   5.790   3.957   9.306  0.5074  0.9889 -2.3127
   44CHL1   C21 5714   5.831   4.157   9.321  0.0225  0.2249 -0.5688
   44CHL1  H21A 5715   5.917   4.137   9.388  0.1559  0.1507 -0.7629
   44CHL1  H21B 5716   5.785   4.252   9.356  0.7682 -0.0373  1.1909
   44CHL1  H21C 5717   5.866   4.168   9.216  0.5746  2.9979 -0.1339
   44CHL1   C22 5718   5.612   4.059   9.235  0.4150 -0.4686 -0.4399
   44CHL1  H22A 5719   5.536   3.980   9.257 -0.7502 -0.1998 -3.3191
   44CHL1  H22B 5720   5.574   4.163   9.237 -0.4170 -0.7754  1.2110
   44CHL1   C23 5721   5.644   4.036   9.093  0.1697  0.0085  0.5336
   44CHL1  H23A 5722   5.733   4.098   9.070  0.9784 -0.9010  1.1588
   44CHL1  H23B 5723   5.683   3.933   9.077  0.8740  0.0465  1.9133
   44CHL1   C24 5724   5.520   4.057   9.002 -0.1021 -1.1816  0.2651
   44CHL1  H24A 5725   5.455   3.969   9.020 -0.7779 -0.6834  0.2812
   44CHL1  H24B 5726   5.464   4.151   9.020  1.3952 -0.0249 -0.9170
   44CHL1   C25 5727   5.534   4.049   8.847 -0.3721  0.8121  1.0188
   44CHL1   H25 5728   5.581   3.953   8.816 -1.7013 -0.7540  3.6858
   44CHL1   C26 5729   5.395   4.061   8.784 -0.5936  0.1974 -0.2142
   44CHL1  H26A 5730   5.351   4.161   8.800  0.2114  0.4342  0.5965
   44CHL1  H26B 5731   5.407   4.044   8.675  1.1104  0.6629 -0.1209
   44CHL1  H26C 5732   5.330   3.978   8.818 -1.0858  0.0068 -1.6045
   44CHL1   C27 5733   5.623   4.159   8.797 -0.7656  0.0850  0.1305
   44CHL1  H27A 5734   5.729   4.126   8.804 -0.6278  0.4713 -0.1922
   44CHL1  H27B 5735   5.621   4.174   8.687  0.7868  1.0311  0.2202
   44CHL1  H27C 5736   5.612   4.255   8.851 -0.7892  0.1451  0.0194
   45CHL1    C3 5737   2.005   2.177  10.302 -0.3699 -0.0783 -0.3911
   45CHL1    H3 5738   2.001   2.279  10.344  1.0208  0.8842 -2.5112
   45CHL1    O3 5739   2.007   2.100  10.426 -0.4951  0.3182  0.2812
   45CHL1   H3' 5740   1.937   2.127  10.486 -1.9877  0.0691 -1.3142
   45CHL1    C4 5741   1.885   2.142  10.213  0.7682  0.2218  0.3761
   45CHL1   H4A 5742   1.891   2.035  10.186 -1.3605 -0.0135  0.7442
   45CHL1   H4B 5743   1.792   2.136  10.274  1.4658 -2.4089  1.2227
   45CHL1    C5 5744   1.879   2.225  10.083 -0.2950 -0.0019 -0.0719
   45CHL1    C6 5745   1.766   2.284  10.047 -0.1836  0.2771  0.6226
   45CHL1    H6 5746   1.680   2.262  10.112  0.3943 -2.4985  0.5311
   45CHL1    C7 5747   1.737   2.366   9.925  0.2805 -0.0710 -0.1336
   45CHL1   H7A 5748   1.648   2.330   9.869  0.6882  0.4178 -1.1078
   45CHL1   H7B 5749   1.716   2.473   9.948 -1.7318 -0.4372 -0.1637
   45CHL1    C8 5750   1.866   2.359   9.833 -0.3432 -0.1965 -0.0034
   45CHL1    H8 5751   1.877   2.464   9.798  1.1982  0.5086  2.4850
   45CHL1   C14 5752   1.850   2.282   9.698  0.1947 -0.2572  0.3561
   45CHL1   H14 5753   1.837   2.179   9.737 -0.4011 -0.3794 -0.1798
   45CHL1   C15 5754   1.742   2.347   9.610 -0.5844 -0.0134 -0.1450
   45CHL1  H15A 5755   1.662   2.273   9.587 -2.3778  1.3910  1.4204
   45CHL1  H15B 5756   1.689   2.422   9.671 -0.5637 -0.2230  0.1318
   45CHL1   C16 5757   1.807   2.409   9.485 -0.1168  1.0193 -0.1401
   45CHL1  H16A 5758   1.788   2.347   9.395  1.6959 -2.5455  1.8204
   45CHL1  H16B 5759   1.770   2.512   9.466  0.5278  1.3475  0.3914
   45CHL1   C17 5760   1.957   2.407   9.517 -0.1901 -0.3318  0.2058
   45CHL1   H17 5761   1.983   2.491   9.585 -1.4781  0.5881 -0.4282
   45CHL1   C13 5762   1.976   2.288   9.613 -0.3998 -0.2914  0.6617
   45CHL1   C18 5763   1.979   2.154   9.525  0.2017  0.3516 -0.1533
   45CHL1  H18A 5764   2.064   2.154   9.453  0.6486  2.6558  0.3607
   45CHL1  H18B 5765   1.991   2.067   9.593 -1.5020  0.1566 -0.0879
   45CHL1  H18C 5766   1.879   2.143   9.477 -0.2924  1.4378  0.5994
   45CHL1   C12 5767   2.106   2.286   9.689  0.2618 -0.4768 -0.7336
   45CHL1  H12A 5768   2.131   2.184   9.725  0.6284 -0.5914 -1.3090
   45CHL1  H12B 5769   2.200   2.311   9.636  1.6705 -1.8809  1.0676
   45CHL1   C11 5770   2.111   2.379   9.815  0.5922  0.0549 -0.4056
   45CHL1  H11A 5771   2.209   2.365   9.866  0.1282  0.9055  0.7271
   45CHL1  H11B 5772   2.105   2.488   9.797 -0.5499  0.3694  1.7982
   45CHL1    C9 5773   2.004   2.352   9.913  0.8669  0.0813  0.3543
   45CHL1    H9 5774   2.008   2.440   9.980 -1.5351  0.6540 -0.2059
   45CHL1   C10 5775   2.019   2.239  10.015 -0.3433  0.1304  0.2869
   45CHL1   C19 5776   2.047   2.098   9.944 -0.0687 -0.1674 -0.2293
   45CHL1  H19A 5777   2.153   2.103   9.912 -0.5568 -1.4429 -2.1159
   45CHL1  H19B 5778   2.044   2.021  10.024 -1.1493  0.7221  0.6048
   45CHL1  H19C 5779   1.986   2.077   9.854  1.0236  1.0398 -1.2702
   45CHL1    C1 5780   2.133   2.272  10.121  0.5082 -0.1154 -0.0256
   45CHL1   H1A 5781   2.226   2.276  10.061  0.6292  0.0461  0.1735
   45CHL1   H1B 5782   2.118   2.374  10.162  1.3712  0.0990 -0.2381
   45CHL1    C2 5783   2.141   2.173  10.226 -0.2833  0.1897  0.0552
   45CHL1   H2A 5784   2.229   2.190  10.291 -0.1260 -1.0843  0.1938
   45CHL1   H2B 5785   2.155   2.067  10.196  1.4660  0.5080 -0.2840
   45CHL1   C20 5786   2.059   2.418   9.401 -0.1575  0.3101  0.0644
   45CHL1   H20 5787   2.150   2.357   9.422 -0.7462 -0.3679  0.6461
   45CHL1   C21 5788   2.106   2.560   9.391 -0.5633 -0.5654  0.1491
   45CHL1  H21A 5789   2.192   2.572   9.321  0.8782  2.6983  2.3078
   45CHL1  H21B 5790   2.151   2.604   9.484 -0.0400 -2.3912  0.7817
   45CHL1  H21C 5791   2.026   2.624   9.349  0.7218  0.7698 -0.3314
   45CHL1   C22 5792   2.005   2.382   9.261  0.6423 -0.2763  0.0337
   45CHL1  H22A 5793   1.966   2.279   9.275 -0.2177  0.0747  0.2545
   45CHL1  H22B 5794   1.930   2.450   9.216 -0.6810 -0.7013  1.5555
   45CHL1   C23 5795   2.125   2.368   9.167 -0.6009 -0.7446  0.7273
   45CHL1  H23A 5796   2.166   2.470   9.147  0.1630 -1.2685 -0.4145
   45CHL1  H23B 5797   2.202   2.304   9.215  1.7848  1.9213  0.6254
   45CHL1   C24 5798   2.102   2.307   9.025 -0.4458  0.5087  0.0525
   45CHL1  H24A 5799   2.066   2.203   9.038  1.9457 -0.5112 -1.1401
   45CHL1  H24B 5800   2.014   2.358   8.979  1.6588  2.1229 -2.3158
   45CHL1   C25 5801   2.224   2.315   8.938  0.2765  0.4402  0.4088
   45CHL1   H25 5802   2.303   2.258   8.991  0.2060 -0.1867 -0.1531
   45CHL1   C26 5803   2.179   2.259   8.802  0.0616 -0.4182  0.1397
   45CHL1  H26A 5804   2.105   2.329   8.759 -1.5083  0.0469  3.4667
   45CHL1  H26B 5805   2.265   2.260   8.731 -1.3723 -0.4545 -1.6307
   45CHL1  H26C 5806   2.158   2.150   8.810  1.5638 -0.7266  0.1305
   45CHL1   C27 5807   2.271   2.462   8.902 -0.3312  0.2168  0.2039
   45CHL1  H27A 5808   2.313   2.514   8.991 -2.2878  1.5674  0.3931
   45CHL1  H27B 5809   2.357   2.450   8.832  1.1917 -3.1064  2.5168
   45CHL1  H27C 5810   2.185   2.523   8.867 -0.3206  0.0851 -0.0493
   46CHL1    C3 5811   5.372   0.510  10.099 -0.4274 -0.2403  0.5602
   46CHL1    H3 5812   5.475   0.469  10.095 -0.6717 -0.7531 -0.9941
   46CHL1    O3 5813   5.334   0.519  10.231 -0.0569 -0.3026 -0.4376
   46CHL1   H3' 5814   5.270   0.448  10.239  0.7512 -0.8567  1.5610
   46CHL1    C4 5815   5.384   0.650  10.041 -0.3302  0.4747  0.4700
   46CHL1   H4A 5816   5.289   0.706  10.041  0.0236  1.1123 -1.8827
   46CHL1   H4B 5817   5.461   0.707  10.098 -0.5279  0.0950  1.1261
   46CHL1    C5 5818   5.424   0.636   9.897  0.0454 -0.9761 -0.6391
   46CHL1    C6 5819   5.530   0.699   9.853 -0.9095 -1.0207  0.5206
   46CHL1    H6 5820   5.580   0.768   9.922 -1.7398 -1.2029  1.3100
   46CHL1    C7 5821   5.575   0.698   9.715  0.0877  0.1257  0.1494
   46CHL1   H7A 5822   5.625   0.797   9.702 -0.0722  0.4429  1.7732
   46CHL1   H7B 5823   5.649   0.617   9.699  0.7802  1.0209 -1.2999
   46CHL1    C8 5824   5.464   0.660   9.615  0.6012  0.3052 -0.1977
   46CHL1    H8 5825   5.396   0.748   9.609  1.0150  0.6008 -0.7044
   46CHL1   C14 5826   5.528   0.634   9.483  0.0034 -0.4897 -0.2666
   46CHL1   H14 5827   5.592   0.548   9.512  1.8951  0.9398 -0.0300
   46CHL1   C15 5828   5.633   0.725   9.417  0.0393  0.6509 -0.0031
   46CHL1  H15A 5829   5.595   0.830   9.418  0.7060  0.8992 -0.5421
   46CHL1  H15B 5830   5.736   0.715   9.456  0.1385  2.5431  0.2589
   46CHL1   C16 5831   5.623   0.688   9.265  0.3667  0.1245  0.0447
   46CHL1  H16A 5832   5.592   0.774   9.202  0.5244 -0.8227 -1.3389
   46CHL1  H16B 5833   5.724   0.650   9.237  0.0273 -1.1570  0.5268
   46CHL1   C17 5834   5.524   0.569   9.255 -0.2223 -0.3213  0.4056
   46CHL1   H17 5835   5.574   0.473   9.282 -1.2502 -0.6066  1.3557
   46CHL1   C13 5836   5.429   0.589   9.374  0.1441 -1.0737  0.0935
   46CHL1   C18 5837   5.321   0.708   9.357  0.4150 -0.2072  0.6201
   46CHL1  H18A 5838   5.374   0.797   9.316  0.9686 -0.0965  1.5514
   46CHL1  H18B 5839   5.239   0.670   9.292  0.0773  0.3471  0.7216
   46CHL1  H18C 5840   5.262   0.732   9.447  0.6466 -1.2847  1.0762
   46CHL1   C12 5841   5.369   0.455   9.424  0.3617 -0.0320  0.3227
   46CHL1  H12A 5842   5.303   0.423   9.340  0.1868  1.7900 -0.2599
   46CHL1  H12B 5843   5.454   0.385   9.430  1.7470  1.3292 -2.5401
   46CHL1   C11 5844   5.300   0.472   9.560  0.4027 -0.0604 -0.0514
   46CHL1  H11A 5845   5.205   0.528   9.552 -0.3740 -1.5498 -1.4116
   46CHL1  H11B 5846   5.261   0.376   9.598 -0.6056  0.4496  0.2140
   46CHL1    C9 5847   5.396   0.532   9.666  0.1455  0.3287  0.2069
   46CHL1    H9 5848   5.478   0.459   9.683 -3.0481 -2.8273  2.7309
   46CHL1   C10 5849   5.334   0.548   9.811 -0.4094  0.1544  0.7780
   46CHL1   C19 5850   5.192   0.605   9.795 -0.5231  0.3663 -0.4659
   46CHL1  H19A 5851   5.188   0.694   9.728 -1.5311 -0.5909 -1.7137
   46CHL1  H19B 5852   5.131   0.530   9.740 -2.0493  0.6224  0.8714
   46CHL1  H19C 5853   5.152   0.648   9.889  0.0614  0.6852 -0.3627
   46CHL1    C1 5854   5.316   0.404   9.875 -0.0534  0.5074 -0.7115
   46CHL1   H1A 5855   5.243   0.347   9.815  0.4161  0.0200 -0.8285
   46CHL1   H1B 5856   5.405   0.339   9.861  0.6317  1.2890 -0.1208
   46CHL1    C2 5857   5.271   0.420  10.025  0.3332  0.1398 -0.8629
   46CHL1   H2A 5858   5.274   0.321  10.076  2.9126  0.6743  0.1596
   46CHL1   H2B 5859   5.170   0.465  10.028 -0.6479 -1.9694 -1.1372
   46CHL1   C20 5860   5.456   0.546   9.120  0.3074  0.3798 -0.0495
   46CHL1   H20 5861   5.366   0.483   9.140  2.0647 -1.3843  2.6601
   46CHL1   C21 5862   5.542   0.446   9.037 -0.2332 -0.7035  0.0302
   46CHL1  H21A 5863   5.485   0.426   8.944 -2.1446  1.5893  0.6500
   46CHL1  H21B 5864   5.560   0.354   9.098 -1.8289 -1.6663 -0.9260
   46CHL1  H21C 5865   5.637   0.493   9.004 -0.5516 -0.0977 -0.0321
   46CHL1   C22 5866   5.437   0.671   9.032 -0.1491  0.2509  0.4949
   46CHL1  H22A 5867   5.378   0.746   9.090  0.1252  0.4036  0.5776
   46CHL1  H22B 5868   5.539   0.713   9.016 -0.4358  1.8598  2.6022
   46CHL1   C23 5869   5.366   0.642   8.896 -0.1508 -0.1282  0.1025
   46CHL1  H23A 5870   5.424   0.591   8.817 -0.4456 -2.1368  1.1627
   46CHL1  H23B 5871   5.281   0.575   8.920  0.5778 -0.7203  1.0895
   46CHL1   C24 5872   5.294   0.771   8.839 -0.5212  0.7919  0.1937
   46CHL1  H24A 5873   5.239   0.737   8.749  1.7534 -0.1398 -0.9057
   46CHL1  H24B 5874   5.236   0.811   8.925 -2.0813 -1.1785  0.1170
   46CHL1   C25 5875   5.391   0.881   8.788  0.4344 -0.6893  0.1448
   46CHL1   H25 5876   5.431   0.937   8.876 -0.2871  3.2118 -1.9066
   46CHL1   C26 5877   5.508   0.825   8.705 -0.0837  0.1241  0.0615
   46CHL1  H26A 5878   5.572   0.757   8.766  0.8175  1.9379  1.1671
   46CHL1  H26B 5879   5.460   0.775   8.619 -0.3290  1.6413 -0.6959
   46CHL1  H26C 5880   5.568   0.907   8.662  2.6814 -1.6215  0.4512
   46CHL1   C27 5881   5.305   0.982   8.699 -0.2274 -0.3737  0.4743
   46CHL1  H27A 5882   5.229   1.028   8.765  1.7214  3.8550 -0.0362
   46CHL1  H27B 5883   5.372   1.067   8.671 -1.2727  1.1212  2.3558
   46CHL1  H27C 5884   5.273   0.925   8.610 -0.1185 -1.7731  1.3152
   47CHL1    C3 5885   5.916   3.430  10.133  0.2505  0.1765 -0.7659
   47CHL1    H3 5886   5.998   3.356  10.126 -0.3397 -0.6297  0.7033
   47CHL1    O3 5887   5.905   3.475  10.265 -0.6201 -0.2218 -0.0715
   47CHL1   H3' 5888   5.878   3.402  10.320 -2.9943  0.8245  0.2203
   47CHL1    C4 5889   5.935   3.546  10.029 -0.5070  0.2995  0.0442
   47CHL1   H4A 5890   5.854   3.620  10.046  0.1089  1.2358 -1.0454
   47CHL1   H4B 5891   6.032   3.590  10.062 -0.3573 -0.9365  1.3396
   47CHL1    C5 5892   5.927   3.497   9.890 -0.2560  0.1992  0.7329
   47CHL1    C6 5893   6.021   3.535   9.804  0.0287  0.1399  0.1719
   47CHL1    H6 5894   6.095   3.605   9.846  1.3971 -0.8342 -0.5793
   47CHL1    C7 5895   6.024   3.509   9.655  0.0652 -0.5629  0.2137
   47CHL1   H7A 5896   6.040   3.607   9.604  3.1019 -2.3571 -2.5394
   47CHL1   H7B 5897   6.110   3.445   9.626  1.4553  0.9989  0.7828
   47CHL1    C8 5898   5.894   3.445   9.611  0.6861  0.1442 -0.6012
   47CHL1    H8 5899   5.817   3.525   9.600 -0.7955 -0.7220  2.7731
   47CHL1   C14 5900   5.924   3.386   9.478 -0.3055  0.0858 -0.3509
   47CHL1   H14 5901   5.998   3.304   9.491 -1.1475 -0.4597  1.0228
   47CHL1   C15 5902   5.978   3.464   9.358 -0.5517  0.5389  0.1918
   47CHL1  H15A 5903   5.936   3.565   9.341  1.1777  1.0641 -1.0889
   47CHL1  H15B 5904   6.087   3.487   9.358 -0.3418 -0.4617 -0.2429
   47CHL1   C16 5905   5.944   3.385   9.231 -0.7311 -0.2620  0.2646
   47CHL1  H16A 5906   5.875   3.446   9.169  0.3849 -0.1115 -0.8756
   47CHL1  H16B 5907   6.034   3.357   9.171 -1.0172  0.2269 -0.4060
   47CHL1   C17 5908   5.860   3.262   9.285 -0.5787 -0.1043 -0.3214
   47CHL1   H17 5909   5.934   3.185   9.317 -0.6194 -0.0157 -0.0078
   47CHL1   C13 5910   5.800   3.310   9.417 -0.8140  0.3092  0.6299
   47CHL1   C18 5911   5.692   3.407   9.386  0.6103  1.0222 -0.1020
   47CHL1  H18A 5912   5.606   3.360   9.333 -0.5694 -0.0572  2.6509
   47CHL1  H18B 5913   5.645   3.453   9.476  1.0876  1.8281 -0.2541
   47CHL1  H18C 5914   5.731   3.494   9.330 -1.3625  2.2441  0.3910
   47CHL1   C12 5915   5.756   3.202   9.514  0.2486 -0.5213  0.5525
   47CHL1  H12A 5916   5.654   3.178   9.477 -0.4563  3.0727 -0.0362
   47CHL1  H12B 5917   5.827   3.118   9.531 -0.7378 -1.3646  0.5642
   47CHL1   C11 5918   5.725   3.256   9.653  0.4046 -0.2317  0.0266
   47CHL1  H11A 5919   5.634   3.318   9.640  1.3306  1.0438 -0.4267
   47CHL1  H11B 5920   5.703   3.164   9.711  0.7186 -2.1922 -2.8782
   47CHL1    C9 5921   5.844   3.336   9.711  0.2916  0.4840  0.4853
   47CHL1    H9 5922   5.931   3.268   9.719  0.6302  0.8819  0.2229
   47CHL1   C10 5923   5.817   3.402   9.849 -0.9625  0.7752  0.2569
   47CHL1   C19 5924   5.684   3.483   9.843 -0.4066 -0.1402 -0.2585
   47CHL1  H19A 5925   5.603   3.407   9.832 -1.3004  0.2167  3.1053
   47CHL1  H19B 5926   5.657   3.533   9.939 -0.1421 -0.1807 -0.1646
   47CHL1  H19C 5927   5.696   3.558   9.762  2.0838  1.1257  1.2203
   47CHL1    C1 5928   5.807   3.285   9.957 -0.0193 -0.1223 -0.4494
   47CHL1   H1A 5929   5.715   3.232   9.926  0.8579 -0.4674 -2.5555
   47CHL1   H1B 5930   5.899   3.223   9.944 -0.7133 -1.0904 -0.7450
   47CHL1    C2 5931   5.806   3.341  10.102  0.4429 -0.2160 -0.0486
   47CHL1   H2A 5932   5.803   3.256  10.173  0.7566 -1.7884 -1.8631
   47CHL1   H2B 5933   5.706   3.389  10.094  0.5557 -0.4084 -3.8005
   47CHL1   C20 5934   5.772   3.201   9.177 -0.1988 -0.0025  0.6904
   47CHL1   H20 5935   5.675   3.253   9.160 -1.1224 -2.4367 -1.8375
   47CHL1   C21 5936   5.723   3.062   9.229  0.1300 -0.5915  0.9037
   47CHL1  H21A 5937   5.800   2.996   9.276  2.4005  0.2688 -1.4523
   47CHL1  H21B 5938   5.676   3.004   9.147 -0.2109 -0.8681  1.2936
   47CHL1  H21C 5939   5.638   3.095   9.292  0.5444  1.1957  0.5386
   47CHL1   C22 5940   5.837   3.171   9.039 -0.3336 -0.1727  0.9407
   47CHL1  H22A 5941   5.752   3.139   8.975  1.2282  1.0815 -1.8591
   47CHL1  H22B 5942   5.855   3.279   9.017 -2.3412  0.4081  2.1008
   47CHL1   C23 5943   5.956   3.070   9.035  0.5199  0.0048  0.6395
   47CHL1  H23A 5944   6.037   3.120   9.092  1.5081 -2.7916  1.7919
   47CHL1  H23B 5945   5.923   2.974   9.079  1.5264 -1.3294 -1.4322
   47CHL1   C24 5946   6.004   3.028   8.892 -0.3846 -0.3962 -0.0180
   47CHL1  H24A 5947   6.082   2.952   8.915 -0.3156 -0.3880 -0.2206
   47CHL1  H24B 5948   5.930   2.971   8.831 -0.3728  0.2137 -0.5993
   47CHL1   C25 5949   6.070   3.129   8.800 -0.3994  0.4965 -0.5501
   47CHL1   H25 5950   6.134   3.179   8.876  0.3544 -0.7401 -0.3653
   47CHL1   C26 5951   6.140   3.062   8.681  0.4918  0.2110  0.3474
   47CHL1  H26A 5952   6.193   3.136   8.617 -1.9805  1.0766 -0.7403
   47CHL1  H26B 5953   6.067   2.997   8.628 -0.4374  0.3271  1.4704
   47CHL1  H26C 5954   6.224   2.994   8.708  2.9147  1.8417 -2.6279
   47CHL1   C27 5955   5.966   3.225   8.738 -0.3714 -0.0747  0.5811
   47CHL1  H27A 5956   5.897   3.175   8.666  0.5694 -2.4783  1.2971
   47CHL1  H27B 5957   5.898   3.272   8.813 -0.9785  2.4582 -1.4843
   47CHL1  H27C 5958   6.012   3.306   8.679 -1.1059  1.0551  1.5424
   48CHL1    C3 5959   6.690   4.225  10.096 -0.2390  0.6466  0.4418
   48CHL1    H3 5960   6.592   4.260  10.058 -0.2011 -1.2020 -1.4257
   48CHL1    O3 5961   6.668   4.179  10.231  0.0926  0.2498 -0.1102
   48CHL1   H3' 5962   6.755   4.165  10.270  0.0645  1.1242  0.2773
   48CHL1    C4 5963   6.751   4.106  10.011 -0.4691 -0.5628 -0.1151
   48CHL1   H4A 5964   6.849   4.078  10.053 -0.5644  2.3635  2.1566
   48CHL1   H4B 5965   6.683   4.021  10.035  1.0586 -0.5548  4.6246
   48CHL1    C5 5966   6.781   4.143   9.867 -0.0402 -0.1267 -0.3159
   48CHL1    C6 5967   6.734   4.061   9.773 -0.9783 -0.3719  0.2038
   48CHL1    H6 5968   6.681   3.967   9.796 -1.8332  0.0990  0.1677
   48CHL1    C7 5969   6.770   4.081   9.627  0.8421 -0.3272 -0.5120
   48CHL1   H7A 5970   6.812   3.982   9.598  0.2007 -0.6369 -0.3939
   48CHL1   H7B 5971   6.682   4.107   9.564 -1.5487 -1.1234  2.3666
   48CHL1    C8 5972   6.875   4.189   9.605 -0.4088 -0.3272 -0.3922
   48CHL1    H8 5973   6.969   4.133   9.623  0.2266  1.2043  1.2631
   48CHL1   C14 5974   6.876   4.244   9.466  0.7911  0.8360  0.0133
   48CHL1   H14 5975   6.779   4.298   9.465  0.7210  0.7498  0.9138
   48CHL1   C15 5976   6.866   4.135   9.359 -0.0383  0.1857  0.4800
   48CHL1  H15A 5977   6.937   4.051   9.373 -1.5242 -1.1511  0.1781
   48CHL1  H15B 5978   6.762   4.096   9.358  1.0325 -2.7589 -0.7346
   48CHL1   C16 5979   6.886   4.212   9.228 -0.1233 -0.0097 -0.4111
   48CHL1  H16A 5980   6.939   4.146   9.157  0.9468  0.0116  0.3561
   48CHL1  H16B 5981   6.791   4.241   9.178 -0.3449 -0.2000 -0.1053
   48CHL1   C17 5982   6.945   4.355   9.271 -0.1832  0.2974 -0.0520
   48CHL1   H17 5983   6.873   4.439   9.260  0.4903  0.9284  0.3836
   48CHL1   C13 5984   6.978   4.333   9.418 -0.5444 -0.5299  0.1127
   48CHL1   C18 5985   7.116   4.271   9.437  0.2623 -0.3224 -0.2420
   48CHL1  H18A 5986   7.140   4.254   9.544 -2.0328  1.0100  0.5050
   48CHL1  H18B 5987   7.127   4.176   9.379  1.7139 -0.5319  0.3454
   48CHL1  H18C 5988   7.195   4.336   9.394  0.1245  0.8044  1.1886
   48CHL1   C12 5989   6.963   4.462   9.509  0.5706 -0.2283 -0.0695
   48CHL1  H12A 5990   7.046   4.532   9.486  1.2290 -1.3725 -1.1911
   48CHL1  H12B 5991   6.872   4.517   9.476  1.7040  1.5528 -0.2774
   48CHL1   C11 5992   6.965   4.428   9.660 -0.4302 -0.3069 -0.0739
   48CHL1  H11A 5993   7.065   4.402   9.701 -1.1170 -3.3171 -0.2336
   48CHL1  H11B 5994   6.957   4.521   9.722 -1.4411 -0.5228  0.1236
   48CHL1    C9 5995   6.864   4.315   9.699  0.0287 -0.7715 -0.1684
   48CHL1    H9 5996   6.761   4.353   9.685  0.3043 -0.6449 -1.9656
   48CHL1   C10 5997   6.865   4.276   9.853  0.6663 -0.1074 -0.2883
   48CHL1   C19 5998   7.011   4.260   9.903 -0.2318  0.3471 -0.2198
   48CHL1  H19A 5999   7.071   4.203   9.829  1.6982  0.5037  1.1588
   48CHL1  H19B 6000   7.062   4.356   9.925 -2.3733  1.4554 -0.0049
   48CHL1  H19C 6001   7.005   4.194   9.993 -0.5995 -0.0270 -0.5185
   48CHL1    C1 6002   6.791   4.388   9.934 -0.3275  0.3542 -0.1159
   48CHL1   H1A 6003   6.870   4.465   9.925  0.5949 -0.4691  0.9613
   48CHL1   H1B 6004   6.695   4.422   9.889 -1.0837 -2.4142 -0.7042
   48CHL1    C2 6005   6.778   4.348  10.083  0.0584  1.3523  0.3327
   48CHL1   H2A 6006   6.746   4.436  10.143  2.0130  1.6509  0.9652
   48CHL1   H2B 6007   6.874   4.314  10.127  0.1230  1.5554  0.3472
   48CHL1   C20 6008   7.059   4.401   9.176  0.1777 -0.2757 -0.0085
   48CHL1   H20 6009   7.141   4.328   9.189 -0.4596 -0.9543  0.2915
   48CHL1   C21 6010   7.107   4.541   9.207  0.8721 -0.4247  0.0986
   48CHL1  H21A 6011   7.030   4.616   9.181  2.1677  1.5508  1.6976
   48CHL1  H21B 6012   7.198   4.562   9.146 -0.1001 -1.3942 -1.7166
   48CHL1  H21C 6013   7.138   4.553   9.313 -0.1351 -0.8375  0.4422
   48CHL1   C22 6014   7.005   4.398   9.032  0.4201  0.6591 -0.4858
   48CHL1  H22A 6015   6.966   4.296   9.015  0.1213  0.8780 -1.1193
   48CHL1  H22B 6016   6.917   4.465   9.021 -0.1562 -0.2903 -1.7863
   48CHL1   C23 6017   7.112   4.421   8.924  0.5618 -0.5177 -0.1813
   48CHL1  H23A 6018   7.165   4.517   8.942  0.4644 -0.6979  1.1424
   48CHL1  H23B 6019   7.182   4.335   8.938  2.1039  0.8165  0.4007
   48CHL1   C24 6020   7.060   4.424   8.780 -1.2057 -0.7603  0.7096
   48CHL1  H24A 6021   6.996   4.338   8.755 -0.6360 -1.3360  1.1991
   48CHL1  H24B 6022   6.991   4.509   8.761  0.5493  0.6186  0.2554
   48CHL1   C25 6023   7.171   4.430   8.666  0.1652 -0.8769 -0.0698
   48CHL1   H25 6024   7.104   4.457   8.580  1.3106 -0.3960 -0.8202
   48CHL1   C26 6025   7.274   4.540   8.677 -0.3568  1.1476 -0.6336
   48CHL1  H26A 6026   7.230   4.637   8.708 -0.6061  0.5060  1.0932
   48CHL1  H26B 6027   7.337   4.510   8.763 -0.8601 -4.5092 -2.0304
   48CHL1  H26C 6028   7.329   4.553   8.582  1.3480 -2.1368 -0.1983
   48CHL1   C27 6029   7.223   4.290   8.643  0.3770 -0.5658 -0.1166
   48CHL1  H27A 6030   7.145   4.229   8.592 -0.0976  0.0621 -0.1478
   48CHL1  H27B 6031   7.299   4.300   8.562 -1.2864 -0.9627 -1.7599
   48CHL1  H27C 6032   7.250   4.236   8.736  1.6276  2.2957  1.2785
   49CHL1    C3 6033   4.868   0.333  10.053  0.0488  0.5217 -0.4373
   49CHL1    H3 6034   4.960   0.395  10.049  1.4763 -1.3703  1.9049
   49CHL1    O3 6035   4.817   0.322  10.183  0.6206 -0.1323  0.5565
   49CHL1   H3' 6036   4.854   0.239  10.215 -0.3611 -0.9306 -0.3286
   49CHL1    C4 6037   4.757   0.392   9.965  0.1789  1.0937 -0.7014
   49CHL1   H4A 6038   4.665   0.332   9.983  0.1045  0.9986 -1.3855
   49CHL1   H4B 6039   4.730   0.491  10.007 -0.2896  2.3041 -3.7381
   49CHL1    C5 6040   4.799   0.404   9.821 -0.2213  0.2415 -0.2789
   49CHL1    C6 6041   4.800   0.520   9.754 -0.2253 -0.0281 -0.4332
   49CHL1    H6 6042   4.759   0.609   9.803 -1.2311 -1.4149  1.2744
   49CHL1    C7 6043   4.837   0.546   9.610 -0.8198 -0.1641  0.0028
   49CHL1   H7A 6044   4.762   0.615   9.567 -0.3031 -0.0688 -0.7711
   49CHL1   H7B 6045   4.942   0.581   9.597 -1.6466  2.3194 -0.2438
   49CHL1    C8 6046   4.846   0.401   9.540  0.6543  0.2539  0.1079
   49CHL1    H8 6047   4.746   0.363   9.511  1.5424 -1.1170 -1.1900
   49CHL1   C14 6048   4.916   0.416   9.412 -0.2517 -0.5989 -0.0058
   49CHL1   H14 6049   5.014   0.456   9.443  0.4022 -2.3774  0.2799
   49CHL1   C15 6050   4.877   0.516   9.305 -0.1922 -0.3212  0.1267
   49CHL1  H15A 6051   4.768   0.506   9.286  0.1160 -0.5169 -1.5925
   49CHL1  H15B 6052   4.900   0.624   9.317 -1.8424 -0.1526  1.8954
   49CHL1   C16 6053   4.958   0.478   9.182  0.9251 -0.9772 -0.4362
   49CHL1  H16A 6054   4.891   0.471   9.094  0.9756  1.5567 -0.7136
   49CHL1  H16B 6055   5.028   0.557   9.150  0.0438  0.4297  1.0522
   49CHL1   C17 6056   5.018   0.340   9.204  0.2448  0.2393  0.3825
   49CHL1   H17 6057   5.119   0.360   9.246 -0.0194  2.2884  0.0641
   49CHL1   C13 6058   4.943   0.288   9.334  0.1180 -0.2239  0.8543
   49CHL1   C18 6059   4.805   0.221   9.277 -0.6956 -0.4030  0.1108
   49CHL1  H18A 6060   4.732   0.179   9.350 -0.3567 -0.5323  0.3746
   49CHL1  H18B 6061   4.752   0.297   9.215  1.4292  0.9047 -0.1321
   49CHL1  H18C 6062   4.829   0.132   9.215  0.3342 -0.0785  0.0332
   49CHL1   C12 6063   5.017   0.198   9.423  0.1389  0.7564 -0.3279
   49CHL1  H12A 6064   5.031   0.098   9.377 -1.2885  0.8193 -0.9084
   49CHL1  H12B 6065   5.116   0.241   9.448  1.1946 -0.6773 -1.9025
   49CHL1   C11 6066   4.953   0.169   9.562  0.1179 -0.0831 -0.4699
   49CHL1  H11A 6067   4.867   0.105   9.535  0.9745 -1.1855 -0.5804
   49CHL1  H11B 6068   5.032   0.117   9.620 -0.7558 -0.1102  0.7065
   49CHL1    C9 6069   4.916   0.302   9.633 -0.1433  0.0979 -0.3653
   49CHL1    H9 6070   5.014   0.349   9.658  0.7689 -1.9933  0.1936
   49CHL1   C10 6071   4.846   0.270   9.761  0.3963  0.1960 -0.1969
   49CHL1   C19 6072   4.710   0.189   9.741  0.1018  0.1736  0.2048
   49CHL1  H19A 6073   4.676   0.156   9.841  3.2389 -2.4265  0.4990
   49CHL1  H19B 6074   4.624   0.253   9.713 -0.8382 -0.2250  2.1693
   49CHL1  H19C 6075   4.725   0.100   9.676 -0.6401  0.1492  0.0596
   49CHL1    C1 6076   4.942   0.195   9.859 -0.3000  0.1412 -0.7187
   49CHL1   H1A 6077   4.958   0.090   9.828 -1.6723 -0.3084  0.0448
   49CHL1   H1B 6078   5.042   0.242   9.855  0.7425 -1.9667 -0.2615
   49CHL1    C2 6079   4.889   0.186  10.005  0.2364 -0.5569  0.4001
   49CHL1   H2A 6080   4.962   0.135  10.071  1.0528  0.4574  0.2922
   49CHL1   H2B 6081   4.789   0.137  10.001 -0.5385  1.1262 -1.7601
   49CHL1   C20 6082   5.029   0.253   9.082  0.1124 -0.4777 -0.1461
   49CHL1   H20 6083   4.929   0.236   9.038 -0.0297 -1.6432  0.6095
   49CHL1   C21 6084   5.093   0.119   9.121  0.7854 -0.3364  0.3616
   49CHL1  H21A 6085   5.125   0.057   9.035  3.5735  0.1696  0.9903
   49CHL1  H21B 6086   5.029   0.053   9.184  1.2589 -1.6310 -0.5065
   49CHL1  H21C 6087   5.182   0.153   9.178 -1.1107  2.3477  1.8086
   49CHL1   C22 6088   5.120   0.328   8.980  0.2849 -0.0792 -0.3098
   49CHL1  H22A 6089   5.066   0.417   8.942 -1.2285 -1.4371 -1.4044
   49CHL1  H22B 6090   5.206   0.378   9.030  1.2925 -1.3835 -0.6962
   49CHL1   C23 6091   5.155   0.250   8.854 -0.3907  0.3645 -1.1212
   49CHL1  H23A 6092   5.224   0.165   8.877 -0.3018  0.6902 -0.1664
   49CHL1  H23B 6093   5.060   0.217   8.808 -0.8205  0.6485 -0.4418
   49CHL1   C24 6094   5.220   0.351   8.757 -0.1716 -0.2135 -0.1836
   49CHL1  H24A 6095   5.163   0.446   8.748 -0.8691 -0.4990  1.1532
   49CHL1  H24B 6096   5.321   0.384   8.787 -0.7521  2.8895 -1.4642
   49CHL1   C25 6097   5.241   0.287   8.615  0.2803  0.6217  0.6227
   49CHL1   H25 6098   5.272   0.181   8.627  0.0219  0.3744 -0.8956
   49CHL1   C26 6099   5.109   0.296   8.543  0.9383  0.1198 -0.0022
   49CHL1  H26A 6100   5.032   0.245   8.605 -1.4278  2.7706 -0.6415
   49CHL1  H26B 6101   5.076   0.402   8.535  2.4499  0.4856 -1.7990
   49CHL1  H26C 6102   5.112   0.252   8.442  3.2953 -1.7594  0.8419
   49CHL1   C27 6103   5.345   0.373   8.534 -0.0747  0.2552 -0.2280
   49CHL1  H27A 6104   5.321   0.481   8.547  1.4446  0.4903  0.7326
   49CHL1  H27B 6105   5.444   0.366   8.584 -0.2917 -3.9023 -0.2022
   49CHL1  H27C 6106   5.347   0.338   8.429  1.0339  0.6148 -0.3274
   50CHL1    C3 6107   0.996   1.571   9.973  0.2921 -0.1731 -0.1498
   50CHL1    H3 6108   1.085   1.510   9.949  0.7252  0.8306 -1.1421
   50CHL1    O3 6109   1.022   1.633  10.096  0.4532  0.3380 -0.1922
   50CHL1   H3' 6110   0.937   1.678  10.105  1.2524  2.3900 -2.3530
   50CHL1    C4 6111   0.958   1.684   9.881  0.1564  0.3064  0.2889
   50CHL1   H4A 6112   0.876   1.754   9.910 -1.1786 -1.2413  0.2843
   50CHL1   H4B 6113   1.046   1.751   9.873 -0.0523  0.6320  0.6745
   50CHL1    C5 6114   0.920   1.628   9.741  0.3292 -0.0555 -0.3631
   50CHL1    C6 6115   0.978   1.679   9.631  0.3215 -0.1977  0.0984
   50CHL1    H6 6116   1.049   1.763   9.635 -0.8548  0.7787  0.9469
   50CHL1    C7 6117   0.959   1.624   9.490  0.1495 -0.4177  0.1424
   50CHL1   H7A 6118   0.965   1.706   9.416 -0.2660 -1.7641 -1.4095
   50CHL1   H7B 6119   1.053   1.568   9.472  0.2505 -0.3156  0.3469
   50CHL1    C8 6120   0.826   1.538   9.487  0.4513 -0.2366  0.8997
   50CHL1    H8 6121   0.744   1.613   9.488 -0.5323 -1.2951  3.1704
   50CHL1   C14 6122   0.819   1.452   9.351 -0.8000  0.0437  0.7968
   50CHL1   H14 6123   0.905   1.382   9.359  0.4429  1.5957  1.2507
   50CHL1   C15 6124   0.853   1.516   9.215 -0.3755  0.0259  0.3896
   50CHL1  H15A 6125   0.798   1.606   9.181  0.3037 -0.8040 -3.0463
   50CHL1  H15B 6126   0.960   1.536   9.197 -0.7268  1.5458 -0.0245
   50CHL1   C16 6127   0.804   1.406   9.119 -0.1771 -0.0564 -0.9584
   50CHL1  H16A 6128   0.748   1.458   9.038 -1.0780  0.7336  0.1546
   50CHL1  H16B 6129   0.887   1.346   9.076  0.9029 -0.0505  1.0581
   50CHL1   C17 6130   0.712   1.306   9.195  0.8407  0.1447  1.0937
   50CHL1   H17 6131   0.776   1.215   9.206 -1.9001 -1.6853  2.3592
   50CHL1   C13 6132   0.689   1.370   9.330 -0.4084  0.7670 -0.3915
   50CHL1   C18 6133   0.571   1.469   9.334  0.2693  0.0544 -0.0487
   50CHL1  H18A 6134   0.475   1.414   9.339  0.9779 -1.0324  2.5274
   50CHL1  H18B 6135   0.560   1.541   9.418  0.8925 -0.3733  0.4000
   50CHL1  H18C 6136   0.587   1.537   9.247 -0.9101 -0.6204 -0.8120
   50CHL1   C12 6137   0.684   1.272   9.447 -0.1522  0.6784  0.3958
   50CHL1  H12A 6138   0.597   1.204   9.458  0.7388 -0.9874 -2.3738
   50CHL1  H12B 6139   0.777   1.215   9.429 -0.5780  0.6725 -1.8685
   50CHL1   C11 6140   0.686   1.350   9.586 -0.4306 -0.5673  0.3612
   50CHL1  H11A 6141   0.586   1.398   9.589 -0.9634 -1.6555  0.4508
   50CHL1  H11B 6142   0.685   1.282   9.675  2.9779 -1.3283 -0.1074
   50CHL1    C9 6143   0.813   1.435   9.599  0.6091 -0.4756  0.9968
   50CHL1    H9 6144   0.907   1.376   9.602  1.0589 -0.0584 -2.2896
   50CHL1   C10 6145   0.820   1.510   9.736 -0.5161 -0.3985 -0.9096
   50CHL1   C19 6146   0.684   1.578   9.762  0.0503 -0.7959 -0.1686
   50CHL1  H19A 6147   0.602   1.504   9.776 -0.8846  0.1712 -0.4732
   50CHL1  H19B 6148   0.687   1.636   9.856  1.6513 -1.5541  0.2621
   50CHL1  H19C 6149   0.651   1.655   9.688  0.9801  1.1257  1.3843
   50CHL1    C1 6150   0.857   1.411   9.853  0.5007  0.6174 -0.4227
   50CHL1   H1A 6151   0.785   1.328   9.871  1.3092  0.1085  0.5567
   50CHL1   H1B 6152   0.949   1.356   9.823  1.6875  2.4370 -0.1779
   50CHL1    C2 6153   0.882   1.476   9.990  0.0328 -0.2383  0.0459
   50CHL1   H2A 6154   0.907   1.389  10.056  1.2039 -1.6732 -2.2387
   50CHL1   H2B 6155   0.791   1.526  10.030 -0.7575  0.7017 -2.8102
   50CHL1   C20 6156   0.594   1.269   9.115 -1.2422  0.8247  0.1855
   50CHL1   H20 6157   0.533   1.361   9.101 -1.2178  1.7033  4.9114
   50CHL1   C21 6158   0.507   1.168   9.186 -0.5099 -0.0432  0.4071
   50CHL1  H21A 6159   0.567   1.075   9.199  0.8163  1.1244  2.8405
   50CHL1  H21B 6160   0.416   1.138   9.130 -0.5729 -1.5434  1.2931
   50CHL1  H21C 6161   0.470   1.208   9.282 -2.9085 -0.1052 -0.4687
   50CHL1   C22 6162   0.628   1.218   8.968 -0.0250 -0.6114 -0.5478
   50CHL1  H22A 6163   0.528   1.179   8.939  0.7673 -1.1494 -2.6403
   50CHL1  H22B 6164   0.658   1.296   8.894  1.5463  0.0120  0.7132
   50CHL1   C23 6165   0.727   1.101   8.954 -0.1949  0.2215 -0.2837
   50CHL1  H23A 6166   0.832   1.134   8.971 -0.0455  0.2011 -1.1423
   50CHL1  H23B 6167   0.704   1.028   9.034 -0.8235  0.8246  0.0910
   50CHL1   C24 6168   0.722   1.034   8.812 -0.0076 -0.0724 -0.0749
   50CHL1  H24A 6169   0.798   0.953   8.803 -0.1579 -0.1771 -0.3915
   50CHL1  H24B 6170   0.622   0.986   8.806  0.4860 -1.0780 -0.4121
   50CHL1   C25 6171   0.752   1.127   8.704 -0.4762  0.9875 -0.0759
   50CHL1   H25 6172   0.688   1.215   8.725 -2.7483  0.3058 -3.6475
   50CHL1   C26 6173   0.890   1.175   8.707 -0.3502 -0.0215  0.1977
   50CHL1  H26A 6174   0.894   1.245   8.621  0.3979  0.1901  0.4007
   50CHL1  H26B 6175   0.902   1.231   8.802  1.5498 -1.8260  1.0731
   50CHL1  H26C 6176   0.961   1.090   8.698  0.5490  0.8340 -0.9718
   50CHL1   C27 6177   0.716   1.061   8.569 -0.1467 -0.0695  0.0884
   50CHL1  H27A 6178   0.608   1.033   8.569  0.0624 -0.9133 -1.1024
   50CHL1  H27B 6179   0.740   1.125   8.482 -1.1659  0.6950  0.3518
   50CHL1  H27C 6180   0.776   0.968   8.559  2.2409  1.3444  0.8211
   51CHL1    C3 6181   2.562   3.890  10.435  0.4838  0.3573 -0.3031
   51CHL1    H3 6182   2.584   3.784  10.410 -0.3735 -0.0154  0.4727
   51CHL1    O3 6183   2.588   3.914  10.574  0.0853  0.1441  0.1916
   51CHL1   H3' 6184   2.553   4.002  10.586  1.3789  0.7218 -0.1726
   51CHL1    C4 6185   2.647   3.980  10.360  0.1210 -0.3963 -0.5135
   51CHL1   H4A 6186   2.623   4.082  10.395 -1.4937 -0.9445  0.0107
   51CHL1   H4B 6187   2.756   3.963  10.375 -0.2884 -0.6933  2.4090
   51CHL1    C5 6188   2.630   3.966  10.208 -0.7907  0.2939 -0.8636
   51CHL1    C6 6189   2.731   3.929  10.126 -0.0617 -0.7869 -0.5373
   51CHL1    H6 6190   2.836   3.925  10.159 -0.2676  0.1538  0.2482
   51CHL1    C7 6191   2.711   3.919   9.979  0.0638  0.0317 -0.0950
   51CHL1   H7A 6192   2.807   3.951   9.933  1.8421 -0.1489  3.3371
   51CHL1   H7B 6193   2.702   3.809   9.960 -0.4813  0.2728 -1.2736
   51CHL1    C8 6194   2.578   3.974   9.925  0.7143 -0.6135 -0.6574
   51CHL1    H8 6195   2.581   4.085   9.935  0.3789 -0.6292 -0.3868
   51CHL1   C14 6196   2.542   3.939   9.783 -1.0192 -0.6269 -0.1529
   51CHL1   H14 6197   2.539   3.828   9.784 -3.2311 -0.5824  0.5216
   51CHL1   C15 6198   2.645   3.974   9.676 -0.5146  0.5098 -0.1027
   51CHL1  H15A 6199   2.699   4.070   9.687 -0.1875  0.4323 -1.0177
   51CHL1  H15B 6200   2.717   3.890   9.662 -0.8051  0.2154  0.1629
   51CHL1   C16 6201   2.561   3.965   9.544 -0.8183 -0.3493  0.0594
   51CHL1  H16A 6202   2.558   4.066   9.497 -0.7351  0.6697  2.1866
   51CHL1  H16B 6203   2.591   3.883   9.476  1.2359 -0.2051  0.7631
   51CHL1   C17 6204   2.408   3.928   9.585 -0.2898 -0.0636 -0.2553
   51CHL1   H17 6205   2.395   3.819   9.595 -0.7690  0.0266  0.0872
   51CHL1   C13 6206   2.409   3.988   9.734  0.1187 -0.3235  0.1415
   51CHL1   C18 6207   2.402   4.137   9.732  0.3006  0.2430  0.5956
   51CHL1  H18A 6208   2.425   4.170   9.835 -3.4174  1.5034  1.0972
   51CHL1  H18B 6209   2.479   4.183   9.667  1.7631  0.2775  2.3311
   51CHL1  H18C 6210   2.297   4.165   9.707  0.4807  0.3108 -0.1117
   51CHL1   C12 6211   2.297   3.926   9.822 -0.0689 -0.0290 -0.8375
   51CHL1  H12A 6212   2.205   3.974   9.783  0.9159  1.4445 -1.3837
   51CHL1  H12B 6213   2.293   3.817   9.804 -1.3529 -0.4642  1.7416
   51CHL1   C11 6214   2.317   3.960   9.964 -0.3195 -0.3099 -0.2251
   51CHL1  H11A 6215   2.302   4.070   9.966  0.4948 -0.1685 -1.3581
   51CHL1  H11B 6216   2.249   3.911  10.038  0.9118 -2.6978 -0.6225
   51CHL1    C9 6217   2.462   3.925  10.020  0.5036  0.3713  0.7179
   51CHL1    H9 6218   2.462   3.814  10.015 -0.4265  0.3190  1.7589
   51CHL1   C10 6219   2.480   3.977  10.167  0.4415 -0.2988 -0.1437
   51CHL1   C19 6220   2.433   4.130  10.178 -0.0946 -0.2159 -0.5219
   51CHL1  H19A 6221   2.324   4.136  10.160 -0.5059  1.0960  2.1518
   51CHL1  H19B 6222   2.452   4.166  10.282 -1.0610 -3.4421  0.8315
   51CHL1  H19C 6223   2.492   4.195  10.109 -0.0220 -1.9096 -2.0894
   51CHL1    C1 6224   2.389   3.898  10.260  0.3032  0.3077 -0.3359
   51CHL1   H1A 6225   2.284   3.929  10.242  0.8190  2.7798  0.7092
   51CHL1   H1B 6226   2.412   3.792  10.238  1.8541  0.7003 -0.6382
   51CHL1    C2 6227   2.411   3.903  10.406 -1.0670 -0.5141 -0.0474
   51CHL1   H2A 6228   2.351   3.823  10.452 -2.3000 -0.6285 -1.8133
   51CHL1   H2B 6229   2.385   4.003  10.448 -1.5561 -0.7245  0.1444
   51CHL1   C20 6230   2.315   3.994   9.484 -0.2854  0.0563 -1.2647
   51CHL1   H20 6231   2.322   4.104   9.487  0.3900  0.0250 -1.5363
   51CHL1   C21 6232   2.170   3.950   9.510 -0.3793  0.0828 -0.4058
   51CHL1  H21A 6233   2.122   4.001   9.597 -1.1278 -0.2782 -0.6018
   51CHL1  H21B 6234   2.182   3.840   9.520  2.1746  0.1775 -1.9888
   51CHL1  H21C 6235   2.113   3.981   9.420 -0.3564 -1.5884 -1.0032
   51CHL1   C22 6236   2.350   3.955   9.337  0.2043 -0.2552 -0.7160
   51CHL1  H22A 6237   2.457   3.971   9.311 -0.1467  1.1748 -1.2734
   51CHL1  H22B 6238   2.340   3.844   9.337 -0.9565 -0.2135  2.9672
   51CHL1   C23 6239   2.262   4.014   9.228  0.5051 -0.4205 -0.1155
   51CHL1  H23A 6240   2.213   4.103   9.276  2.3221 -0.1016  1.2092
   51CHL1  H23B 6241   2.331   4.048   9.148  1.0622  0.5936  0.7699
   51CHL1   C24 6242   2.171   3.896   9.174 -0.0960 -0.0515  0.3108
   51CHL1  H24A 6243   2.239   3.808   9.171  0.1206  0.1252 -0.1571
   51CHL1  H24B 6244   2.092   3.873   9.248  1.9719 -5.0591  1.1377
   51CHL1   C25 6245   2.106   3.939   9.029  0.2281  0.9203 -0.8998
   51CHL1   H25 6246   2.072   4.043   9.045 -0.0188  0.9419 -1.5286
   51CHL1   C26 6247   2.208   3.944   8.918  0.6079 -0.1451 -0.3922
   51CHL1  H26A 6248   2.273   4.034   8.924 -0.9813  0.9913  0.1668
   51CHL1  H26B 6249   2.268   3.852   8.933  1.6083  0.8028  1.5114
   51CHL1  H26C 6250   2.164   3.946   8.816  1.6937 -2.3071 -0.9285
   51CHL1   C27 6251   1.979   3.857   8.994 -0.3078  0.5073  0.3061
   51CHL1  H27A 6252   1.994   3.747   9.006  0.6513  0.3585 -1.9303
   51CHL1  H27B 6253   1.893   3.896   9.053  0.5954 -1.6486  3.2008
   51CHL1  H27C 6254   1.980   3.869   8.884  0.9699  2.3161  0.4999
   52CHL1    C3 6255   6.339   3.102  10.081 -0.3229 -0.5788  0.6260
   52CHL1    H3 6256   6.448   3.122  10.071 -0.4840 -1.3690 -3.7900
   52CHL1    O3 6257   6.300   3.098  10.219  0.3289 -0.4245  0.8355
   52CHL1   H3' 6258   6.214   3.055  10.228  0.7685 -1.0418  2.3420
   52CHL1    C4 6259   6.272   3.217  10.007  0.5636 -0.2080  0.1601
   52CHL1   H4A 6260   6.162   3.213  10.024  0.5041 -0.0121 -0.1784
   52CHL1   H4B 6261   6.309   3.313  10.049  1.1024 -0.8080  1.0747
   52CHL1    C5 6262   6.300   3.204   9.858 -0.2615  0.0360 -0.4187
   52CHL1    C6 6263   6.362   3.306   9.794 -0.2827  0.4831 -0.1541
   52CHL1    H6 6264   6.397   3.395   9.849  2.4506 -0.3859 -0.4480
   52CHL1    C7 6265   6.401   3.291   9.650  0.8127 -0.2496  0.1971
   52CHL1   H7A 6266   6.382   3.385   9.595  0.1994 -0.0437  0.7562
   52CHL1   H7B 6267   6.509   3.268   9.656  0.5674 -2.0857 -1.5327
   52CHL1    C8 6268   6.344   3.171   9.577  0.0017 -0.7546 -0.0135
   52CHL1    H8 6269   6.242   3.202   9.546  0.2975 -1.5311 -1.7821
   52CHL1   C14 6270   6.415   3.142   9.444 -0.1710  0.1395  0.3419
   52CHL1   H14 6271   6.510   3.092   9.471  0.6887  1.5686  0.0365
   52CHL1   C15 6272   6.438   3.262   9.353 -0.1077 -0.3429  0.1747
   52CHL1  H15A 6273   6.342   3.315   9.334 -1.2283 -2.2265  0.4695
   52CHL1  H15B 6274   6.509   3.338   9.391 -1.4457  0.7960  0.4760
   52CHL1   C16 6275   6.471   3.197   9.216 -0.3270  0.3038  0.3357
   52CHL1  H16A 6276   6.400   3.241   9.143  1.5080 -0.0186 -1.7117
   52CHL1  H16B 6277   6.576   3.223   9.188 -0.2058  0.7498  1.1820
   52CHL1   C17 6278   6.442   3.042   9.234 -0.5792 -0.4811  0.0579
   52CHL1   H17 6279   6.541   3.005   9.268 -0.2078  0.3263 -0.1387
   52CHL1   C13 6280   6.350   3.023   9.357 -0.0403  0.1500 -0.5803
   52CHL1   C18 6281   6.210   3.053   9.307  0.0378  0.0780  0.1905
   52CHL1  H18A 6282   6.189   3.151   9.258  1.3841 -0.5474 -1.6950
   52CHL1  H18B 6283   6.172   2.969   9.244  2.6441 -1.8103  1.0708
   52CHL1  H18C 6284   6.136   3.044   9.390  1.0922  0.1214  1.1457
   52CHL1   C12 6285   6.360   2.895   9.448 -0.5678  0.5558  0.6660
   52CHL1  H12A 6286   6.309   2.814   9.391 -0.1795  0.6214  0.2171
   52CHL1  H12B 6287   6.468   2.874   9.458 -0.0187  2.3533 -1.1163
   52CHL1   C11 6288   6.298   2.928   9.581 -0.5078  0.1355 -0.0749
   52CHL1  H11A 6289   6.189   2.929   9.556 -0.8246 -1.0456  1.2317
   52CHL1  H11B 6290   6.314   2.843   9.650 -1.2966  1.6900  2.0612
   52CHL1    C9 6291   6.346   3.053   9.661  0.3367  0.6822  0.1528
   52CHL1    H9 6292   6.452   3.031   9.687 -0.3592 -2.2625  0.6472
   52CHL1   C10 6293   6.275   3.074   9.796 -0.4873  0.0300  0.3255
   52CHL1   C19 6294   6.124   3.052   9.781 -0.2576  0.0134  0.4848
   52CHL1  H19A 6295   6.093   2.948   9.756  2.8366 -1.2639  1.6613
   52CHL1  H19B 6296   6.065   3.064   9.874 -2.6308 -1.0193 -0.8555
   52CHL1  H19C 6297   6.082   3.119   9.703  1.4452 -0.8859 -1.2679
   52CHL1    C1 6298   6.325   2.958   9.885  0.6274  0.5094  0.4227
   52CHL1   H1A 6299   6.290   2.857   9.854  3.6382 -1.0401  1.8827
   52CHL1   H1B 6300   6.434   2.954   9.869  0.5561  0.0130  0.0513
   52CHL1    C2 6301   6.290   2.972  10.020 -0.2082  0.1373  0.3328
   52CHL1   H2A 6302   6.343   2.894  10.079 -0.3062 -0.1112  0.0959
   52CHL1   H2B 6303   6.179   2.969  10.022 -0.2289  0.4097 -0.1268
   52CHL1   C20 6304   6.407   2.976   9.103 -0.5439 -0.3157 -0.4649
   52CHL1   H20 6305   6.326   3.038   9.058  1.6906  1.8942 -1.5769
   52CHL1   C21 6306   6.363   2.830   9.115 -0.6610  0.3470 -0.1286
   52CHL1  H21A 6307   6.447   2.768   9.153  0.1041  1.2809 -0.3124
   52CHL1  H21B 6308   6.335   2.795   9.013 -0.3397  1.4713 -0.6035
   52CHL1  H21C 6309   6.271   2.816   9.176 -0.6966 -0.9189 -0.4486
   52CHL1   C22 6310   6.526   2.991   9.012  0.0550 -0.8279 -0.9847
   52CHL1  H22A 6311   6.590   3.080   9.029 -0.8464 -0.4009  0.2519
   52CHL1  H22B 6312   6.591   2.903   9.029  0.4547 -0.2361  0.6571
   52CHL1   C23 6313   6.496   3.001   8.863  0.1484  0.3594  0.1024
   52CHL1  H23A 6314   6.415   2.929   8.841 -1.0694  1.6108  0.4381
   52CHL1  H23B 6315   6.468   3.107   8.845  2.0650  0.8612 -0.1010
   52CHL1   C24 6316   6.624   2.990   8.779  0.4765  0.6093  0.0630
   52CHL1  H24A 6317   6.683   3.078   8.812 -0.9729  0.6571  2.6627
   52CHL1  H24B 6318   6.675   2.892   8.789  0.6611  0.8393  1.5608
   52CHL1   C25 6319   6.597   3.016   8.625  0.4595  0.2827  0.0496
   52CHL1   H25 6320   6.701   3.028   8.588  1.0625  0.3416  1.7118
   52CHL1   C26 6321   6.525   2.896   8.551  0.5440 -0.1648  0.3291
   52CHL1  H26A 6322   6.563   2.797   8.585 -1.1924 -1.6600 -1.9990
   52CHL1  H26B 6323   6.419   2.889   8.582  0.4608 -0.9105 -0.1186
   52CHL1  H26C 6324   6.525   2.925   8.444  0.2703  0.8439  0.5959
   52CHL1   C27 6325   6.514   3.141   8.599 -0.5009  0.0100  0.0364
   52CHL1  H27A 6326   6.550   3.230   8.654  1.3739  0.5525 -1.9913
   52CHL1  H27B 6327   6.528   3.178   8.495 -0.3393  1.8409  0.6871
   52CHL1  H27C 6328   6.407   3.125   8.621 -0.7652  0.3241 -1.0108
   53CHL1    C3 6329   0.129   2.858  10.107 -0.3947 -0.7023 -0.0875
   53CHL1    H3 6330   0.133   2.968  10.092 -2.0890 -0.7260 -0.8271
   53CHL1    O3 6331   0.112   2.840  10.246 -0.1908  0.1483 -0.2487
   53CHL1   H3' 6332   0.195   2.863  10.289 -0.3194 -0.9283  0.5886
   53CHL1    C4 6333   0.006   2.800  10.040 -0.5838  0.0921 -0.3352
   53CHL1   H4A 6334  -0.010   2.698  10.082 -3.3573  0.6549  0.0330
   53CHL1   H4B 6335  -0.081   2.859  10.075 -0.8697 -1.3608  1.5253
   53CHL1    C5 6336   0.027   2.798   9.887 -0.2912  0.4019 -0.0090
   53CHL1    C6 6337  -0.060   2.863   9.807  0.6013 -0.0837  0.0267
   53CHL1    H6 6338  -0.150   2.916   9.841  0.4547  0.0474 -0.5737
   53CHL1    C7 6339  -0.053   2.862   9.658  0.2075  0.5901 -0.2727
   53CHL1   H7A 6340  -0.156   2.858   9.616 -1.0126 -1.3302  2.6970
   53CHL1   H7B 6341  -0.007   2.953   9.616 -4.3052  1.6416 -3.2985
   53CHL1    C8 6342   0.045   2.748   9.604  0.8988  0.5189  0.0256
   53CHL1    H8 6343  -0.001   2.648   9.617  0.1020  1.0258  1.2678
   53CHL1   C14 6344   0.072   2.785   9.454  0.3888 -0.0473 -0.5294
   53CHL1   H14 6345   0.119   2.886   9.454  0.2655  0.0135  1.3577
   53CHL1   C15 6346  -0.053   2.809   9.362  0.5356 -0.2708 -0.3353
   53CHL1  H15A 6347  -0.128   2.728   9.350 -1.7873  1.5549  1.3650
   53CHL1  H15B 6348  -0.106   2.896   9.406  1.1878  0.1059 -0.2924
   53CHL1   C16 6349   0.021   2.831   9.224 -0.1319  0.1695 -0.2299
   53CHL1  H16A 6350  -0.024   2.767   9.145  0.4859 -1.2815  0.5875
   53CHL1  H16B 6351   0.018   2.938   9.195  0.0426  0.2089 -0.1006
   53CHL1   C17 6352   0.170   2.767   9.240 -0.1032  0.3516 -0.2561
   53CHL1   H17 6353   0.234   2.857   9.253  0.2086  0.0271  0.5355
   53CHL1   C13 6354   0.173   2.696   9.379  0.2174 -0.3583  0.8748
   53CHL1   C18 6355   0.116   2.554   9.354  0.1329  0.4132  0.3857
   53CHL1  H18A 6356   0.074   2.513   9.448  0.5051  0.2053  0.4602
   53CHL1  H18B 6357   0.039   2.556   9.274  0.7296 -0.7830 -0.2256
   53CHL1  H18C 6358   0.196   2.487   9.317 -0.0497  0.3077  0.1820
   53CHL1   C12 6359   0.307   2.684   9.454 -0.2051 -0.6712 -0.9049
   53CHL1  H12A 6360   0.362   2.595   9.416  0.6195  0.4671 -2.4997
   53CHL1  H12B 6361   0.359   2.779   9.427  0.0305 -0.6132 -0.2575
   53CHL1   C11 6362   0.288   2.665   9.612 -0.2664 -0.1913  0.0564
   53CHL1  H11A 6363   0.261   2.559   9.631  2.3357 -1.2478 -1.8621
   53CHL1  H11B 6364   0.386   2.678   9.664 -0.3196  3.4718 -0.5813
   53CHL1    C9 6365   0.181   2.756   9.683  0.4308  0.0364 -0.6327
   53CHL1    H9 6366   0.219   2.860   9.671  0.2561  0.3591  1.3571
   53CHL1   C10 6367   0.158   2.738   9.837 -0.7225 -0.2066  0.0639
   53CHL1   C19 6368   0.148   2.581   9.857 -0.8488  0.1070  0.1154
   53CHL1  H19A 6369   0.072   2.541   9.786 -0.7160 -1.6175  0.9232
   53CHL1  H19B 6370   0.241   2.525   9.837  0.2901  0.2872  4.3778
   53CHL1  H19C 6371   0.117   2.553   9.960 -1.3862 -1.0602 -0.3516
   53CHL1    C1 6372   0.280   2.795   9.920  0.1669 -0.3525  0.5800
   53CHL1   H1A 6373   0.379   2.752   9.894 -1.1691 -2.4597 -1.1381
   53CHL1   H1B 6374   0.280   2.901   9.887 -0.3859 -0.6179 -0.2826
   53CHL1    C2 6375   0.262   2.792  10.069  0.1882  0.5935 -0.4971
   53CHL1   H2A 6376   0.341   2.853  10.117 -0.0774  1.0392 -0.6177
   53CHL1   H2B 6377   0.289   2.688  10.095 -0.5743  0.2910 -0.8972
   53CHL1   C20 6378   0.224   2.709   9.116  0.2262  0.5095  0.3712
   53CHL1   H20 6379   0.150   2.628   9.097 -0.0828  0.7566  0.5143
   53CHL1   C21 6380   0.370   2.653   9.134  0.4765  0.0945 -0.5237
   53CHL1  H21A 6381   0.432   2.722   9.194  2.5923 -2.5923  0.4796
   53CHL1  H21B 6382   0.414   2.634   9.034 -0.1393  0.9192 -0.9526
   53CHL1  H21C 6383   0.366   2.560   9.194  2.0171  1.0405  1.0827
   53CHL1   C22 6384   0.229   2.798   8.987 -0.6877  0.0142  0.6276
   53CHL1  H22A 6385   0.135   2.857   9.002 -0.2488  0.5326  1.3577
   53CHL1  H22B 6386   0.319   2.862   8.988  0.4203 -1.5158  3.1385
   53CHL1   C23 6387   0.216   2.712   8.865 -0.2281  0.0824  0.1523
   53CHL1  H23A 6388   0.298   2.638   8.859 -1.3035 -1.2530  1.4743
   53CHL1  H23B 6389   0.127   2.650   8.889 -2.0318  1.9570 -1.4817
   53CHL1   C24 6390   0.188   2.789   8.741  0.0467  0.0157 -0.2945
   53CHL1  H24A 6391   0.090   2.841   8.743  1.9198  3.7731  4.1757
   53CHL1  H24B 6392   0.254   2.879   8.739 -0.6823  0.5564 -0.0252
   53CHL1   C25 6393   0.202   2.713   8.606 -0.0014 -0.2674 -0.5002
   53CHL1   H25 6394   0.142   2.620   8.608 -0.8427  0.2546  3.9167
   53CHL1   C26 6395   0.138   2.793   8.490  0.5960 -0.5013  0.1618
   53CHL1  H26A 6396   0.204   2.879   8.466 -0.3358  0.2933  0.4209
   53CHL1  H26B 6397   0.146   2.725   8.403 -0.1049  0.6009 -0.7707
   53CHL1  H26C 6398   0.035   2.825   8.515  1.3133  1.7363  0.3978
   53CHL1   C27 6399   0.346   2.675   8.578 -0.5440  0.4055 -0.6671
   53CHL1  H27A 6400   0.423   2.754   8.588 -1.3441  1.0513  0.4110
   53CHL1  H27B 6401   0.367   2.598   8.655 -3.3901 -0.5647 -0.7904
   53CHL1  H27C 6402   0.363   2.613   8.487  1.4478 -2.3924  1.4846
   54CHL1    C3 6403   0.168   3.676  10.206 -0.7500 -0.5827 -0.3048
   54CHL1    H3 6404   0.193   3.568  10.209  2.4995  0.1513  1.9607
   54CHL1    O3 6405   0.103   3.703  10.328  0.0447  0.1415 -0.2309
   54CHL1   H3' 6406   0.024   3.648  10.327 -0.7368  1.2650 -0.9126
   54CHL1    C4 6407   0.293   3.769  10.190 -1.0122 -0.3794 -0.0738
   54CHL1   H4A 6408   0.265   3.877  10.189 -0.6342 -0.2345  1.8910
   54CHL1   H4B 6409   0.364   3.757  10.275  0.3618  0.7794 -1.0444
   54CHL1    C5 6410   0.359   3.742  10.058 -0.2879  0.8552  0.1004
   54CHL1    C6 6411   0.490   3.710  10.055  0.5194 -0.5082  0.4025
   54CHL1    H6 6412   0.546   3.712  10.150  1.7020 -0.8460 -0.2658
   54CHL1    C7 6413   0.581   3.687   9.942 -0.0118 -0.0426  0.1212
   54CHL1   H7A 6414   0.667   3.758   9.942 -0.3668  0.4726 -3.3569
   54CHL1   H7B 6415   0.615   3.581   9.944 -0.4550 -0.2916 -3.0745
   54CHL1    C8 6416   0.510   3.709   9.815  0.0486  0.3736 -0.1311
   54CHL1    H8 6417   0.513   3.819   9.796 -0.0628  1.0750  3.5178
   54CHL1   C14 6418   0.572   3.649   9.688 -0.0111  0.1250 -0.7890
   54CHL1   H14 6419   0.570   3.539   9.701 -1.8774  0.3156  0.8416
   54CHL1   C15 6420   0.721   3.675   9.677  0.3316  0.4255  1.2813
   54CHL1  H15A 6421   0.752   3.780   9.699 -1.5407  1.0948  0.8099
   54CHL1  H15B 6422   0.777   3.608   9.746 -1.1280 -0.1476  1.9175
   54CHL1   C16 6423   0.752   3.647   9.530  0.7082 -0.6923 -0.2425
   54CHL1  H16A 6424   0.776   3.742   9.477  0.3912 -1.0704 -1.0819
   54CHL1  H16B 6425   0.832   3.574   9.505 -0.2039 -2.0337  0.7312
   54CHL1   C17 6426   0.607   3.600   9.468  0.5501 -0.1870  0.4212
   54CHL1   H17 6427   0.595   3.494   9.499 -2.0121  0.0920  0.5018
   54CHL1   C13 6428   0.506   3.680   9.556 -0.2514  0.0035  1.0695
   54CHL1   C18 6429   0.519   3.830   9.518 -0.0920 -0.4201  0.1513
   54CHL1  H18A 6430   0.619   3.877   9.532 -0.2997 -0.2928  1.1906
   54CHL1  H18B 6431   0.492   3.839   9.410  1.9188 -1.4774 -0.4636
   54CHL1  H18C 6432   0.454   3.900   9.574  1.3548  0.8984  0.2338
   54CHL1   C12 6433   0.363   3.625   9.565  0.7853 -0.3973 -0.9016
   54CHL1  H12A 6434   0.308   3.652   9.473 -1.6958 -2.1287  0.0075
   54CHL1  H12B 6435   0.369   3.514   9.574  0.6112 -0.3267  0.1474
   54CHL1   C11 6436   0.282   3.678   9.681  0.2273 -0.3037  0.2477
   54CHL1  H11A 6437   0.264   3.783   9.651  0.3560 -0.7022 -1.2802
   54CHL1  H11B 6438   0.179   3.636   9.685 -0.8989  2.0158 -2.9323
   54CHL1    C9 6439   0.352   3.669   9.819 -1.3857  0.2148 -0.8889
   54CHL1    H9 6440   0.347   3.563   9.851 -1.6905  0.8797  1.3344
   54CHL1   C10 6441   0.270   3.740   9.934 -0.4298  0.6498  0.0541
   54CHL1   C19 6442   0.237   3.887   9.901 -0.1153 -0.1850 -0.2104
   54CHL1  H19A 6443   0.177   3.886   9.807 -1.8642  1.0700  0.8762
   54CHL1  H19B 6444   0.173   3.938   9.975  2.0995  0.8079  1.0783
   54CHL1  H19C 6445   0.320   3.956   9.874  0.4222 -0.7625 -0.0391
   54CHL1    C1 6446   0.136   3.662   9.962 -0.0712 -0.1724 -0.4781
   54CHL1   H1A 6447   0.077   3.673   9.868  1.1923  2.1142 -1.0335
   54CHL1   H1B 6448   0.147   3.552   9.968  2.8110  0.1306  0.3518
   54CHL1    C2 6449   0.067   3.704  10.095  0.3585  0.5275  0.3996
   54CHL1   H2A 6450  -0.021   3.638  10.103  0.9448 -0.3846 -0.5175
   54CHL1   H2B 6451   0.049   3.814  10.102 -0.5454  0.3934  0.2744
   54CHL1   C20 6452   0.587   3.618   9.318 -0.1928  0.8256  0.1838
   54CHL1   H20 6453   0.581   3.724   9.287  0.3773  0.8338  0.0855
   54CHL1   C21 6454   0.457   3.541   9.266 -0.3185 -0.2004  0.0494
   54CHL1  H21A 6455   0.359   3.589   9.285 -0.6767 -0.0652 -1.9764
   54CHL1  H21B 6456   0.457   3.435   9.301 -0.2746 -1.4474 -3.4940
   54CHL1  H21C 6457   0.463   3.541   9.155  0.9382  2.6321  0.0809
   54CHL1   C22 6458   0.721   3.583   9.245  0.7142 -0.2827 -0.4545
   54CHL1  H22A 6459   0.813   3.631   9.286 -0.8081  3.7336 -1.5322
   54CHL1  H22B 6460   0.728   3.472   9.251 -2.0085 -0.4582 -0.3151
   54CHL1   C23 6461   0.727   3.634   9.100  0.2413  0.5170  0.5819
   54CHL1  H23A 6462   0.624   3.626   9.062 -0.9015  1.6308  3.2972
   54CHL1  H23B 6463   0.765   3.739   9.095  1.7333 -0.0966 -1.5812
   54CHL1   C24 6464   0.823   3.543   9.020 -0.3007 -0.3810 -0.2054
   54CHL1  H24A 6465   0.920   3.546   9.074 -0.6020 -3.3669  0.6167
   54CHL1  H24B 6466   0.779   3.441   9.030  0.6512 -0.6881  1.0610
   54CHL1   C25 6467   0.843   3.578   8.874  0.8861  1.1807 -0.2067
   54CHL1   H25 6468   0.882   3.484   8.829  0.1084  0.0110  1.5181
   54CHL1   C26 6469   0.714   3.608   8.800 -0.2347 -0.4094  0.4250
   54CHL1  H26A 6470   0.735   3.642   8.696 -0.9194  0.4608  0.5615
   54CHL1  H26B 6471   0.645   3.522   8.808  0.9548 -1.3101  1.1503
   54CHL1  H26C 6472   0.658   3.697   8.836  0.0699  0.1107 -0.3696
   54CHL1   C27 6473   0.951   3.691   8.853  0.0773 -0.6727 -0.0630
   54CHL1  H27A 6474   0.908   3.787   8.890 -0.9461 -0.9785 -0.4320
   54CHL1  H27B 6475   1.046   3.673   8.907  1.4857  1.4415 -1.7664
   54CHL1  H27C 6476   0.970   3.710   8.745  1.6446  3.2451  0.8059
   55CHL1    C3 6477   0.853   0.988  10.112 -0.8455  0.8232  0.1739
   55CHL1    H3 6478   0.948   0.933  10.127  0.1833  1.9846 -1.9594
   55CHL1    O3 6479   0.817   1.056  10.238 -0.8732  0.3251 -0.2782
   55CHL1   H3' 6480   0.759   1.126  10.209 -2.1234  0.0232  1.3746
   55CHL1    C4 6481   0.875   1.088   9.995 -0.4785  0.7085 -0.5284
   55CHL1   H4A 6482   0.779   1.145   9.989 -0.8933  0.5167  3.0710
   55CHL1   H4B 6483   0.953   1.160  10.029 -0.8452  1.1742 -0.6642
   55CHL1    C5 6484   0.901   1.024   9.862  0.5984 -0.1368  0.0413
   55CHL1    C6 6485   1.011   1.058   9.795 -0.1001  0.2225 -0.0810
   55CHL1    H6 6486   1.082   1.135   9.829 -0.4812  1.2188 -1.5065
   55CHL1    C7 6487   1.028   1.013   9.653 -1.3139 -0.4911  0.0091
   55CHL1   H7A 6488   1.050   1.103   9.593 -3.2219  0.2294  0.3561
   55CHL1   H7B 6489   1.105   0.932   9.656  1.3670  2.0173  0.9664
   55CHL1    C8 6490   0.902   0.951   9.589  0.2574 -0.1092 -0.5234
   55CHL1    H8 6491   0.835   1.038   9.573  0.7059  0.6099  1.3068
   55CHL1   C14 6492   0.942   0.883   9.456 -0.0510  0.2878 -0.2559
   55CHL1   H14 6493   1.024   0.816   9.489  1.2348  2.6760  1.5455
   55CHL1   C15 6494   1.018   0.966   9.345 -0.1973  0.4545 -0.0865
   55CHL1  H15A 6495   0.996   1.075   9.346  0.2102  0.5349  1.0446
   55CHL1  H15B 6496   1.126   0.967   9.370 -0.5353 -1.7378  1.5356
   55CHL1   C16 6497   0.985   0.889   9.218 -0.0238 -0.1879  0.2864
   55CHL1  H16A 6498   0.938   0.955   9.143 -0.0809 -1.8605 -1.1832
   55CHL1  H16B 6499   1.080   0.856   9.170 -0.5432  1.5574 -1.9614
   55CHL1   C17 6500   0.903   0.767   9.257  0.3455 -0.4538  0.7423
   55CHL1   H17 6501   0.969   0.692   9.306  1.4358 -0.3693 -0.5738
   55CHL1   C13 6502   0.827   0.809   9.388  0.3021  0.0317  0.4943
   55CHL1   C18 6503   0.706   0.897   9.344  0.3635  0.4431 -0.1004
   55CHL1  H18A 6504   0.659   0.937   9.437  0.4017  1.9766 -0.7142
   55CHL1  H18B 6505   0.746   0.986   9.290 -2.0897  2.0021  0.5596
   55CHL1  H18C 6506   0.645   0.842   9.270 -0.3372  1.7444 -0.5069
   55CHL1   C12 6507   0.780   0.702   9.491  0.5354  0.3665 -0.3109
   55CHL1  H12A 6508   0.694   0.651   9.442 -1.0247  2.7059 -0.1120
   55CHL1  H12B 6509   0.866   0.639   9.520 -0.0692  0.7002  2.3882
   55CHL1   C11 6510   0.735   0.758   9.624  0.4501  0.0131 -0.3035
   55CHL1  H11A 6511   0.641   0.814   9.604  1.0921 -0.0661 -3.7853
   55CHL1  H11B 6512   0.711   0.682   9.702  0.7352  1.5814  1.3575
   55CHL1    C9 6513   0.843   0.851   9.688 -0.4976 -0.4614 -0.2244
   55CHL1    H9 6514   0.927   0.782   9.712 -0.4097 -0.6398 -1.0277
   55CHL1   C10 6515   0.798   0.917   9.826 -0.5719 -0.3376  0.2792
   55CHL1   C19 6516   0.661   0.984   9.798 -0.5358  0.2693 -0.7004
   55CHL1  H19A 6517   0.630   1.057   9.875  3.0686  0.9941  0.1537
   55CHL1  H19B 6518   0.663   1.050   9.709 -1.0436 -0.1492 -1.0310
   55CHL1  H19C 6519   0.575   0.913   9.791 -0.0442 -0.2501 -1.5326
   55CHL1    C1 6520   0.781   0.821   9.942 -0.2198  0.5743  0.2412
   55CHL1   H1A 6521   0.704   0.745   9.918 -0.2328  0.2194  1.3678
   55CHL1   H1B 6522   0.881   0.774   9.957  0.2728  2.0011  1.5409
   55CHL1    C2 6523   0.747   0.886  10.077  0.0268  0.9199  0.3607
   55CHL1   H2A 6524   0.753   0.820  10.167  1.6378  1.5976  0.7649
   55CHL1   H2B 6525   0.641   0.919  10.072 -0.4005 -0.2199  1.5701
   55CHL1   C20 6526   0.818   0.697   9.153 -0.0676  0.1742 -0.0545
   55CHL1   H20 6527   0.730   0.759   9.123  1.0831  0.5489 -2.8062
   55CHL1   C21 6528   0.787   0.560   9.199  0.3263 -0.6156 -0.0208
   55CHL1  H21A 6529   0.753   0.510   9.106  1.3322 -1.4253  0.0388
   55CHL1  H21B 6530   0.702   0.563   9.270 -0.4581  0.6271 -0.9915
   55CHL1  H21C 6531   0.870   0.504   9.247  0.0818 -1.1237 -0.1904
   55CHL1   C22 6532   0.898   0.677   9.015 -0.3382 -0.7683  1.4926
   55CHL1  H22A 6533   0.939   0.776   8.987  2.1962 -1.7626  1.5139
   55CHL1  H22B 6534   0.992   0.623   9.042  0.6682  0.9929  1.5540
   55CHL1   C23 6535   0.803   0.625   8.901  0.7121  0.1671 -0.6305
   55CHL1  H23A 6536   0.796   0.515   8.908  0.4396  0.2308  0.1660
   55CHL1  H23B 6537   0.703   0.669   8.918  0.6320 -0.3395  0.2111
   55CHL1   C24 6538   0.855   0.658   8.767 -0.5024 -0.1171  0.2814
   55CHL1  H24A 6539   0.890   0.763   8.780  1.2586 -0.5612 -0.6074
   55CHL1  H24B 6540   0.946   0.599   8.740  0.0622 -0.1645  2.2140
   55CHL1   C25 6541   0.755   0.645   8.649  0.2895 -0.4712  0.1227
   55CHL1   H25 6542   0.674   0.717   8.675  0.4854 -0.4773  0.7608
   55CHL1   C26 6543   0.810   0.698   8.513  0.2571 -0.1661 -0.5361
   55CHL1  H26A 6544   0.714   0.699   8.458 -0.0727 -1.9011 -0.0163
   55CHL1  H26B 6545   0.849   0.802   8.512 -0.9679  0.3079 -2.6114
   55CHL1  H26C 6546   0.881   0.625   8.470  0.2279 -1.7870  2.0685
   55CHL1   C27 6547   0.705   0.500   8.633 -0.3212 -0.1945 -0.5137
   55CHL1  H27A 6548   0.628   0.498   8.552  0.3720 -0.9568 -1.1667
   55CHL1  H27B 6549   0.792   0.432   8.620 -0.1549 -0.0700 -0.0272
   55CHL1  H27C 6550   0.662   0.474   8.732 -0.1870  0.1008 -0.3823
   56CHL1    C3 6551   5.432   6.661   9.978 -1.1989 -0.0982  0.3682
   56CHL1    H3 6552   5.485   6.565   9.997  0.0063  0.6819  1.0561
   56CHL1    O3 6553   5.409   6.682  10.118  0.3460 -0.8143 -0.1861
   56CHL1   H3' 6554   5.474   6.628  10.164 -0.4339  0.1782  2.1579
   56CHL1    C4 6555   5.518   6.775   9.920 -0.4281  0.2171  0.2178
   56CHL1   H4A 6556   5.471   6.870   9.952  1.4778  1.5613 -0.8452
   56CHL1   H4B 6557   5.617   6.766   9.970 -0.0453  1.2640 -0.3330
   56CHL1    C5 6558   5.553   6.761   9.774  0.2324 -0.0653 -0.1265
   56CHL1    C6 6559   5.674   6.750   9.726 -0.7831  0.0111  0.3280
   56CHL1    H6 6560   5.756   6.750   9.799  1.3879  0.8748 -2.0515
   56CHL1    C7 6561   5.712   6.734   9.580  0.1491 -0.6787  0.0259
   56CHL1   H7A 6562   5.804   6.791   9.555 -0.8392  2.2854  2.8431
   56CHL1   H7B 6563   5.745   6.629   9.563  1.2408 -0.5016  1.0695
   56CHL1    C8 6564   5.591   6.782   9.491 -0.0752 -0.0780  0.3620
   56CHL1    H8 6565   5.579   6.893   9.488 -0.8310 -0.1590  0.3734
   56CHL1   C14 6566   5.602   6.731   9.347 -0.1694  0.0340 -0.0553
   56CHL1   H14 6567   5.603   6.621   9.362 -1.8916  0.1925  1.2789
   56CHL1   C15 6568   5.738   6.768   9.285  0.2208 -0.0831  0.4324
   56CHL1  H15A 6569   5.756   6.875   9.306 -0.3290 -0.1009  1.0197
   56CHL1  H15B 6570   5.823   6.710   9.328  1.9653  0.7475 -1.8008
   56CHL1   C16 6571   5.720   6.754   9.138 -0.2331 -0.2267  0.1242
   56CHL1  H16A 6572   5.729   6.851   9.085 -1.2853 -0.1561  0.0713
   56CHL1  H16B 6573   5.785   6.674   9.096 -0.1750  0.5245 -1.2166
   56CHL1   C17 6574   5.569   6.713   9.122  1.0800  0.8617 -0.3419
   56CHL1   H17 6575   5.572   6.603   9.140 -0.8610  1.0951  1.6425
   56CHL1   C13 6576   5.499   6.772   9.241 -0.3982 -0.2221  0.1184
   56CHL1   C18 6577   5.485   6.925   9.231 -0.4960  0.0690  0.2154
   56CHL1  H18A 6578   5.406   6.960   9.300 -1.7132  1.4693 -1.8293
   56CHL1  H18B 6579   5.581   6.974   9.258 -1.3071  2.0699 -0.4298
   56CHL1  H18C 6580   5.453   6.961   9.131 -0.4112  2.3591  0.9725
   56CHL1   C12 6581   5.371   6.710   9.291 -0.0885 -0.0608  0.7525
   56CHL1  H12A 6582   5.286   6.738   9.225 -0.0328  3.0862  1.9287
   56CHL1  H12B 6583   5.381   6.600   9.298  0.2307 -0.0633  0.2277
   56CHL1   C11 6584   5.341   6.755   9.437  0.3641 -0.2352  0.0012
   56CHL1  H11A 6585   5.307   6.860   9.442  1.2629  0.1191 -1.0957
   56CHL1  H11B 6586   5.255   6.693   9.469 -0.4351 -0.1333 -1.8785
   56CHL1    C9 6587   5.457   6.716   9.539  0.4989  0.0162 -0.0165
   56CHL1    H9 6588   5.470   6.606   9.533  0.3358  0.0459 -0.9507
   56CHL1   C10 6589   5.429   6.750   9.689  0.1119 -0.0511 -0.4983
   56CHL1   C19 6590   5.354   6.886   9.691  0.4839 -0.4650  0.6683
   56CHL1  H19A 6591   5.253   6.858   9.655 -0.1596  1.7757  0.6425
   56CHL1  H19B 6592   5.345   6.931   9.793 -0.0240  0.9050  0.0192
   56CHL1  H19C 6593   5.400   6.963   9.626 -1.5329 -0.3128 -0.6190
   56CHL1    C1 6594   5.339   6.637   9.747  0.1333  0.0933  0.4275
   56CHL1   H1A 6595   5.244   6.630   9.689 -0.4727  0.5008  1.3619
   56CHL1   H1B 6596   5.383   6.539   9.717  0.4720  0.9275 -1.9195
   56CHL1    C2 6597   5.303   6.642   9.903  0.5163  0.5379 -0.3127
   56CHL1   H2A 6598   5.260   6.544   9.931  0.1270 -0.0564 -2.8297
   56CHL1   H2B 6599   5.222   6.713   9.932  0.8481  1.2590 -1.1232
   56CHL1   C20 6600   5.521   6.726   8.975  0.6731 -0.6104 -0.2234
   56CHL1   H20 6601   5.522   6.835   8.955  1.6050 -0.7785 -1.1309
   56CHL1   C21 6602   5.372   6.674   8.950  0.8659  0.4800 -0.2085
   56CHL1  H21A 6603   5.336   6.690   8.847 -0.7967  1.0660  0.4599
   56CHL1  H21B 6604   5.307   6.744   9.006  0.1073  0.4503 -1.0536
   56CHL1  H21C 6605   5.361   6.566   8.976 -0.2985  0.3161 -1.3338
   56CHL1   C22 6606   5.625   6.660   8.872  0.6562  0.4117 -0.1824
   56CHL1  H22A 6607   5.723   6.711   8.878  3.0305 -3.9644  0.0945
   56CHL1  H22B 6608   5.642   6.558   8.913  2.9248  2.1137  3.3221
   56CHL1   C23 6609   5.590   6.656   8.720 -0.5981  0.1739 -0.2988
   56CHL1  H23A 6610   5.670   6.602   8.665 -0.5827 -0.5032  0.3849
   56CHL1  H23B 6611   5.492   6.608   8.702  0.1586 -1.3750 -0.3254
   56CHL1   C24 6612   5.581   6.805   8.666 -0.7246  0.5770  0.2342
   56CHL1  H24A 6613   5.512   6.798   8.580 -0.9661  2.4884  0.2560
   56CHL1  H24B 6614   5.517   6.858   8.740 -2.8426  0.6949 -1.6512
   56CHL1   C25 6615   5.715   6.883   8.636  0.6440  0.6499  0.0037
   56CHL1   H25 6616   5.781   6.880   8.725  0.7130  0.1862 -0.0623
   56CHL1   C26 6617   5.789   6.828   8.516  0.4692 -0.0658  0.7641
   56CHL1  H26A 6618   5.710   6.817   8.440 -1.0106  0.6060  2.1730
   56CHL1  H26B 6619   5.872   6.895   8.484 -0.5708  1.7643  1.7849
   56CHL1  H26C 6620   5.832   6.728   8.539  2.9956  0.9168  0.4887
   56CHL1   C27 6621   5.664   7.020   8.606 -0.1418  0.3501 -0.1657
   56CHL1  H27A 6622   5.748   7.084   8.570  0.3006  0.2668  0.7033
   56CHL1  H27B 6623   5.586   7.026   8.527 -0.3838 -1.0443 -0.0390
   56CHL1  H27C 6624   5.629   7.071   8.698 -0.6060  0.0791 -0.1915
   57CHL1    C3 6625   0.988   2.421  10.255 -0.1671 -0.3753  0.1078
   57CHL1    H3 6626   0.880   2.435  10.233 -0.6432 -4.0394 -0.2677
   57CHL1    O3 6627   0.992   2.436  10.392 -0.1935 -0.1647 -0.3405
   57CHL1   H3' 6628   1.078   2.473  10.412 -1.2851  1.8123  0.8882
   57CHL1    C4 6629   1.048   2.280  10.228 -0.8918  0.1244 -0.3545
   57CHL1   H4A 6630   1.149   2.271  10.273 -1.1762 -0.2773  0.2137
   57CHL1   H4B 6631   0.988   2.202  10.280 -2.8012  1.0740 -1.0642
   57CHL1    C5 6632   1.055   2.250  10.080 -1.2777  0.7193  0.4866
   57CHL1    C6 6633   1.003   2.133  10.028  0.2113  0.2104  0.0749
   57CHL1    H6 6634   0.944   2.062  10.088 -0.3185 -0.6812 -1.4960
   57CHL1    C7 6635   1.024   2.103   9.884  0.1611 -0.9796  0.0664
   57CHL1   H7A 6636   1.055   1.997   9.888  0.9682 -0.6702  3.3471
   57CHL1   H7B 6637   0.932   2.103   9.822 -1.1386 -0.2134  1.9506
   57CHL1    C8 6638   1.129   2.188   9.808 -0.5770 -0.4085  0.0477
   57CHL1    H8 6639   1.227   2.148   9.844 -1.4346 -4.4228 -1.7700
   57CHL1   C14 6640   1.117   2.182   9.654 -0.5812 -0.5180  0.5227
   57CHL1   H14 6641   1.020   2.233   9.637 -0.0370  0.7530  1.2021
   57CHL1   C15 6642   1.095   2.043   9.589 -0.4586  0.1391  0.1837
   57CHL1  H15A 6643   1.156   1.962   9.633 -0.9808 -0.3643 -0.0086
   57CHL1  H15B 6644   0.990   2.010   9.602 -0.0227 -0.9937  0.8448
   57CHL1   C16 6645   1.142   2.056   9.449 -0.5918  0.2228  0.7383
   57CHL1  H16A 6646   1.238   2.002   9.439 -1.0856 -0.4050 -0.7566
   57CHL1  H16B 6647   1.066   2.009   9.382 -1.1087 -1.1312  2.2607
   57CHL1   C17 6648   1.170   2.209   9.432 -0.7849  0.6127  0.7284
   57CHL1   H17 6649   1.067   2.250   9.423 -1.1589  0.1273  2.5101
   57CHL1   C13 6650   1.222   2.251   9.571  0.2666 -0.0014 -0.5933
   57CHL1   C18 6651   1.368   2.202   9.605  0.2253 -0.1157 -0.1093
   57CHL1  H18A 6652   1.395   2.212   9.712 -2.5575  2.1436  0.4351
   57CHL1  H18B 6653   1.373   2.093   9.585  0.2308 -0.2927  0.8461
   57CHL1  H18C 6654   1.446   2.255   9.545  1.0953 -1.6600 -0.3890
   57CHL1   C12 6655   1.201   2.399   9.602 -0.7080  0.7313  0.2551
   57CHL1  H12A 6656   1.287   2.457   9.561 -0.6890  0.2081 -0.4542
   57CHL1  H12B 6657   1.100   2.431   9.568 -1.0998 -0.0633  0.6391
   57CHL1   C11 6658   1.213   2.419   9.759  0.0821  0.2587 -0.5293
   57CHL1  H11A 6659   1.318   2.396   9.788 -0.2577  0.7410  1.1449
   57CHL1  H11B 6660   1.188   2.526   9.777  1.0741  0.8570 -2.4467
   57CHL1    C9 6661   1.117   2.331   9.843 -0.9712 -0.4966 -0.0767
   57CHL1    H9 6662   1.012   2.356   9.816 -0.9532 -1.4991 -1.1116
   57CHL1   C10 6663   1.123   2.364   9.994 -0.5585  0.0263  0.3305
   57CHL1   C19 6664   1.284   2.367  10.038  0.4822 -0.0818  0.0414
   57CHL1  H19A 6665   1.328   2.468  10.028  0.6712  0.0791  2.2593
   57CHL1  H19B 6666   1.287   2.354  10.148  0.3011 -2.7090 -0.2249
   57CHL1  H19C 6667   1.347   2.289   9.989  0.8087  0.5379 -0.5322
   57CHL1    C1 6668   1.063   2.508  10.039  0.4300  0.6503  0.0522
   57CHL1   H1A 6669   1.116   2.587   9.982 -0.4723  1.0832 -0.2002
   57CHL1   H1B 6670   0.963   2.510   9.991  1.3870 -0.3766 -2.0586
   57CHL1    C2 6671   1.067   2.536  10.182 -0.3218  0.1290 -0.5991
   57CHL1   H2A 6672   1.028   2.634  10.217  1.4066  0.6296 -0.0470
   57CHL1   H2B 6673   1.167   2.530  10.229 -0.2137  1.1798 -0.6822
   57CHL1   C20 6674   1.253   2.245   9.303  0.2531  0.1367 -0.4265
   57CHL1   H20 6675   1.279   2.352   9.321 -1.4148  0.6617 -1.0689
   57CHL1   C21 6676   1.153   2.239   9.187 -0.0304  0.3523 -0.1744
   57CHL1  H21A 6677   1.197   2.264   9.088  2.2687  2.7495  1.4014
   57CHL1  H21B 6678   1.073   2.314   9.207  0.3241  0.1029  2.2715
   57CHL1  H21C 6679   1.129   2.131   9.174 -0.4508  0.5225 -0.8717
   57CHL1   C22 6680   1.385   2.164   9.275  0.2169 -0.3448  0.3908
   57CHL1  H22A 6681   1.440   2.155   9.371  0.8802  0.0326  0.0414
   57CHL1  H22B 6682   1.355   2.064   9.235 -0.7203  0.2435 -0.4042
   57CHL1   C23 6683   1.481   2.222   9.164  1.2352 -0.0229 -0.4234
   57CHL1  H23A 6684   1.571   2.156   9.165  1.3656  0.1500 -0.5180
   57CHL1  H23B 6685   1.420   2.213   9.072 -2.0127  2.2744  1.3995
   57CHL1   C24 6686   1.520   2.367   9.185 -0.7772 -0.1455  0.5601
   57CHL1  H24A 6687   1.432   2.433   9.172 -1.0575 -0.5524  0.3945
   57CHL1  H24B 6688   1.561   2.379   9.288 -0.5803 -1.7714  0.6847
   57CHL1   C25 6689   1.622   2.427   9.087  0.1315 -0.4053 -0.0426
   57CHL1   H25 6690   1.719   2.375   9.106 -0.6043 -1.4428  1.0017
   57CHL1   C26 6691   1.580   2.419   8.944 -0.1417 -0.4089 -0.5328
   57CHL1  H26A 6692   1.634   2.493   8.881 -0.8951  0.5186 -0.1157
   57CHL1  H26B 6693   1.609   2.321   8.901  1.2542 -2.1318  4.0565
   57CHL1  H26C 6694   1.473   2.446   8.925 -0.0195  1.5317  1.2999
   57CHL1   C27 6695   1.670   2.571   9.121 -0.6035 -0.1410  0.2700
   57CHL1  H27A 6696   1.586   2.643   9.107  0.6540  1.0105 -1.4487
   57CHL1  H27B 6697   1.711   2.575   9.224 -0.6817  1.6158  0.2481
   57CHL1  H27C 6698   1.755   2.596   9.055  0.8787  0.8154  2.4907
   58CHL1    C3 6699   3.450   0.923  10.151 -0.9531  0.0971 -0.4264
   58CHL1    H3 6700   3.536   0.992  10.163 -0.6117 -0.0944 -1.6996
   58CHL1    O3 6701   3.404   0.888  10.280 -0.0331 -0.4741  0.0749
   58CHL1   H3' 6702   3.390   0.968  10.333 -1.9925 -1.4711  1.1365
   58CHL1    C4 6703   3.344   1.003  10.075 -0.6418  0.1078  0.3636
   58CHL1   H4A 6704   3.252   0.942  10.065 -1.0139  0.8251 -0.7347
   58CHL1   H4B 6705   3.325   1.093  10.138 -0.7721  0.2477  0.1253
   58CHL1    C5 6706   3.391   1.052   9.933 -0.1217 -0.5311 -0.2673
   58CHL1    C6 6707   3.399   1.178   9.888  0.3900 -0.5500 -0.4872
   58CHL1    H6 6708   3.378   1.263   9.955  0.1662 -0.9604 -0.0364
   58CHL1    C7 6709   3.432   1.221   9.750 -1.0009 -0.5015  0.0553
   58CHL1   H7A 6710   3.358   1.297   9.716 -0.5701 -0.7811 -1.5683
   58CHL1   H7B 6711   3.531   1.271   9.746 -1.9237  1.1857 -3.9246
   58CHL1    C8 6712   3.433   1.101   9.646  0.6538 -0.2795  0.2921
   58CHL1    H8 6713   3.328   1.079   9.616 -0.1177  1.4816  1.5986
   58CHL1   C14 6714   3.494   1.134   9.517 -0.7994  0.7416 -0.1430
   58CHL1   H14 6715   3.602   1.155   9.536 -1.4402  4.5371 -0.4602
   58CHL1   C15 6716   3.450   1.268   9.450 -0.3690 -0.4866 -0.5441
   58CHL1  H15A 6717   3.341   1.273   9.468 -0.3009 -0.3371 -0.1463
   58CHL1  H15B 6718   3.504   1.353   9.499 -1.4731  0.2404 -0.5621
   58CHL1   C16 6719   3.483   1.235   9.302 -0.8216 -0.2396 -0.3130
   58CHL1  H16A 6720   3.389   1.241   9.244 -1.8334 -2.2903  1.0661
   58CHL1  H16B 6721   3.550   1.311   9.257  1.1032 -2.2570 -0.9880
   58CHL1   C17 6722   3.532   1.087   9.285  0.1265 -0.6065 -0.2436
   58CHL1   H17 6723   3.643   1.083   9.297  0.4594  0.8406 -2.4009
   58CHL1   C13 6724   3.481   1.017   9.414  0.8195  0.4357  0.0137
   58CHL1   C18 6725   3.339   0.968   9.382  0.3722  0.0942  0.0417
   58CHL1  H18A 6726   3.336   0.899   9.295 -0.9915 -2.0500  1.7322
   58CHL1  H18B 6727   3.294   0.902   9.459 -0.3780  1.5090  0.8317
   58CHL1  H18C 6728   3.267   1.050   9.362 -0.4923 -0.5491  0.5046
   58CHL1   C12 6729   3.574   0.912   9.473  0.0163 -0.6167  0.3250
   58CHL1  H12A 6730   3.577   0.820   9.410 -0.4750  1.3571 -2.6473
   58CHL1  H12B 6731   3.672   0.965   9.480 -0.5803  0.6869 -1.1412
   58CHL1   C11 6732   3.542   0.865   9.616  0.0891  0.2453 -0.0153
   58CHL1  H11A 6733   3.459   0.794   9.596 -0.0254  0.6989 -1.1740
   58CHL1  H11B 6734   3.626   0.806   9.660  0.8735  1.9768  0.8458
   58CHL1    C9 6735   3.512   0.985   9.717 -0.3105  0.1496  0.3339
   58CHL1    H9 6736   3.609   1.030   9.749 -0.8870  2.4805 -1.0987
   58CHL1   C10 6737   3.442   0.931   9.854 -0.2006  0.5531 -0.8641
   58CHL1   C19 6738   3.318   0.837   9.814 -0.1482 -0.1550 -0.6080
   58CHL1  H19A 6739   3.243   0.892   9.753  1.6984  1.6995 -1.2654
   58CHL1  H19B 6740   3.344   0.743   9.760 -3.4282 -2.2691  1.3176
   58CHL1  H19C 6741   3.272   0.796   9.906  0.7200 -0.4017 -0.2825
   58CHL1    C1 6742   3.544   0.846   9.932 -1.0660  0.5067 -0.2653
   58CHL1   H1A 6743   3.574   0.754   9.877 -1.4905  0.8002 -1.0053
   58CHL1   H1B 6744   3.637   0.902   9.955 -1.0768  0.4874 -0.1744
   58CHL1    C2 6745   3.489   0.806  10.071  0.3210  0.4416  0.2501
   58CHL1   H2A 6746   3.558   0.745  10.133  1.9068  0.0089 -1.8528
   58CHL1   H2B 6747   3.403   0.737  10.053  0.1152  1.2721 -2.2278
   58CHL1   C20 6748   3.504   1.033   9.145 -0.3336  0.3980 -0.2341
   58CHL1   H20 6749   3.394   1.043   9.132 -0.5643 -0.8465  0.6188
   58CHL1   C21 6750   3.547   0.879   9.122  0.3256  0.1502  0.3456
   58CHL1  H21A 6751   3.509   0.811   9.201  2.2854 -0.5037  0.7523
   58CHL1  H21B 6752   3.658   0.879   9.125  0.3966  1.7890 -1.1389
   58CHL1  H21C 6753   3.526   0.831   9.025  0.9025  0.0764  0.2522
   58CHL1   C22 6754   3.582   1.127   9.044 -0.6977 -0.2703 -0.1670
   58CHL1  H22A 6755   3.564   1.236   9.054  1.5851  0.0387  0.9137
   58CHL1  H22B 6756   3.687   1.098   9.065 -0.2702  0.0617 -1.7118
   58CHL1   C23 6757   3.531   1.107   8.904 -0.1839  0.2680  0.5979
   58CHL1  H23A 6758   3.518   0.998   8.888 -1.1439  0.4515  0.0869
   58CHL1  H23B 6759   3.440   1.170   8.895 -2.0793 -2.3145  0.9795
   58CHL1   C24 6760   3.619   1.173   8.801  0.1886 -0.1148 -0.1850
   58CHL1  H24A 6761   3.580   1.160   8.698 -1.4657  2.6788  0.0387
   58CHL1  H24B 6762   3.634   1.281   8.820  0.3592 -0.1644 -0.0377
   58CHL1   C25 6763   3.763   1.108   8.795 -0.7004  0.1513  0.4329
   58CHL1   H25 6764   3.827   1.145   8.878 -0.1757  1.4223 -0.5448
   58CHL1   C26 6765   3.760   0.953   8.789 -0.8280  0.4739 -0.3873
   58CHL1  H26A 6766   3.698   0.924   8.702 -0.2985  2.4846 -1.4801
   58CHL1  H26B 6767   3.860   0.911   8.765 -1.0173 -0.1417 -0.0963
   58CHL1  H26C 6768   3.722   0.911   8.884 -2.9471  2.4247 -0.3307
   58CHL1   C27 6769   3.831   1.149   8.658 -0.2150 -0.3343 -0.6712
   58CHL1  H27A 6770   3.758   1.115   8.582  0.4581 -0.5045 -1.2417
   58CHL1  H27B 6771   3.857   1.256   8.640  0.6990 -0.3896  0.2907
   58CHL1  H27C 6772   3.924   1.089   8.645  1.0610  1.2796  0.6957
   59CHL1    C3 6773   2.820   0.006  10.371  0.7958  0.3709  0.1422
   59CHL1    H3 6774   2.926   0.036  10.359  0.7431  1.3456  1.8949
   59CHL1    O3 6775   2.766   0.017  10.504 -0.0498  0.3213  0.4280
   59CHL1   H3' 6776   2.761  -0.071  10.542 -1.0266  0.3087  0.2936
   59CHL1    C4 6777   2.739   0.112  10.290  0.2251 -0.3699  0.2526
   59CHL1   H4A 6778   2.632   0.085  10.287  0.0795  0.2603 -0.3856
   59CHL1   H4B 6779   2.744   0.213  10.335  2.2784  0.1207 -1.0085
   59CHL1    C5 6780   2.775   0.118  10.145 -0.4027 -0.4521 -0.3468
   59CHL1    C6 6781   2.819   0.232  10.089 -0.6576 -0.5218  0.3582
   59CHL1    H6 6782   2.818   0.325  10.148  0.5072 -1.4120  1.8310
   59CHL1    C7 6783   2.861   0.239   9.946  0.7035  0.0864  0.3947
   59CHL1   H7A 6784   2.827   0.334   9.898 -0.7722 -0.3882  0.4590
   59CHL1   H7B 6785   2.971   0.229   9.954  0.5316 -2.2683  0.0202
   59CHL1    C8 6786   2.818   0.123   9.850 -0.6964 -0.5186  0.1258
   59CHL1    H8 6787   2.710   0.138   9.832 -0.1652  1.3713 -1.7102
   59CHL1   C14 6788   2.889   0.134   9.720 -0.0087 -0.3845 -0.1727
   59CHL1   H14 6789   2.999   0.132   9.732  0.1147 -0.7536 -1.2472
   59CHL1   C15 6790   2.881   0.275   9.645  0.0150 -0.5889 -0.6903
   59CHL1  H15A 6791   2.780   0.318   9.667  0.2635  0.8712 -2.2959
   59CHL1  H15B 6792   2.958   0.346   9.682 -1.8931  0.0437  2.2465
   59CHL1   C16 6793   2.895   0.237   9.498  0.4865 -0.0091 -0.1733
   59CHL1  H16A 6794   2.804   0.264   9.439  0.7697  1.0341 -0.1464
   59CHL1  H16B 6795   2.971   0.290   9.437  0.1320 -0.9336 -1.4532
   59CHL1   C17 6796   2.928   0.085   9.500  0.3111 -0.0330  0.5556
   59CHL1   H17 6797   3.038   0.079   9.515  0.4683  0.7043 -0.2887
   59CHL1   C13 6798   2.855   0.028   9.621 -0.4669 -0.1112 -0.0853
   59CHL1   C18 6799   2.697   0.019   9.599  0.3039 -0.3069 -0.8019
   59CHL1  H18A 6800   2.674  -0.065   9.531  1.8719 -0.6152 -0.9847
   59CHL1  H18B 6801   2.657  -0.002   9.700 -0.7752  0.3786 -1.0806
   59CHL1  H18C 6802   2.654   0.114   9.559 -1.4072 -0.4251  0.7177
   59CHL1   C12 6803   2.902  -0.106   9.693  0.5600 -0.6774  0.3452
   59CHL1  H12A 6804   2.894  -0.196   9.628  1.3409 -1.1549  0.8936
   59CHL1  H12B 6805   3.010  -0.097   9.715  0.1893  1.3213  1.5032
   59CHL1   C11 6806   2.836  -0.129   9.840 -0.0225 -0.2772  0.3699
   59CHL1  H11A 6807   2.733  -0.172   9.840 -0.7257  1.3654  0.0812
   59CHL1  H11B 6808   2.901  -0.203   9.891  0.7179 -1.0354 -1.6124
   59CHL1    C9 6809   2.843  -0.005   9.931  0.7108  0.4539  0.5592
   59CHL1    H9 6810   2.951   0.000   9.953  0.8496 -0.2401  0.0868
   59CHL1   C10 6811   2.772  -0.018  10.072 -0.0104 -0.0069 -0.4885
   59CHL1   C19 6812   2.627  -0.064  10.065  0.0844 -0.4539  0.7988
   59CHL1  H19A 6813   2.569  -0.061  10.160  0.4981  2.1832  0.9967
   59CHL1  H19B 6814   2.559  -0.020   9.989  0.3391 -3.9181 -1.5769
   59CHL1  H19C 6815   2.621  -0.174  10.046 -0.6115 -0.2858  0.0074
   59CHL1    C1 6816   2.850  -0.125  10.161  0.2108  0.6071  0.1926
   59CHL1   H1A 6817   2.839  -0.224  10.112  1.7799  0.1490  0.7464
   59CHL1   H1B 6818   2.955  -0.093  10.148  0.7325  0.0637  2.6857
   59CHL1    C2 6819   2.807  -0.139  10.309 -0.2737 -0.0361  0.2603
   59CHL1   H2A 6820   2.885  -0.207  10.350  1.2533  0.7726 -1.2353
   59CHL1   H2B 6821   2.706  -0.185  10.309  0.4213 -1.5997 -0.2323
   59CHL1   C20 6822   2.896   0.023   9.363 -0.1753 -0.5886  0.3948
   59CHL1   H20 6823   2.787   0.037   9.348  0.3371  1.2094 -2.0404
   59CHL1   C21 6824   2.933  -0.125   9.361 -0.7333  0.3141 -0.8925
   59CHL1  H21A 6825   2.918  -0.165   9.258 -1.0222 -0.3858 -0.5808
   59CHL1  H21B 6826   2.871  -0.189   9.428  0.5455 -0.8620 -0.8237
   59CHL1  H21C 6827   3.040  -0.137   9.386 -0.7726  1.0111 -0.3686
   59CHL1   C22 6828   2.965   0.089   9.238  0.0039 -0.0064 -0.4671
   59CHL1  H22A 6829   2.950   0.199   9.235 -4.0327 -0.4470  0.8014
   59CHL1  H22B 6830   3.075   0.078   9.236  0.1429  0.6357  2.0280
   59CHL1   C23 6831   2.888   0.041   9.112  0.6587  0.2564 -0.0445
   59CHL1  H23A 6832   2.918  -0.065   9.097 -0.0417 -0.2564  1.9520
   59CHL1  H23B 6833   2.780   0.061   9.125  0.5424  0.1905 -0.9273
   59CHL1   C24 6834   2.939   0.112   8.990  0.6749 -0.0357  0.0299
   59CHL1  H24A 6835   3.050   0.113   8.986  0.6219  0.4914 -1.6045
   59CHL1  H24B 6836   2.914   0.054   8.898 -0.1199 -0.3295  0.4242
   59CHL1   C25 6837   2.888   0.257   8.954 -0.2080 -0.3379 -0.0459
   59CHL1   H25 6838   2.900   0.324   9.042  0.5050 -1.0580  0.4087
   59CHL1   C26 6839   2.974   0.303   8.834 -0.6951  0.5963 -0.0917
   59CHL1  H26A 6840   2.965   0.222   8.759 -2.6296  1.0044 -0.3115
   59CHL1  H26B 6841   2.933   0.402   8.803 -3.1897 -1.0775 -2.3238
   59CHL1  H26C 6842   3.080   0.291   8.865 -1.0299 -1.6821  0.2028
   59CHL1   C27 6843   2.731   0.258   8.921 -0.3250  0.2131 -0.6602
   59CHL1  H27A 6844   2.680   0.220   9.012  0.7132  0.6030  0.0909
   59CHL1  H27B 6845   2.696   0.362   8.902 -0.9803  0.1594  0.2102
   59CHL1  H27C 6846   2.712   0.193   8.833  0.3719 -0.4629 -0.3077
   60CHL1    C3 6847   3.456   5.961  10.113  0.2348  0.2314  0.4258
   60CHL1    H3 6848   3.364   5.981  10.053  0.3330 -1.9802 -0.5418
   60CHL1    O3 6849   3.432   6.015  10.244  0.8031  0.3979 -0.4476
   60CHL1   H3' 6850   3.348   5.984  10.278  2.9514 -0.0596  4.9152
   60CHL1    C4 6851   3.473   5.802  10.131  0.0989  0.1754 -0.5349
   60CHL1   H4A 6852   3.557   5.776  10.199 -0.5429 -0.5783 -0.0328
   60CHL1   H4B 6853   3.374   5.776  10.173 -0.0967  1.0186 -0.4653
   60CHL1    C5 6854   3.497   5.730   9.998 -0.1361 -0.0797  0.0685
   60CHL1    C6 6855   3.421   5.623   9.961  0.2462  0.4409 -0.0202
   60CHL1    H6 6856   3.334   5.593  10.021 -0.0563 -1.3980 -1.3220
   60CHL1    C7 6857   3.452   5.548   9.832  0.1553 -0.2484  0.2463
   60CHL1   H7A 6858   3.449   5.437   9.846 -3.2804 -0.4528 -1.4298
   60CHL1   H7B 6859   3.367   5.563   9.763  1.7533  1.4624 -1.3922
   60CHL1    C8 6860   3.583   5.583   9.753  0.4236 -0.1353  1.0151
   60CHL1    H8 6861   3.666   5.521   9.792  0.7869  0.2775  0.9031
   60CHL1   C14 6862   3.569   5.545   9.604 -0.7628  0.8276  0.6849
   60CHL1   H14 6863   3.495   5.613   9.556 -0.7369  1.0454  0.9547
   60CHL1   C15 6864   3.520   5.400   9.569 -0.4740 -0.3521  0.5264
   60CHL1  H15A 6865   3.570   5.319   9.625  0.0902  1.0487  2.0998
   60CHL1  H15B 6866   3.410   5.391   9.585 -0.7071  1.8362  0.3469
   60CHL1   C16 6867   3.571   5.385   9.423 -0.7159  0.1610  0.5313
   60CHL1  H16A 6868   3.638   5.297   9.418 -1.1239 -0.1185  0.0155
   60CHL1  H16B 6869   3.487   5.363   9.354 -0.1459  2.3252 -0.9087
   60CHL1   C17 6870   3.648   5.517   9.389  0.0563 -0.2578  0.2045
   60CHL1   H17 6871   3.585   5.600   9.348  0.0032 -0.0284  0.7518
   60CHL1   C13 6872   3.693   5.567   9.520  0.1382 -0.0374 -0.7055
   60CHL1   C18 6873   3.812   5.476   9.576 -0.3462 -0.2289  0.3501
   60CHL1  H18A 6874   3.907   5.481   9.519 -0.5168  0.2819  0.1070
   60CHL1  H18B 6875   3.833   5.523   9.675 -1.2653 -1.0004  0.9175
   60CHL1  H18C 6876   3.793   5.369   9.601 -0.6940 -0.3454 -0.4270
   60CHL1   C12 6877   3.730   5.718   9.535  0.5627 -0.4516  0.3050
   60CHL1  H12A 6878   3.823   5.735   9.477 -0.6303 -0.6365 -1.7175
   60CHL1  H12B 6879   3.658   5.777   9.473  2.1564 -0.4966 -1.6482
   60CHL1   C11 6880   3.726   5.777   9.682  0.1528  0.1233 -0.4852
   60CHL1  H11A 6881   3.817   5.737   9.732  1.7883  1.6724 -2.1232
   60CHL1  H11B 6882   3.740   5.887   9.670  1.4151 -0.0792 -1.0291
   60CHL1    C9 6883   3.602   5.740   9.762 -0.3050  1.0422  0.1548
   60CHL1    H9 6884   3.511   5.793   9.726 -0.1347  0.9196 -0.4650
   60CHL1   C10 6885   3.604   5.788   9.908 -0.2699  0.3277 -0.1914
   60CHL1   C19 6886   3.735   5.743   9.973  0.4741  0.0884 -0.3608
   60CHL1  H19A 6887   3.737   5.787  10.074 -0.6267  0.1818 -0.3682
   60CHL1  H19B 6888   3.762   5.636   9.959 -1.8328 -0.9070  2.3415
   60CHL1  H19C 6889   3.830   5.785   9.932 -0.1766  1.2883 -0.6766
   60CHL1    C1 6890   3.602   5.940   9.904 -0.1780 -0.0072 -0.0039
   60CHL1   H1A 6891   3.697   5.970   9.855  1.0663 -0.4338  2.0849
   60CHL1   H1B 6892   3.516   5.971   9.841  0.6121  0.8202 -0.6903
   60CHL1    C2 6893   3.587   6.014  10.045  0.3018  0.5355  0.5618
   60CHL1   H2A 6894   3.605   6.124  10.038  0.1671  0.5081 -0.2601
   60CHL1   H2B 6895   3.662   5.981  10.120  0.6863  1.5029  0.6091
   60CHL1   C20 6896   3.752   5.491   9.289  0.0757 -1.1558  0.2061
   60CHL1   H20 6897   3.835   5.429   9.330  1.8150  1.8150  1.3349
   60CHL1   C21 6898   3.823   5.624   9.245  0.1258 -0.0167  0.0865
   60CHL1  H21A 6899   3.743   5.700   9.242  0.3486  0.1972 -0.5764
   60CHL1  H21B 6900   3.875   5.636   9.148 -2.4267  0.1497 -1.2900
   60CHL1  H21C 6901   3.905   5.643   9.318  0.7810  0.0768 -0.6724
   60CHL1   C22 6902   3.709   5.416   9.161 -0.3446  0.4162  0.8433
   60CHL1  H22A 6903   3.805   5.389   9.112 -0.3195  1.7143  0.1371
   60CHL1  H22B 6904   3.642   5.331   9.185 -0.1068 -0.0622 -0.1668
   60CHL1   C23 6905   3.618   5.492   9.058 -0.0757  0.4245 -0.3537
   60CHL1  H23A 6906   3.526   5.514   9.116  0.3598 -0.2840  0.6143
   60CHL1  H23B 6907   3.682   5.578   9.026  2.5521 -1.5309 -0.5428
   60CHL1   C24 6908   3.583   5.411   8.936 -0.1322 -0.0628  0.4241
   60CHL1  H24A 6909   3.674   5.371   8.886 -1.6086 -2.2383 -0.6665
   60CHL1  H24B 6910   3.520   5.321   8.956  0.4670 -0.7578 -0.7289
   60CHL1   C25 6911   3.503   5.480   8.818 -0.2290  0.3020  0.5127
   60CHL1   H25 6912   3.574   5.547   8.765  0.7519 -0.5513  0.7448
   60CHL1   C26 6913   3.457   5.367   8.725  0.4631 -0.1470  0.0824
   60CHL1  H26A 6914   3.413   5.410   8.633 -1.1672  1.0540  1.3774
   60CHL1  H26B 6915   3.544   5.301   8.710  1.9699  1.2104  2.5221
   60CHL1  H26C 6916   3.375   5.314   8.779  0.4642 -1.8587 -1.5543
   60CHL1   C27 6917   3.383   5.571   8.854 -0.1502 -0.0505 -0.1596
   60CHL1  H27A 6918   3.294   5.523   8.899 -1.4770  3.4160  1.1200
   60CHL1  H27B 6919   3.422   5.639   8.933  2.1330 -2.6924  1.0727
   60CHL1  H27C 6920   3.343   5.635   8.773  0.0984  1.3429  0.7899
   61CHL1    C3 6921   6.446   5.221  10.209  0.1411 -0.2721  0.1623
   61CHL1    H3 6922   6.526   5.144  10.207  1.5986  1.2106  0.1814
   61CHL1    O3 6923   6.403   5.235  10.342 -0.2417 -0.2569  0.6647
   61CHL1   H3' 6924   6.413   5.328  10.362 -0.3345 -0.0250 -0.3309
   61CHL1    C4 6925   6.503   5.352  10.158 -0.1576  0.1171  0.2980
   61CHL1   H4A 6926   6.426   5.432  10.159  1.2474  1.5200 -1.2175
   61CHL1   H4B 6927   6.592   5.384  10.217  2.5661 -4.7847 -0.8674
   61CHL1    C5 6928   6.539   5.336  10.010  0.0525 -0.9340 -0.3410
   61CHL1    C6 6929   6.659   5.364   9.956 -0.6420  0.1152 -0.3506
   61CHL1    H6 6930   6.734   5.395  10.030 -0.7462 -2.2307  0.8031
   61CHL1    C7 6931   6.696   5.360   9.814  0.2602  0.2751  0.1062
   61CHL1   H7A 6932   6.745   5.452   9.777 -2.3457  0.9794 -1.7579
   61CHL1   H7B 6933   6.757   5.270   9.795 -2.4884 -1.7539  0.4473
   61CHL1    C8 6934   6.580   5.343   9.710  0.3318  0.3679  0.3364
   61CHL1    H8 6935   6.532   5.443   9.712 -0.0205  0.2014  0.2168
   61CHL1   C14 6936   6.630   5.300   9.576 -0.3669  0.0143  0.3244
   61CHL1   H14 6937   6.672   5.201   9.604  0.5957  0.7529  1.4982
   61CHL1   C15 6938   6.749   5.375   9.519  0.4595 -0.9659  0.9759
   61CHL1  H15A 6939   6.738   5.486   9.524 -0.9759 -1.0578  0.2837
   61CHL1  H15B 6940   6.850   5.352   9.559  0.4901 -2.0276  0.3036
   61CHL1   C16 6941   6.734   5.334   9.370 -0.6390 -0.2863 -0.5059
   61CHL1  H16A 6942   6.728   5.421   9.302 -1.3168  2.6166  3.0642
   61CHL1  H16B 6943   6.813   5.265   9.334 -0.1241 -0.3148  0.6513
   61CHL1   C17 6944   6.609   5.245   9.350  0.1775 -0.3980 -0.4508
   61CHL1   H17 6945   6.634   5.140   9.376  0.7710 -0.0065  0.6011
   61CHL1   C13 6946   6.522   5.288   9.470  0.3754  0.2557 -0.1076
   61CHL1   C18 6947   6.456   5.425   9.442  0.1362  0.2645 -1.4148
   61CHL1  H18A 6948   6.393   5.449   9.530  2.7918 -2.6759  1.4356
   61CHL1  H18B 6949   6.533   5.503   9.422 -1.0485  1.3568 -1.7815
   61CHL1  H18C 6950   6.378   5.415   9.364  0.6082 -2.4581 -1.6029
   61CHL1   C12 6951   6.416   5.189   9.530  0.5823  0.9298  0.4935
   61CHL1  H12A 6952   6.331   5.175   9.459 -0.5375  3.9128  1.1607
   61CHL1  H12B 6953   6.463   5.088   9.524  1.2677  1.3286 -1.1545
   61CHL1   C11 6954   6.362   5.224   9.671 -0.2252 -0.6606 -0.3299
   61CHL1  H11A 6955   6.297   5.314   9.663  0.6461 -0.1271 -1.6236
   61CHL1  H11B 6956   6.303   5.139   9.710 -0.4911  1.2314  3.6615
   61CHL1    C9 6957   6.474   5.247   9.776 -0.0084 -0.6397  0.1238
   61CHL1    H9 6958   6.526   5.153   9.801 -0.4751 -0.8994  0.1200
   61CHL1   C10 6959   6.427   5.294   9.916  0.3683 -0.0305  0.0670
   61CHL1   C19 6960   6.327   5.410   9.896  0.2028 -0.3310 -0.0784
   61CHL1  H19A 6961   6.279   5.433   9.994  1.6531 -0.2170  0.6137
   61CHL1  H19B 6962   6.367   5.506   9.858 -0.3001 -0.4844 -1.0160
   61CHL1  H19C 6963   6.235   5.373   9.846 -1.0714 -0.5079  2.3432
   61CHL1    C1 6964   6.348   5.176   9.978 -0.2463 -0.2072 -0.2323
   61CHL1   H1A 6965   6.263   5.141   9.915 -0.4821 -0.0059 -0.0232
   61CHL1   H1B 6966   6.409   5.083   9.978 -0.4898 -0.3694 -0.1920
   61CHL1    C2 6967   6.319   5.191  10.126 -0.1501 -0.8182 -0.1099
   61CHL1   H2A 6968   6.280   5.095  10.165 -1.0305  0.6783  2.8039
   61CHL1   H2B 6969   6.235   5.261  10.144  1.4643  1.0854  0.3200
   61CHL1   C20 6970   6.562   5.260   9.201  0.3033  0.5989 -0.7405
   61CHL1   H20 6971   6.507   5.356   9.192  1.7710  1.3026 -2.6643
   61CHL1   C21 6972   6.463   5.148   9.160 -0.8070  0.6092  0.2425
   61CHL1  H21A 6973   6.363   5.169   9.204 -0.1922  0.4778  1.7485
   61CHL1  H21B 6974   6.499   5.048   9.193 -2.0474  0.2035  0.3596
   61CHL1  H21C 6975   6.443   5.139   9.051  0.4491  1.9521 -0.1345
   61CHL1   C22 6976   6.670   5.250   9.095 -0.0967  0.6088  0.5980
   61CHL1  H22A 6977   6.754   5.321   9.115 -0.3456  0.9198  0.5396
   61CHL1  H22B 6978   6.713   5.148   9.096 -1.8559 -0.1466  0.1672
   61CHL1   C23 6979   6.630   5.275   8.949  0.1302 -0.4888 -0.4309
   61CHL1  H23A 6980   6.581   5.183   8.913 -0.5924 -0.2003 -0.1937
   61CHL1  H23B 6981   6.559   5.360   8.943  0.6267 -0.1407 -1.4872
   61CHL1   C24 6982   6.742   5.324   8.854  0.2102 -0.4531 -0.0885
   61CHL1  H24A 6983   6.770   5.423   8.896  2.1231 -1.5020  1.1538
   61CHL1  H24B 6984   6.831   5.258   8.865  0.4142  0.2179  2.4377
   61CHL1   C25 6985   6.706   5.330   8.702 -0.4488  0.5000  0.5130
   61CHL1   H25 6986   6.800   5.341   8.645 -0.6121  0.9958  0.3328
   61CHL1   C26 6987   6.637   5.200   8.641 -0.2507 -0.0698 -0.1365
   61CHL1  H26A 6988   6.527   5.201   8.654 -0.2105 -1.2463  0.3918
   61CHL1  H26B 6989   6.653   5.216   8.532 -2.0656 -0.0693 -0.4157
   61CHL1  H26C 6990   6.680   5.105   8.681 -2.4570 -0.4167  1.4769
   61CHL1   C27 6991   6.619   5.450   8.679 -0.3253  0.6084  0.5762
   61CHL1  H27A 6992   6.526   5.450   8.740 -0.1709  1.8610  0.8227
   61CHL1  H27B 6993   6.676   5.540   8.710 -0.1052  0.7249 -0.1479
   61CHL1  H27C 6994   6.603   5.465   8.570 -4.1694 -0.1794  0.9767
   62CHL1    C3 6995   0.555   2.303  10.089  0.3423 -0.0650  1.0364
   62CHL1    H3 6996   0.473   2.228  10.100  0.6639 -0.7183 -0.7617
   62CHL1    O3 6997   0.598   2.357  10.207  0.0641  0.5361  0.7297
   62CHL1   H3' 6998   0.635   2.279  10.250  1.1127  0.6598  0.0765
   62CHL1    C4 6999   0.668   2.209  10.035 -0.8779  0.2042 -0.3139
   62CHL1   H4A 7000   0.763   2.267  10.035 -0.5910 -0.1076 -4.1004
   62CHL1   H4B 7001   0.689   2.131  10.111 -0.0083  1.0215  0.2960
   62CHL1    C5 7002   0.637   2.159   9.896  0.4164 -0.3764  0.2450
   62CHL1    C6 7003   0.641   2.022   9.867 -0.0638  0.1555 -0.3609
   62CHL1    H6 7004   0.662   1.950   9.948 -0.2876 -1.2876 -1.5587
   62CHL1    C7 7005   0.624   1.957   9.737  0.0203 -0.5293  0.7313
   62CHL1   H7A 7006   0.699   1.877   9.723  1.1918  0.6630  0.1396
   62CHL1   H7B 7007   0.522   1.917   9.718  0.1713  0.1448 -1.6803
   62CHL1    C8 7008   0.648   2.062   9.632  0.4158 -0.2662 -0.3176
   62CHL1    H8 7009   0.755   2.092   9.629  0.3965 -0.1143  0.3347
   62CHL1   C14 7010   0.616   2.009   9.490 -0.2520  0.2920  0.3592
   62CHL1   H14 7011   0.508   1.991   9.507 -0.0083 -3.2307 -1.3167
   62CHL1   C15 7012   0.678   1.878   9.445 -0.4610 -0.9069  0.1746
   62CHL1  H15A 7013   0.787   1.859   9.454 -0.3168  0.1678  0.7515
   62CHL1  H15B 7014   0.625   1.798   9.502 -1.1775 -1.6952 -1.5644
   62CHL1   C16 7015   0.649   1.874   9.294 -0.1899  0.1793 -0.2571
   62CHL1  H16A 7016   0.739   1.851   9.234  0.0678 -0.2771  0.3014
   62CHL1  H16B 7017   0.571   1.800   9.267  1.3224 -1.2191 -0.8754
   62CHL1   C17 7018   0.596   2.018   9.250  0.0806 -0.6632 -0.7640
   62CHL1   H17 7019   0.486   2.006   9.250 -0.2575  1.9547  0.9958
   62CHL1   C13 7020   0.624   2.106   9.374 -0.1957  0.2402 -0.0732
   62CHL1   C18 7021   0.775   2.166   9.353  0.3689  0.3312  0.1808
   62CHL1  H18A 7022   0.794   2.220   9.448 -0.9812 -1.0548  1.2807
   62CHL1  H18B 7023   0.854   2.090   9.336 -0.8070 -0.1947 -3.2990
   62CHL1  H18C 7024   0.783   2.240   9.271  2.8901  0.5274  0.5588
   62CHL1   C12 7025   0.528   2.222   9.399  0.5083 -0.0577  0.4255
   62CHL1  H12A 7026   0.521   2.295   9.315 -1.4653 -0.5169  0.1436
   62CHL1  H12B 7027   0.426   2.177   9.399  0.5490 -0.1568  0.1218
   62CHL1   C11 7028   0.550   2.289   9.533 -0.6705  0.2152 -0.1480
   62CHL1  H11A 7029   0.645   2.343   9.514 -0.4547  1.1697  3.2531
   62CHL1  H11B 7030   0.474   2.370   9.539 -1.4164 -0.4422 -0.7188
   62CHL1    C9 7031   0.559   2.193   9.654  0.4127  0.3199 -0.2264
   62CHL1    H9 7032   0.458   2.153   9.672 -0.1292  1.5259 -0.5033
   62CHL1   C10 7033   0.604   2.259   9.787 -0.3002  0.9086  0.7519
   62CHL1   C19 7034   0.730   2.355   9.755  0.3698  0.1686  0.7439
   62CHL1  H19A 7035   0.700   2.435   9.684 -0.1910  0.1490  0.9561
   62CHL1  H19B 7036   0.775   2.406   9.843  1.1541 -0.7369  0.8712
   62CHL1  H19C 7037   0.804   2.292   9.702  0.2976 -0.8916  1.8712
   62CHL1    C1 7038   0.496   2.353   9.838 -0.2749  0.7082  0.4126
   62CHL1   H1A 7039   0.488   2.440   9.769  0.0479 -0.5202 -1.1940
   62CHL1   H1B 7040   0.401   2.296   9.841 -0.4151  0.8666 -0.7488
   62CHL1    C2 7041   0.520   2.406   9.985 -0.6036 -0.9631  0.2556
   62CHL1   H2A 7042   0.432   2.462  10.022 -0.3014  1.2584 -2.2453
   62CHL1   H2B 7043   0.608   2.472   9.971 -0.4004 -1.4008 -0.5713
   62CHL1   C20 7044   0.650   2.065   9.111 -0.3586  0.5032 -0.1276
   62CHL1   H20 7045   0.760   2.078   9.114 -0.1298 -1.7104  2.2542
   62CHL1   C21 7046   0.584   2.193   9.063  0.3308 -0.7173  0.8071
   62CHL1  H21A 7047   0.474   2.181   9.072  0.3764 -1.0195  0.9876
   62CHL1  H21B 7048   0.611   2.218   8.958  1.2644 -1.2855  0.9043
   62CHL1  H21C 7049   0.603   2.290   9.112 -2.0534  0.5017 -0.5766
   62CHL1   C22 7050   0.631   1.962   8.995  0.6528 -0.3341 -0.7160
   62CHL1  H22A 7051   0.669   1.994   8.895  0.3813  1.2603 -0.3208
   62CHL1  H22B 7052   0.694   1.877   9.030  2.2347  1.6162  1.2337
   62CHL1   C23 7053   0.481   1.905   8.970 -0.1234 -0.8082 -0.5939
   62CHL1  H23A 7054   0.434   1.878   9.067 -1.6652 -0.1964 -1.1567
   62CHL1  H23B 7055   0.421   1.990   8.930 -0.1746 -0.9922 -0.9115
   62CHL1   C24 7056   0.486   1.782   8.879 -0.1856  0.3088  0.5260
   62CHL1  H24A 7057   0.526   1.826   8.786 -0.0211 -2.3030 -0.6623
   62CHL1  H24B 7058   0.567   1.716   8.916 -0.6746 -0.3403  0.4596
   62CHL1   C25 7059   0.354   1.715   8.865 -0.0678 -0.4289  0.1730
   62CHL1   H25 7060   0.275   1.790   8.843  2.3240  1.4923 -2.1938
   62CHL1   C26 7061   0.357   1.608   8.755  0.0750 -0.7446  0.2269
   62CHL1  H26A 7062   0.446   1.542   8.761  1.1570  0.8266  2.4337
   62CHL1  H26B 7063   0.259   1.556   8.746 -0.2678 -0.1319  0.3305
   62CHL1  H26C 7064   0.366   1.667   8.662  1.9859  0.1141  0.9210
   62CHL1   C27 7065   0.315   1.632   8.989  0.5116 -0.2008 -0.5730
   62CHL1  H27A 7066   0.321   1.703   9.074 -1.5472  0.2151 -0.7449
   62CHL1  H27B 7067   0.209   1.604   8.971  0.4053 -0.5650  0.5674
   62CHL1  H27C 7068   0.381   1.544   9.004  1.9249  0.7938 -0.8684
   63CHL1    C3 7069   2.322   3.197  10.465  0.1315 -0.3767  0.5743
   63CHL1    H3 7070   2.430   3.212  10.488  0.0293 -1.6612  1.9514
   63CHL1    O3 7071   2.263   3.162  10.587 -0.5661  0.4901 -0.0470
   63CHL1   H3' 7072   2.284   3.239  10.639  1.4575  0.4047 -0.7019
   63CHL1    C4 7073   2.260   3.326  10.405  0.9102  0.6827 -0.1368
   63CHL1   H4A 7074   2.149   3.321  10.411  0.8593  0.0316 -1.6145
   63CHL1   H4B 7075   2.294   3.401  10.480 -1.2047 -0.2211  1.8301
   63CHL1    C5 7076   2.305   3.354  10.262  0.5691 -0.5635 -0.2824
   63CHL1    C6 7077   2.353   3.480  10.234 -0.0657  0.0551  0.3003
   63CHL1    H6 7078   2.360   3.558  10.311 -0.0222  0.2364  0.1116
   63CHL1    C7 7079   2.369   3.518  10.086 -0.4694  0.4313 -0.8276
   63CHL1   H7A 7080   2.298   3.603  10.075 -0.3932  0.6987  0.5831
   63CHL1   H7B 7081   2.471   3.563  10.078 -0.7088  0.5430 -4.0733
   63CHL1    C8 7082   2.343   3.411   9.978 -0.5100 -0.1868  0.1405
   63CHL1    H8 7083   2.238   3.439   9.953  0.3762  2.0294 -1.2395
   63CHL1   C14 7084   2.428   3.434   9.851  0.2665  0.3636 -0.7329
   63CHL1   H14 7085   2.533   3.422   9.884 -0.0088  0.4697  0.1904
   63CHL1   C15 7086   2.414   3.570   9.778 -0.6033 -0.4026 -0.2916
   63CHL1  H15A 7087   2.305   3.595   9.776 -0.5003  0.1065  0.2785
   63CHL1  H15B 7088   2.477   3.642   9.835 -0.1664 -3.2088  2.8552
   63CHL1   C16 7089   2.465   3.549   9.634  0.0144  0.6660  0.1488
   63CHL1  H16A 7090   2.394   3.592   9.560  1.1342  0.8284 -0.8461
   63CHL1  H16B 7091   2.561   3.603   9.625 -1.0926  2.6990  0.1333
   63CHL1   C17 7092   2.483   3.388   9.619 -0.2704  0.5174  0.4353
   63CHL1   H17 7093   2.593   3.376   9.630  0.0839 -0.0400 -3.0990
   63CHL1   C13 7094   2.404   3.335   9.746  0.0353  0.3546 -0.6329
   63CHL1   C18 7095   2.255   3.336   9.716  0.9863 -0.0963 -0.3442
   63CHL1  H18A 7096   2.230   3.248   9.653 -0.0598 -0.0095 -0.0555
   63CHL1  H18B 7097   2.184   3.325   9.801  0.1053  3.7386 -0.4824
   63CHL1  H18C 7098   2.224   3.431   9.667  1.9101 -0.2004 -1.1469
   63CHL1   C12 7099   2.443   3.194   9.799  0.1503  0.3326 -0.4678
   63CHL1  H12A 7100   2.433   3.121   9.715 -1.3461  0.1380 -0.1439
   63CHL1  H12B 7101   2.551   3.199   9.820  0.2605 -0.6090 -0.7468
   63CHL1   C11 7102   2.359   3.159   9.927 -0.9114 -0.0345  0.0099
   63CHL1  H11A 7103   2.255   3.137   9.895 -0.9152  0.5703 -0.4137
   63CHL1  H11B 7104   2.405   3.062   9.957  1.3190  1.4985  1.7189
   63CHL1    C9 7105   2.365   3.270  10.038  0.3209 -0.4784  0.0493
   63CHL1    H9 7106   2.472   3.280  10.066  0.4939  3.6026 -1.6434
   63CHL1   C10 7107   2.287   3.240  10.162 -0.4234 -0.3175  0.0332
   63CHL1   C19 7108   2.137   3.233  10.127 -0.2822 -0.4551  0.8141
   63CHL1  H19A 7109   2.075   3.206  10.215 -0.6436  1.4282  1.1634
   63CHL1  H19B 7110   2.090   3.326  10.086  1.1894  0.4128  1.0761
   63CHL1  H19C 7111   2.115   3.154  10.052 -0.8186  2.2565 -1.9734
   63CHL1    C1 7112   2.338   3.107  10.221  0.1885  0.1345  0.2329
   63CHL1   H1A 7113   2.304   3.025  10.155  0.5413 -0.0529  0.2832
   63CHL1   H1B 7114   2.449   3.110  10.220  0.2437 -0.9191 -2.7124
   63CHL1    C2 7115   2.291   3.079  10.366 -0.5483  0.1415 -0.1671
   63CHL1   H2A 7116   2.336   2.988  10.409 -0.8116  0.3329  0.5153
   63CHL1   H2B 7117   2.183   3.057  10.370 -0.4769 -0.2067 -0.1630
   63CHL1   C20 7118   2.463   3.334   9.476 -0.3364 -0.1288 -0.1255
   63CHL1   H20 7119   2.355   3.346   9.450 -0.9768 -1.7267  1.7312
   63CHL1   C21 7120   2.509   3.184   9.470 -0.0985  0.1383  0.1853
   63CHL1  H21A 7121   2.447   3.108   9.522 -0.4648  0.9007  0.8751
   63CHL1  H21B 7122   2.613   3.165   9.505 -1.2649 -1.8176  2.7831
   63CHL1  H21C 7123   2.498   3.152   9.364  0.6950  2.2906 -0.5800
   63CHL1   C22 7124   2.536   3.411   9.365  0.4698  0.5885 -0.8071
   63CHL1  H22A 7125   2.513   3.519   9.381 -1.9898 -0.1182  0.6746
   63CHL1  H22B 7126   2.642   3.399   9.396 -0.0395 -1.2838  0.2665
   63CHL1   C23 7127   2.500   3.374   9.222  0.4714 -0.0861 -1.1115
   63CHL1  H23A 7128   2.524   3.266   9.215 -2.3217 -0.7940 -0.4994
   63CHL1  H23B 7129   2.393   3.400   9.211  0.6082  0.2194 -1.7357
   63CHL1   C24 7130   2.588   3.452   9.116  0.1614  0.3821 -0.1271
   63CHL1  H24A 7131   2.572   3.561   9.134 -2.2444  0.0900 -0.3733
   63CHL1  H24B 7132   2.694   3.425   9.135  0.0264  0.1329  0.2617
   63CHL1   C25 7133   2.544   3.431   8.969 -0.1218  0.5646 -0.0304
   63CHL1   H25 7134   2.560   3.328   8.929  0.7572  0.4208  0.6738
   63CHL1   C26 7135   2.401   3.463   8.951  0.2424 -0.7356  0.7184
   63CHL1  H26A 7136   2.386   3.564   8.996 -1.7457 -0.2243 -1.0138
   63CHL1  H26B 7137   2.383   3.473   8.842 -0.3808 -0.6653  0.8271
   63CHL1  H26C 7138   2.326   3.393   8.992 -4.0739  1.8460 -2.3172
   63CHL1   C27 7139   2.618   3.524   8.871 -0.0792 -0.0129 -0.3300
   63CHL1  H27A 7140   2.593   3.492   8.767  1.8769 -2.1874 -0.1710
   63CHL1  H27B 7141   2.609   3.634   8.880 -0.5137 -0.0952  0.2970
   63CHL1  H27C 7142   2.724   3.497   8.886  0.2008  2.5010  2.7102
   64CHL1    C3 7143   1.297   2.863  10.275  0.3949  0.5582  0.7842
   64CHL1    H3 7144   1.276   2.754  10.269  0.5195  0.6989 -3.5200
   64CHL1    O3 7145   1.296   2.900  10.413  0.3208  0.7929 -0.6584
   64CHL1   H3' 7146   1.302   2.995  10.421 -1.1161  0.9433 -1.2482
   64CHL1    C4 7147   1.434   2.891  10.206  0.1606  0.2464 -0.2242
   64CHL1   H4A 7148   1.442   2.999  10.231  1.5873 -0.0208  0.5032
   64CHL1   H4B 7149   1.517   2.839  10.257 -1.0516 -0.3531  1.1721
   64CHL1    C5 7150   1.426   2.860  10.055  0.1269 -0.2675  0.3973
   64CHL1    C6 7151   1.506   2.769   9.995  0.3826  0.2508 -0.1164
   64CHL1    H6 7152   1.587   2.719  10.050 -0.0398 -1.8625 -1.3523
   64CHL1    C7 7153   1.509   2.750   9.845 -0.2833  0.2460  1.0167
   64CHL1   H7A 7154   1.614   2.762   9.812 -0.4614 -1.5935 -0.3145
   64CHL1   H7B 7155   1.471   2.647   9.824  0.8559 -0.2715  1.4708
   64CHL1    C8 7156   1.426   2.855   9.764 -0.3293 -0.2419  0.1704
   64CHL1    H8 7157   1.485   2.948   9.753  1.0556 -1.2862 -1.6235
   64CHL1   C14 7158   1.382   2.786   9.630  0.3411 -0.0804 -0.0401
   64CHL1   H14 7159   1.321   2.700   9.665  1.0323  0.4378  2.5261
   64CHL1   C15 7160   1.496   2.724   9.545  1.0324 -0.3213  0.2103
   64CHL1  H15A 7161   1.567   2.805   9.519 -0.9870  1.1103 -1.0290
   64CHL1  H15B 7162   1.544   2.637   9.596  0.2527 -2.3782 -2.4265
   64CHL1   C16 7163   1.420   2.681   9.413 -0.0348  0.1501  0.6562
   64CHL1  H16A 7164   1.480   2.702   9.322 -0.8929  1.1103  0.3168
   64CHL1  H16B 7165   1.400   2.573   9.396  0.4271 -0.3102  2.7611
   64CHL1   C17 7166   1.286   2.768   9.414 -0.0028  0.3569  0.5048
   64CHL1   H17 7167   1.198   2.703   9.435 -0.3979 -0.1869 -2.7010
   64CHL1   C13 7168   1.299   2.866   9.532  0.2405 -0.9288 -0.8193
   64CHL1   C18 7169   1.382   2.990   9.485  0.1530 -0.2945  0.3377
   64CHL1  H18A 7170   1.415   3.056   9.568  0.3116  1.4637 -1.0935
   64CHL1  H18B 7171   1.467   2.961   9.419 -0.5692 -0.4586 -0.5381
   64CHL1  H18C 7172   1.331   3.064   9.419  1.4308 -0.3719 -0.7543
   64CHL1   C12 7173   1.163   2.901   9.609 -0.2651 -0.2322 -0.4406
   64CHL1  H12A 7174   1.112   2.974   9.542  1.5908  0.7178 -0.8646
   64CHL1  H12B 7175   1.098   2.813   9.625  3.2172 -3.6051 -3.8386
   64CHL1   C11 7176   1.197   2.963   9.742  0.0076  0.0089 -0.0831
   64CHL1  H11A 7177   1.240   3.063   9.718  3.9161 -1.7660 -0.7809
   64CHL1  H11B 7178   1.096   2.979   9.787 -0.4170  0.0285 -1.0252
   64CHL1    C9 7179   1.294   2.891   9.837  0.0502  0.1614 -0.5757
   64CHL1    H9 7180   1.240   2.794   9.836  1.2067 -0.5039 -0.0891
   64CHL1   C10 7181   1.312   2.935   9.984  0.1467  0.1899 -0.4393
   64CHL1   C19 7182   1.346   3.094   9.992  0.0987  0.3705  0.6852
   64CHL1  H19A 7183   1.376   3.121  10.096  1.3866  0.0431  0.4024
   64CHL1  H19B 7184   1.436   3.115   9.930 -0.0455 -1.2839 -0.1118
   64CHL1  H19C 7185   1.261   3.155   9.954  0.0882 -0.2840 -0.3568
   64CHL1    C1 7186   1.173   2.917  10.059 -0.1919  0.3881  0.4583
   64CHL1   H1A 7187   1.101   2.982  10.005  0.1236 -1.4726 -2.2893
   64CHL1   H1B 7188   1.143   2.810  10.053 -1.7985  0.7004  2.4839
   64CHL1    C2 7189   1.183   2.944  10.213 -0.5532 -0.0303 -0.0954
   64CHL1   H2A 7190   1.082   2.912  10.248 -0.9746 -0.0793 -1.3413
   64CHL1   H2B 7191   1.192   3.054  10.230 -1.9730  0.1232 -0.2847
   64CHL1   C20 7192   1.264   2.815   9.270 -0.0278 -0.0671 -0.3096
   64CHL1   H20 7193   1.350   2.882   9.248 -0.1656  0.2877  0.2132
   64CHL1   C21 7194   1.135   2.898   9.267 -0.5263  0.3625  0.0261
   64CHL1  H21A 7195   1.133   2.950   9.169  0.8015 -0.8610 -0.6738
   64CHL1  H21B 7196   1.142   2.983   9.338 -1.5619  0.6694 -0.2312
   64CHL1  H21C 7197   1.042   2.839   9.273 -0.0982 -0.5079 -1.3900
   64CHL1   C22 7198   1.245   2.703   9.160  0.1253 -0.3187 -0.1624
   64CHL1  H22A 7199   1.348   2.671   9.136  0.6553  0.3468  1.2031
   64CHL1  H22B 7200   1.179   2.619   9.192  1.9097 -2.4819 -1.9329
   64CHL1   C23 7201   1.203   2.759   9.017 -0.4474  0.1709  0.2343
   64CHL1  H23A 7202   1.094   2.782   9.013 -1.2935 -3.4466  0.2046
   64CHL1  H23B 7203   1.264   2.850   9.000 -0.6792  0.0396 -1.4003
   64CHL1   C24 7204   1.253   2.660   8.906  0.7349 -0.0300  0.1469
   64CHL1  H24A 7205   1.364   2.667   8.898  0.6024 -0.4655 -2.4072
   64CHL1  H24B 7206   1.233   2.552   8.920 -0.2547 -0.0562 -1.3151
   64CHL1   C25 7207   1.185   2.689   8.765 -0.7374  0.1197  0.0664
   64CHL1   H25 7208   1.077   2.674   8.783 -0.5400 -1.8974 -0.3267
   64CHL1   C26 7209   1.218   2.837   8.731  0.0682 -0.0905  0.0243
   64CHL1  H26A 7210   1.327   2.859   8.724  0.0379 -0.4831 -1.9915
   64CHL1  H26B 7211   1.174   2.865   8.633  1.9603 -0.0446 -0.8449
   64CHL1  H26C 7212   1.165   2.902   8.803 -0.4537  3.4238 -3.3532
   64CHL1   C27 7213   1.238   2.582   8.667 -0.1339 -0.1185 -0.2030
   64CHL1  H27A 7214   1.349   2.574   8.663 -0.1771  0.4919 -4.0506
   64CHL1  H27B 7215   1.206   2.486   8.713 -0.1570 -0.7335 -1.4874
   64CHL1  H27C 7216   1.195   2.583   8.565  2.4189 -1.1724 -1.3250
   65CHL1    C3 7217   3.282   0.230  10.343 -0.0171 -0.1461  0.2489
   65CHL1    H3 7218   3.233   0.136  10.310 -0.0469 -0.0207 -0.0625
   65CHL1    O3 7219   3.283   0.259  10.485 -0.4148  0.0122  0.4630
   65CHL1   H3' 7220   3.351   0.326  10.499 -0.0204  0.3504 -2.7529
   65CHL1    C4 7221   3.425   0.217  10.298  0.3072 -0.5707  0.3799
   65CHL1   H4A 7222   3.480   0.306  10.337 -1.2726 -0.6550  2.9994
   65CHL1   H4B 7223   3.478   0.140  10.359  0.4357  0.7703  2.0132
   65CHL1    C5 7224   3.440   0.213  10.147  0.0693 -0.1103  0.1224
   65CHL1    C6 7225   3.524   0.125  10.087  1.1766 -0.0151 -0.2467
   65CHL1    H6 7226   3.584   0.056  10.148  0.8893  0.7130  0.8643
   65CHL1    C7 7227   3.545   0.114   9.942  0.0419 -0.0018 -0.5904
   65CHL1   H7A 7228   3.655   0.128   9.934 -0.2877  1.8392 -2.2155
   65CHL1   H7B 7229   3.524   0.011   9.906  0.1813  0.0980 -0.9620
   65CHL1    C8 7230   3.471   0.226   9.864  0.3380 -0.0581 -0.0597
   65CHL1    H8 7231   3.539   0.313   9.873 -0.6654  0.6218  1.1025
   65CHL1   C14 7232   3.457   0.189   9.719  0.0265 -0.2759  0.0677
   65CHL1   H14 7233   3.386   0.104   9.711 -0.3119  0.0026  0.0962
   65CHL1   C15 7234   3.581   0.150   9.650  0.2836  0.0786 -0.4287
   65CHL1  H15A 7235   3.664   0.219   9.675 -0.9000  1.6131 -0.6336
   65CHL1  H15B 7236   3.610   0.049   9.684 -2.3720 -0.4884  0.2922
   65CHL1   C16 7237   3.547   0.164   9.499 -0.5263  0.4819 -0.0452
   65CHL1  H16A 7238   3.622   0.223   9.441  0.1737 -2.0596 -1.8555
   65CHL1  H16B 7239   3.532   0.058   9.469  1.5439 -0.5423  2.3307
   65CHL1   C17 7240   3.405   0.230   9.487  0.2317 -0.0466 -0.9397
   65CHL1   H17 7241   3.332   0.146   9.485  0.8546 -0.5892 -0.9322
   65CHL1   C13 7242   3.390   0.296   9.634 -0.8982 -0.3683 -0.0710
   65CHL1   C18 7243   3.477   0.426   9.636 -0.4190 -0.3075  0.5574
   65CHL1  H18A 7244   3.495   0.471   9.736  1.8692 -1.4978  0.7227
   65CHL1  H18B 7245   3.572   0.416   9.579  0.0479 -0.2387  1.3195
   65CHL1  H18C 7246   3.414   0.494   9.576 -1.9561 -1.9337  0.3006
   65CHL1   C12 7247   3.247   0.325   9.687  0.7139 -0.0432 -0.0837
   65CHL1  H12A 7248   3.209   0.420   9.645  2.1895  0.4439 -0.3321
   65CHL1  H12B 7249   3.183   0.235   9.673  1.3129 -0.2894 -1.2834
   65CHL1   C11 7250   3.249   0.357   9.838  0.1922 -0.0922  0.1551
   65CHL1  H11A 7251   3.285   0.462   9.850  0.7360 -0.1970 -0.5272
   65CHL1  H11B 7252   3.147   0.358   9.883  0.5809 -0.1530  1.0460
   65CHL1    C9 7253   3.339   0.268   9.926 -0.3376  0.3352 -0.5400
   65CHL1    H9 7254   3.282   0.173   9.927 -0.3282  0.2925 -2.3777
   65CHL1   C10 7255   3.348   0.313  10.071 -0.1620  0.3614 -0.0177
   65CHL1   C19 7256   3.410   0.452  10.067 -0.3144 -0.2837 -0.7249
   65CHL1  H19A 7257   3.339   0.533  10.038 -1.3131 -1.1440 -0.6955
   65CHL1  H19B 7258   3.448   0.491  10.164  1.2505  0.3022 -1.5471
   65CHL1  H19C 7259   3.500   0.455  10.002  0.5803 -0.6803  0.4713
   65CHL1    C1 7260   3.207   0.326  10.127  0.0083 -0.1677  0.1600
   65CHL1   H1A 7261   3.147   0.407  10.079 -1.8193 -0.8129  1.3001
   65CHL1   H1B 7262   3.158   0.230  10.099  3.8918 -2.4485  0.8661
   65CHL1    C2 7263   3.205   0.338  10.276  0.1006 -0.9569 -0.3830
   65CHL1   H2A 7264   3.098   0.334  10.307  0.3223 -0.6904  0.4353
   65CHL1   H2B 7265   3.242   0.441  10.300 -1.3761 -0.3948 -0.4464
   65CHL1   C20 7266   3.385   0.312   9.362 -0.1440  0.1035 -0.2018
   65CHL1   H20 7267   3.451   0.401   9.367  1.1241 -0.9117  1.8579
   65CHL1   C21 7268   3.240   0.354   9.347  0.0603  0.6241  0.2071
   65CHL1  H21A 7269   3.174   0.266   9.329 -0.6237  1.4725 -1.4916
   65CHL1  H21B 7270   3.208   0.424   9.267 -2.2613 -0.8314 -0.2007
   65CHL1  H21C 7271   3.210   0.401   9.443 -0.4922  0.6662  0.0179
   65CHL1   C22 7272   3.425   0.227   9.243 -0.2559  0.9782  0.6077
   65CHL1  H22A 7273   3.531   0.194   9.251  0.1293  1.9452 -0.2762
   65CHL1  H22B 7274   3.361   0.136   9.244 -0.6488  1.2089 -1.5592
   65CHL1   C23 7275   3.415   0.311   9.107 -0.0862  0.2251 -0.6289
   65CHL1  H23A 7276   3.310   0.288   9.077  0.7397 -0.9920 -2.6682
   65CHL1  H23B 7277   3.426   0.421   9.123 -1.4377  0.1424  0.9238
   65CHL1   C24 7278   3.522   0.263   9.005  0.0859  0.6740 -0.5324
   65CHL1  H24A 7279   3.622   0.262   9.053  0.3279  1.2682 -1.0292
   65CHL1  H24B 7280   3.497   0.160   8.970  0.5274  0.0010  1.0796
   65CHL1   C25 7281   3.529   0.351   8.879 -0.5278 -0.0288 -0.3684
   65CHL1   H25 7282   3.434   0.334   8.823 -1.0328  0.9565  0.1939
   65CHL1   C26 7283   3.563   0.495   8.910  0.7012 -0.1341  0.1867
   65CHL1  H26A 7284   3.477   0.543   8.961 -0.2112 -2.0917  0.5323
   65CHL1  H26B 7285   3.649   0.496   8.981  1.0178  0.8738 -0.2029
   65CHL1  H26C 7286   3.594   0.547   8.817  0.4456  0.6588  0.5329
   65CHL1   C27 7287   3.636   0.291   8.791  1.2014  0.2915 -0.1345
   65CHL1  H27A 7288   3.631   0.356   8.701 -1.5057 -0.4375 -0.5337
   65CHL1  H27B 7289   3.738   0.281   8.833 -0.1582 -3.3774  2.5527
   65CHL1  H27C 7290   3.600   0.189   8.766 -1.1951  1.0406  0.1738
   66CHL1    C3 7291   1.702   4.878  10.663  0.5016 -0.1229 -0.3445
   66CHL1    H3 7292   1.596   4.878  10.631  0.5656  0.8095 -0.5705
   66CHL1    O3 7293   1.707   4.870  10.806  0.7669  0.1239  0.7272
   66CHL1   H3' 7294   1.624   4.911  10.831 -0.0199 -0.0626 -1.4438
   66CHL1    C4 7295   1.778   4.756  10.603  0.1606 -0.8795 -0.0900
   66CHL1   H4A 7296   1.876   4.741  10.652 -0.6714 -1.9742  1.2989
   66CHL1   H4B 7297   1.718   4.671  10.642 -1.9190  1.0862  1.1618
   66CHL1    C5 7298   1.792   4.751  10.452 -0.1280  0.1027  0.0977
   66CHL1    C6 7299   1.741   4.651  10.377 -0.2787  0.4593  0.7432
   66CHL1    H6 7300   1.698   4.566  10.431 -1.0984 -1.5074 -2.8117
   66CHL1    C7 7301   1.746   4.651  10.227 -0.4144  0.2394  0.0335
   66CHL1   H7A 7302   1.780   4.555  10.183 -0.7216  0.5001 -0.7899
   66CHL1   H7B 7303   1.639   4.659  10.196 -0.8754 -1.1223  1.2625
   66CHL1    C8 7304   1.835   4.763  10.161 -0.2619 -0.0787 -0.5360
   66CHL1    H8 7305   1.941   4.737  10.185  0.1178  0.3560 -1.7085
   66CHL1   C14 7306   1.805   4.776  10.011  0.0938  1.1887 -0.1099
   66CHL1   H14 7307   1.696   4.796  10.020  0.1040  1.0355  0.3727
   66CHL1   C15 7308   1.828   4.649   9.921  1.3346 -0.5828  0.6716
   66CHL1  H15A 7309   1.915   4.591   9.960 -0.1978 -2.7719  0.9247
   66CHL1  H15B 7310   1.740   4.581   9.920 -1.0677  2.4061 -1.6132
   66CHL1   C16 7311   1.859   4.695   9.777 -0.6963 -0.2443 -0.0611
   66CHL1  H16A 7312   1.962   4.660   9.756  0.0659  0.6892  1.9837
   66CHL1  H16B 7313   1.791   4.640   9.709  1.1218 -2.3215 -0.2427
   66CHL1   C17 7314   1.836   4.847   9.794 -0.2852  0.1087  0.0867
   66CHL1   H17 7315   1.725   4.859   9.791 -0.0183  2.5939 -0.9900
   66CHL1   C13 7316   1.887   4.880   9.940 -0.4298 -0.5431  0.2126
   66CHL1   C18 7317   2.038   4.851   9.955  0.5559  0.2017 -0.3847
   66CHL1  H18A 7318   2.060   4.842  10.063  1.1794  1.4868 -0.3933
   66CHL1  H18B 7319   2.078   4.764   9.898 -1.2412 -1.2603  0.5570
   66CHL1  H18C 7320   2.091   4.939   9.913 -1.8111  1.0575 -1.6610
   66CHL1   C12 7321   1.851   5.017  10.005  0.0223  0.4525  0.3603
   66CHL1  H12A 7322   1.895   5.104   9.952  2.0911  0.9180  2.7512
   66CHL1  H12B 7323   1.741   5.032   9.998 -0.8436 -4.7662  0.4404
   66CHL1   C11 7324   1.881   5.017  10.157  0.1201  0.2070 -0.5148
   66CHL1  H11A 7325   1.991   5.024  10.168  0.2055 -1.4271 -0.1998
   66CHL1  H11B 7326   1.839   5.111  10.199  0.1588 -0.3102  0.7031
   66CHL1    C9 7327   1.817   4.898  10.233  1.0490  0.5326  0.7033
   66CHL1    H9 7328   1.708   4.919  10.230  0.9318 -0.2268 -0.6334
   66CHL1   C10 7329   1.846   4.882  10.390 -0.3388 -0.2482  0.7211
   66CHL1   C19 7330   1.998   4.894  10.414 -0.0797 -0.0166 -1.0268
   66CHL1  H19A 7331   2.031   4.993  10.375  2.5509  0.0671  1.2334
   66CHL1  H19B 7332   2.021   4.892  10.522 -2.1362 -0.2171 -0.5830
   66CHL1  H19C 7333   2.054   4.812  10.364 -1.5685 -2.0971  0.6356
   66CHL1    C1 7334   1.766   5.002  10.454  0.3300  0.2538 -0.4350
   66CHL1   H1A 7335   1.797   5.104  10.422  0.2587  0.6477  0.6985
   66CHL1   H1B 7336   1.662   4.990  10.418 -0.1144  3.7413 -0.4811
   66CHL1    C2 7337   1.769   5.002  10.606  0.3401  1.3614 -0.2525
   66CHL1   H2A 7338   1.720   5.090  10.654 -0.2630  0.4081  0.8943
   66CHL1   H2B 7339   1.871   5.003  10.650  0.6050  2.5847 -0.8693
   66CHL1   C20 7340   1.891   4.921   9.671 -0.0714  0.6172 -0.2988
   66CHL1   H20 7341   1.998   4.947   9.683 -0.5055  1.8241  1.0830
   66CHL1   C21 7342   1.818   5.065   9.660  0.4687 -1.3262 -0.4764
   66CHL1  H21A 7343   1.709   5.047   9.655  0.3519 -0.7874  0.1113
   66CHL1  H21B 7344   1.863   5.115   9.572  1.0730 -1.2654 -0.1387
   66CHL1  H21C 7345   1.839   5.114   9.757 -2.6092  1.3501 -1.1087
   66CHL1   C22 7346   1.865   4.836   9.542 -0.1197 -0.7921 -0.3288
   66CHL1  H22A 7347   1.909   4.891   9.456 -1.0012  0.4879  0.0180
   66CHL1  H22B 7348   1.918   4.739   9.545 -0.2889 -0.8934 -0.5710
   66CHL1   C23 7349   1.718   4.809   9.505  0.4506  0.1269 -0.6267
   66CHL1  H23A 7350   1.665   4.777   9.598  1.4990  0.4751  0.1012
   66CHL1  H23B 7351   1.669   4.900   9.464  0.2847 -0.4350 -1.7079
   66CHL1   C24 7352   1.703   4.704   9.391 -0.4335  0.0964 -0.1657
   66CHL1  H24A 7353   1.746   4.747   9.299  1.9740  1.7691  1.6842
   66CHL1  H24B 7354   1.749   4.605   9.412  0.8773  0.2025 -2.4228
   66CHL1   C25 7355   1.557   4.678   9.350  1.4343 -0.3194 -0.3321
   66CHL1   H25 7356   1.510   4.766   9.301  0.1151  0.4485  2.2075
   66CHL1   C26 7357   1.547   4.566   9.246 -0.1236 -0.4730  0.1677
   66CHL1  H26A 7358   1.441   4.538   9.226 -1.1030  0.2121  3.9298
   66CHL1  H26B 7359   1.599   4.598   9.153 -0.3493 -0.6925 -0.0358
   66CHL1  H26C 7360   1.596   4.474   9.284  0.1081 -0.6001 -0.4306
   66CHL1   C27 7361   1.472   4.628   9.473  0.3916 -0.0774  0.0897
   66CHL1  H27A 7362   1.522   4.571   9.554  0.0487  1.8429  1.6614
   66CHL1  H27B 7363   1.452   4.728   9.517 -1.2720  0.2687 -1.3368
   66CHL1  H27C 7364   1.373   4.589   9.438  0.4484  0.2578 -0.4507
   67CHL1    C3 7365   5.556   5.847  10.341  0.2774  0.4882  0.2371
   67CHL1    H3 7366   5.490   5.936  10.334  0.1175  0.2065 -2.0460
   67CHL1    O3 7367   5.586   5.833  10.480 -0.0925  0.2938 -0.1209
   67CHL1   H3' 7368   5.606   5.741  10.500  1.5504  0.6590 -0.0137
   67CHL1    C4 7369   5.483   5.722  10.281  0.1933  0.0184  0.9804
   67CHL1   H4A 7370   5.531   5.624  10.304 -0.8339 -0.6716  0.2770
   67CHL1   H4B 7371   5.382   5.730  10.327 -0.3652  3.0822 -0.6634
   67CHL1    C5 7372   5.456   5.743  10.132 -0.0394  0.1893  0.6729
   67CHL1    C6 7373   5.332   5.727  10.087  0.7124  0.5422  0.7989
   67CHL1    H6 7374   5.254   5.700  10.160  0.5417  0.1605  0.4771
   67CHL1    C7 7375   5.293   5.747   9.945 -0.1418  0.5737  0.2890
   67CHL1   H7A 7376   5.210   5.680   9.915 -1.3571  1.4725  1.5605
   67CHL1   H7B 7377   5.250   5.850   9.941  1.4186  1.2019 -0.6293
   67CHL1    C8 7378   5.412   5.737   9.850 -0.4570 -0.1593  0.5158
   67CHL1    H8 7379   5.434   5.628   9.855  1.1287  0.2272  2.9106
   67CHL1   C14 7380   5.379   5.784   9.708  0.4518  0.0436  0.6386
   67CHL1   H14 7381   5.354   5.892   9.722 -0.8492 -0.3283  1.2569
   67CHL1   C15 7382   5.256   5.720   9.645  0.4786 -0.7232 -0.2386
   67CHL1  H15A 7383   5.261   5.610   9.660  1.4015 -0.5729  0.6119
   67CHL1  H15B 7384   5.163   5.763   9.689 -0.0995  0.8075 -2.8418
   67CHL1   C16 7385   5.269   5.740   9.492  0.6447  0.0643  0.0995
   67CHL1  H16A 7386   5.270   5.636   9.451  0.3746 -0.2868  0.9823
   67CHL1  H16B 7387   5.176   5.786   9.450 -0.1900 -1.7923 -0.1522
   67CHL1   C17 7388   5.404   5.826   9.475 -0.4464 -0.4065 -0.1181
   67CHL1   H17 7389   5.388   5.935   9.485 -1.7027 -0.6546  0.6853
   67CHL1   C13 7390   5.494   5.779   9.595 -0.0626  0.0931 -0.4363
   67CHL1   C18 7391   5.555   5.634   9.582  0.0980 -0.1144 -0.1895
   67CHL1  H18A 7392   5.660   5.640   9.546 -0.4654  0.8976 -1.7161
   67CHL1  H18B 7393   5.524   5.581   9.674 -1.5235  1.8967  0.4773
   67CHL1  H18C 7394   5.507   5.579   9.498  0.7229  1.9462 -1.9373
   67CHL1   C12 7395   5.597   5.874   9.651 -0.1852 -0.1082  0.5176
   67CHL1  H12A 7396   5.689   5.877   9.589 -0.7638  1.1617 -0.3064
   67CHL1  H12B 7397   5.549   5.974   9.658 -0.5944 -0.2208 -0.5663
   67CHL1   C11 7398   5.651   5.823   9.796  0.2482 -0.1017 -0.2338
   67CHL1  H11A 7399   5.699   5.725   9.775 -0.7894 -0.8846  1.0355
   67CHL1  H11B 7400   5.733   5.893   9.823  1.2460 -1.7344  1.0963
   67CHL1    C9 7401   5.541   5.823   9.902  0.4817 -0.1076 -0.0469
   67CHL1    H9 7402   5.510   5.929   9.910 -0.5339 -0.4381  0.5013
   67CHL1   C10 7403   5.583   5.775  10.047  0.1384 -0.2226 -0.1289
   67CHL1   C19 7404   5.666   5.648  10.034 -0.1844  0.2599 -0.1179
   67CHL1  H19A 7405   5.715   5.629  10.132 -0.5329  0.1735  0.0356
   67CHL1  H19B 7406   5.601   5.562  10.010  1.9415 -1.3202 -0.3690
   67CHL1  H19C 7407   5.744   5.654   9.954  1.2245 -0.5930  1.1499
   67CHL1    C1 7408   5.670   5.887  10.107 -0.1199  0.6227  0.3505
   67CHL1   H1A 7409   5.773   5.905  10.070 -0.2753  1.4480  0.3147
   67CHL1   H1B 7410   5.610   5.981  10.103 -0.4392  0.3633 -1.3905
   67CHL1    C2 7411   5.688   5.864  10.265 -0.1010  0.6093 -0.1745
   67CHL1   H2A 7412   5.736   5.957  10.301 -2.4243  2.0208 -0.6560
   67CHL1   H2B 7413   5.760   5.781  10.285  0.8305  1.1471 -1.2359
   67CHL1   C20 7414   5.464   5.798   9.342  0.4948 -0.7638  0.2857
   67CHL1   H20 7415   5.475   5.692   9.312 -1.4245 -1.2325  1.1775
   67CHL1   C21 7416   5.599   5.876   9.333 -0.5506  0.7327 -0.4296
   67CHL1  H21A 7417   5.649   5.891   9.234  1.0133 -0.7669  0.1014
   67CHL1  H21B 7418   5.674   5.817   9.391 -1.8974  0.9940  1.6041
   67CHL1  H21C 7419   5.581   5.976   9.376 -0.7539  0.8168 -0.7148
   67CHL1   C22 7420   5.377   5.855   9.227  0.6916 -0.2958  0.3212
   67CHL1  H22A 7421   5.271   5.822   9.229  0.8848 -0.8602  2.1014
   67CHL1  H22B 7422   5.370   5.964   9.246 -0.1998  0.0794 -1.9380
   67CHL1   C23 7423   5.429   5.826   9.083  0.2476  0.5501  0.1812
   67CHL1  H23A 7424   5.514   5.897   9.077 -0.2681  1.2250  0.7913
   67CHL1  H23B 7425   5.467   5.722   9.086 -0.9990  0.1091  1.1740
   67CHL1   C24 7426   5.343   5.851   8.962 -0.4676 -0.3141  1.2501
   67CHL1  H24A 7427   5.245   5.800   8.967  0.2569 -1.7710  0.9327
   67CHL1  H24B 7428   5.312   5.958   8.955 -0.1917 -0.3154 -0.2014
   67CHL1   C25 7429   5.396   5.784   8.837  0.2547  0.0961  0.1283
   67CHL1   H25 7430   5.322   5.822   8.763  2.3336  0.0925 -1.9778
   67CHL1   C26 7431   5.544   5.818   8.813 -0.3399 -0.5035  0.3012
   67CHL1  H26A 7432   5.560   5.928   8.821 -0.5171 -0.4497 -0.0915
   67CHL1  H26B 7433   5.609   5.769   8.888 -3.6403 -0.3506  3.4064
   67CHL1  H26C 7434   5.566   5.786   8.709  0.9642 -1.1981  0.7805
   67CHL1   C27 7435   5.379   5.629   8.831 -0.0059 -0.4294 -0.3124
   67CHL1  H27A 7436   5.375   5.591   8.727  1.2413 -0.0978 -0.4839
   67CHL1  H27B 7437   5.453   5.572   8.892 -0.9041 -0.5926  0.6524
   67CHL1  H27C 7438   5.282   5.599   8.876 -1.9049  0.1396 -3.9058
   68CHL1    C3 7439   3.188   6.460  10.239 -0.9099  0.1245  0.3817
   68CHL1    H3 7440   3.084   6.455  10.202 -0.4366  1.5469 -1.2246
   68CHL1    O3 7441   3.198   6.447  10.379  0.0116  0.2864  0.2977
   68CHL1   H3' 7442   3.280   6.486  10.410  0.0417  0.9694 -0.5972
   68CHL1    C4 7443   3.279   6.358  10.168 -0.0031  0.3155 -0.1591
   68CHL1   H4A 7444   3.384   6.378  10.198  0.1982 -1.4087  0.3483
   68CHL1   H4B 7445   3.256   6.257  10.210 -0.2726  0.5451  0.2533
   68CHL1    C5 7446   3.275   6.373  10.013  0.3687  0.0163  0.2155
   68CHL1    C6 7447   3.237   6.272   9.927  0.7836  0.3130  0.2189
   68CHL1    H6 7448   3.211   6.175   9.971 -3.0030 -0.3606 -3.2028
   68CHL1    C7 7449   3.241   6.282   9.784  0.3273  0.5655  0.0909
   68CHL1   H7A 7450   3.277   6.188   9.738 -0.7133  0.1282  0.1630
   68CHL1   H7B 7451   3.134   6.286   9.756  0.7200  0.8151 -1.4396
   68CHL1    C8 7452   3.322   6.403   9.731 -0.4659 -0.6535  0.5692
   68CHL1    H8 7453   3.426   6.365   9.747 -0.3267  0.0276  1.3265
   68CHL1   C14 7454   3.285   6.418   9.585 -0.6566  0.6248  0.4662
   68CHL1   H14 7455   3.179   6.450   9.583 -1.1763 -1.0917 -2.0832
   68CHL1   C15 7456   3.287   6.293   9.489  0.6961 -0.4029  0.5427
   68CHL1  H15A 7457   3.360   6.220   9.531  0.9809 -0.3072  0.2080
   68CHL1  H15B 7458   3.189   6.242   9.479  0.2541  0.4918  0.2075
   68CHL1   C16 7459   3.315   6.362   9.352 -0.3274 -0.2721  0.0535
   68CHL1  H16A 7460   3.410   6.320   9.313 -1.2287 -0.5724 -1.8717
   68CHL1  H16B 7461   3.234   6.335   9.281  0.4088 -0.4368 -0.7434
   68CHL1   C17 7462   3.313   6.519   9.378 -0.3091 -0.6962 -0.2974
   68CHL1   H17 7463   3.206   6.548   9.389 -0.5907 -2.0739  0.7362
   68CHL1   C13 7464   3.369   6.532   9.517  0.2109 -0.0485  0.5360
   68CHL1   C18 7465   3.517   6.502   9.528 -0.5240  0.8024  0.3812
   68CHL1  H18A 7466   3.552   6.514   9.633  0.5796 -1.2141  0.2810
   68CHL1  H18B 7467   3.555   6.406   9.486  1.5853  2.9022 -2.6816
   68CHL1  H18C 7468   3.573   6.570   9.460 -1.7609  1.8633  0.4087
   68CHL1   C12 7469   3.333   6.670   9.591 -0.3371 -0.1173 -0.0241
   68CHL1  H12A 7470   3.402   6.752   9.561  1.0919 -1.2475  0.1393
   68CHL1  H12B 7471   3.225   6.693   9.583 -0.1481  0.4268 -1.1726
   68CHL1   C11 7472   3.353   6.658   9.747  0.9522  0.5554 -0.9025
   68CHL1  H11A 7473   3.464   6.656   9.744  1.0790  0.0352  2.1811
   68CHL1  H11B 7474   3.314   6.750   9.795  0.1788 -1.1624  1.9179
   68CHL1    C9 7475   3.290   6.527   9.811  1.0940 -0.2105 -1.1942
   68CHL1    H9 7476   3.179   6.527   9.807  1.0350 -0.0727  0.4344
   68CHL1   C10 7477   3.319   6.511   9.964 -0.0812 -0.3646 -0.5070
   68CHL1   C19 7478   3.468   6.507   9.992 -0.2112  0.2620  0.7705
   68CHL1  H19A 7479   3.521   6.425   9.939  1.3218  2.9838 -2.1117
   68CHL1  H19B 7480   3.514   6.602   9.956  1.7146 -0.8387  0.2853
   68CHL1  H19C 7481   3.504   6.500  10.097 -0.8965 -0.2416  0.9693
   68CHL1    C1 7482   3.242   6.617  10.044 -0.1760 -0.3452  0.5663
   68CHL1   H1A 7483   3.292   6.714  10.027  0.3996 -0.5897  0.8567
   68CHL1   H1B 7484   3.137   6.622  10.007  0.4137 -2.4315 -1.4716
   68CHL1    C2 7485   3.240   6.600  10.198 -0.2173  0.7362  0.5216
   68CHL1   H2A 7486   3.174   6.678  10.242 -1.3998 -0.0119  0.0964
   68CHL1   H2B 7487   3.342   6.617  10.239  0.7631 -2.9355 -0.1768
   68CHL1   C20 7488   3.370   6.600   9.264 -1.1227 -0.2095  0.6362
   68CHL1   H20 7489   3.405   6.699   9.300 -0.8579 -0.9261  2.4499
   68CHL1   C21 7490   3.246   6.617   9.170 -0.4856  0.3562 -0.2275
   68CHL1  H21A 7491   3.170   6.689   9.208  1.2668  0.4311  3.3627
   68CHL1  H21B 7492   3.204   6.517   9.149  0.0538  0.3412 -1.2232
   68CHL1  H21C 7493   3.293   6.662   9.081 -0.2081 -1.3959 -0.9833
   68CHL1   C22 7494   3.486   6.534   9.183 -0.6903  0.2107  0.0001
   68CHL1  H22A 7495   3.562   6.505   9.259  1.8552  2.5607 -1.5461
   68CHL1  H22B 7496   3.459   6.442   9.127 -0.4850  0.2117 -0.1011
   68CHL1   C23 7497   3.558   6.622   9.085 -0.7133  0.4261 -0.0627
   68CHL1  H23A 7498   3.494   6.680   9.015  0.0228  2.2159  0.7063
   68CHL1  H23B 7499   3.614   6.685   9.158 -0.1675  0.4867 -0.5290
   68CHL1   C24 7500   3.677   6.558   9.008  0.0529  0.0034  0.1473
   68CHL1  H24A 7501   3.746   6.494   9.068 -1.2705 -2.2016 -0.6004
   68CHL1  H24B 7502   3.623   6.487   8.941 -1.2950  0.8502  0.3214
   68CHL1   C25 7503   3.757   6.641   8.910 -0.2972 -0.0575  0.2735
   68CHL1   H25 7504   3.685   6.704   8.853 -0.1506 -1.0092 -1.0025
   68CHL1   C26 7505   3.860   6.729   8.982  0.1226  0.0693  0.1926
   68CHL1  H26A 7506   3.931   6.673   9.046 -1.5654 -0.7466  1.4260
   68CHL1  H26B 7507   3.923   6.773   8.902  0.3333 -1.7082 -0.6402
   68CHL1  H26C 7508   3.816   6.809   9.046  0.4608  0.6402 -0.2867
   68CHL1   C27 7509   3.840   6.554   8.809  0.1445  0.1704  0.1279
   68CHL1  H27A 7510   3.786   6.529   8.716  0.7249  1.9823 -0.7275
   68CHL1  H27B 7511   3.930   6.611   8.778  0.6563 -0.1310  1.0256
   68CHL1  H27C 7512   3.859   6.467   8.876 -0.3593 -3.1371 -3.8430
   69CHL1    C3 7513   3.007   3.991   6.788 -0.0852  0.0170 -0.5514
   69CHL1    H3 7514   3.013   3.880   6.780  1.1398 -0.0593  1.3303
   69CHL1    O3 7515   3.037   4.048   6.659 -0.4000 -0.1858 -0.2056
   69CHL1   H3' 7516   3.029   3.984   6.588  2.0330 -0.5216 -0.2306
   69CHL1    C4 7517   2.864   4.038   6.833  0.0389  0.4109  0.1570
   69CHL1   H4A 7518   2.854   4.149   6.824  0.2621  0.3058 -1.4911
   69CHL1   H4B 7519   2.789   4.001   6.760  0.1358 -0.8404  0.6876
   69CHL1    C5 7520   2.836   4.005   6.978  0.0762  0.2828 -0.3703
   69CHL1    C6 7521   2.716   3.955   7.011  0.0276  0.3236 -0.1268
   69CHL1    H6 7522   2.640   3.928   6.936 -1.4313  0.6229  1.2038
   69CHL1    C7 7523   2.671   3.923   7.148 -0.0717  0.0196 -0.1265
   69CHL1   H7A 7524   2.565   3.955   7.159 -0.2397 -1.3612  2.5157
   69CHL1   H7B 7525   2.669   3.813   7.157 -0.5529  0.0048 -0.3815
   69CHL1    C8 7526   2.758   3.993   7.260 -0.0260 -1.0580 -1.4660
   69CHL1    H8 7527   2.724   4.098   7.254 -0.1438 -0.8768  1.7257
   69CHL1   C14 7528   2.737   3.928   7.397 -0.3258  0.0805 -0.9279
   69CHL1   H14 7529   2.778   3.825   7.388 -3.1443 -0.9488 -3.0355
   69CHL1   C15 7530   2.596   3.901   7.449  0.2330  0.4059 -0.1821
   69CHL1  H15A 7531   2.535   3.993   7.444 -0.1927  0.0713 -1.1443
   69CHL1  H15B 7532   2.539   3.817   7.405  1.6647 -1.4263  1.3534
   69CHL1   C16 7533   2.619   3.879   7.602  0.5337  0.5288 -0.0786
   69CHL1  H16A 7534   2.561   3.949   7.666  0.7008  1.5685 -1.0470
   69CHL1  H16B 7535   2.604   3.776   7.640  1.0585  0.7790  0.8251
   69CHL1   C17 7536   2.770   3.904   7.622  0.2228  0.0463  0.7807
   69CHL1   H17 7537   2.817   3.804   7.611 -2.1779 -0.7011 -4.4281
   69CHL1   C13 7538   2.810   3.988   7.508  0.4360 -0.2550 -0.6265
   69CHL1   C18 7539   2.764   4.134   7.541  0.0951  0.4127  0.1685
   69CHL1  H18A 7540   2.659   4.140   7.578  0.8177 -0.8493  2.4989
   69CHL1  H18B 7541   2.829   4.192   7.610 -1.3161  2.6690 -0.3467
   69CHL1  H18C 7542   2.757   4.185   7.443 -3.2158  0.7881  0.5440
   69CHL1   C12 7543   2.962   3.987   7.472 -0.1231  0.0439  0.7299
   69CHL1  H12A 7544   3.021   4.042   7.547  1.1550 -1.2878  0.7274
   69CHL1  H12B 7545   2.992   3.880   7.467 -1.2461 -0.2694  0.4755
   69CHL1   C11 7546   2.989   4.057   7.339  0.4983  0.1090  0.3787
   69CHL1  H11A 7547   2.964   4.164   7.355  0.4267 -0.0083  1.0708
   69CHL1  H11B 7548   3.098   4.049   7.317  0.5203 -1.1627  0.9342
   69CHL1    C9 7549   2.904   3.990   7.226  0.0049  0.5451 -0.3852
   69CHL1    H9 7550   2.926   3.882   7.217  1.3370  0.8126 -0.4256
   69CHL1   C10 7551   2.934   4.052   7.087 -0.4328 -0.1675 -0.5683
   69CHL1   C19 7552   2.928   4.204   7.078 -0.8711 -0.6694 -0.4519
   69CHL1  H19A 7553   2.953   4.244   6.977 -1.3489 -2.0212 -1.1196
   69CHL1  H19B 7554   2.828   4.240   7.110 -0.9257 -0.9605 -0.2882
   69CHL1  H19C 7555   3.010   4.246   7.140 -2.1549  1.3381 -0.0731
   69CHL1    C1 7556   3.070   3.994   7.037  0.1055 -0.4132  0.2372
   69CHL1   H1A 7557   3.146   4.038   7.105  0.4846 -0.9021  0.1325
   69CHL1   H1B 7558   3.077   3.884   7.052 -0.9252 -0.6596 -1.0758
   69CHL1    C2 7559   3.118   4.032   6.889  1.1499  0.0315 -0.2151
   69CHL1   H2A 7560   3.207   3.968   6.873  2.1235  1.5608 -1.0240
   69CHL1   H2B 7561   3.148   4.138   6.879 -0.4180  0.9795  4.0537
   69CHL1   C20 7562   2.816   3.947   7.762 -0.0985  0.1100  0.0343
   69CHL1   H20 7563   2.909   4.003   7.742  0.2829 -1.0749 -1.5742
   69CHL1   C21 7564   2.862   3.829   7.848  0.5466 -0.1945  0.0793
   69CHL1  H21A 7565   2.962   3.811   7.804  0.4353  0.5763 -0.5017
   69CHL1  H21B 7566   2.797   3.740   7.850 -0.7849  0.7560 -0.2372
   69CHL1  H21C 7567   2.872   3.855   7.956 -0.5649  0.9444 -0.0681
   69CHL1   C22 7568   2.719   4.040   7.838 -0.4385 -0.1062 -0.4905
   69CHL1  H22A 7569   2.686   4.130   7.781 -2.2254 -0.6893 -0.4186
   69CHL1  H22B 7570   2.629   3.980   7.862 -0.7546  1.0103  1.2112
   69CHL1   C23 7571   2.784   4.096   7.965  0.2721 -0.1229 -0.1230
   69CHL1  H23A 7572   2.805   4.017   8.039  0.4188  0.5032  0.5101
   69CHL1  H23B 7573   2.877   4.140   7.923 -0.2987  2.5190  1.3062
   69CHL1   C24 7574   2.705   4.218   8.034 -0.5812  0.1689 -0.1865
   69CHL1  H24A 7575   2.709   4.306   7.965 -1.4101  0.2510 -0.1289
   69CHL1  H24B 7576   2.600   4.193   8.059 -0.8495  0.9240 -0.5230
   69CHL1   C25 7577   2.774   4.263   8.165  0.3993  0.4308 -0.0253
   69CHL1   H25 7578   2.745   4.367   8.194  0.4019  0.5803 -0.5670
   69CHL1   C26 7579   2.735   4.169   8.283  0.2248  1.2089  0.3581
   69CHL1  H26A 7580   2.755   4.220   8.379  0.1973  1.1403  0.4009
   69CHL1  H26B 7581   2.631   4.132   8.269 -0.5545  3.6609 -0.6677
   69CHL1  H26C 7582   2.799   4.080   8.271 -2.2433 -0.3237 -2.1255
   69CHL1   C27 7583   2.928   4.270   8.146  0.1757  0.6858  0.3158
   69CHL1  H27A 7584   2.939   4.327   8.051 -0.4189  2.2564  1.1791
   69CHL1  H27B 7585   2.969   4.315   8.238  0.7313  0.0114  0.3991
   69CHL1  H27C 7586   2.974   4.169   8.138 -1.1774  0.0433  0.3725
   70CHL1    C3 7587   2.533   0.689   6.985  0.0377 -0.0979  0.4823
   70CHL1    H3 7588   2.635   0.729   6.972 -0.7285  1.1030 -1.9873
   70CHL1    O3 7589   2.475   0.667   6.858  0.1740  0.7233 -1.1730
   70CHL1   H3' 7590   2.387   0.702   6.871 -0.0861 -0.8278  1.5463
   70CHL1    C4 7591   2.521   0.564   7.073 -0.8793 -0.3436 -0.1834
   70CHL1   H4A 7592   2.419   0.519   7.073 -0.1189 -2.1229 -1.0089
   70CHL1   H4B 7593   2.583   0.494   7.014 -1.9688 -0.4526 -1.2186
   70CHL1    C5 7594   2.566   0.588   7.218 -0.2292 -0.3650  0.0635
   70CHL1    C6 7595   2.661   0.511   7.276  0.3124  0.4264 -0.2698
   70CHL1    H6 7596   2.707   0.428   7.219  0.4504 -0.4345  1.0632
   70CHL1    C7 7597   2.695   0.513   7.422  0.4394 -0.5214 -0.2521
   70CHL1   H7A 7598   2.696   0.411   7.464 -1.7708  0.9046  3.5310
   70CHL1   H7B 7599   2.798   0.553   7.421 -0.6887  2.5329 -0.5626
   70CHL1    C8 7600   2.588   0.605   7.495  0.2432 -0.5424  0.1621
   70CHL1    H8 7601   2.501   0.537   7.501 -0.4403  0.0184 -2.6019
   70CHL1   C14 7602   2.642   0.639   7.635 -0.3862  0.4344  0.1040
   70CHL1   H14 7603   2.743   0.680   7.613 -0.2607  0.4845  0.7490
   70CHL1   C15 7604   2.673   0.524   7.732  0.9461 -0.0206 -0.1785
   70CHL1  H15A 7605   2.589   0.458   7.762  1.0510 -0.2239 -0.3254
   70CHL1  H15B 7606   2.756   0.473   7.677  0.7531  1.7229 -2.1225
   70CHL1   C16 7607   2.698   0.589   7.867  0.5775 -0.7302  0.3774
   70CHL1  H16A 7608   2.645   0.547   7.955 -1.9803 -0.1849 -0.8782
   70CHL1  H16B 7609   2.805   0.575   7.897 -0.0016 -0.9344  2.4309
   70CHL1   C17 7610   2.653   0.733   7.849  0.2270  0.5758 -0.0967
   70CHL1   H17 7611   2.744   0.791   7.819  0.6644 -0.5183 -0.9080
   70CHL1   C13 7612   2.560   0.736   7.720 -0.0671  0.0488  0.2685
   70CHL1   C18 7613   2.415   0.697   7.760  0.0056 -0.0399  0.1304
   70CHL1  H18A 7614   2.366   0.663   7.667 -0.6046  1.4877 -0.1305
   70CHL1  H18B 7615   2.403   0.620   7.839 -0.2613  1.5715  1.7028
   70CHL1  H18C 7616   2.355   0.780   7.804 -0.9650 -0.8128  0.2703
   70CHL1   C12 7617   2.567   0.864   7.630  0.0224  1.0313 -0.6650
   70CHL1  H12A 7618   2.531   0.945   7.697  1.3728  1.4183 -0.3795
   70CHL1  H12B 7619   2.671   0.895   7.607 -0.5074  1.7066 -2.2018
   70CHL1   C11 7620   2.492   0.848   7.501  0.8134  0.1846  1.2670
   70CHL1  H11A 7621   2.383   0.830   7.518  0.7232 -2.8112 -1.8816
   70CHL1  H11B 7622   2.501   0.943   7.445 -2.3322 -0.1628  0.0599
   70CHL1    C9 7623   2.552   0.734   7.411  0.4543 -0.3393  1.0218
   70CHL1    H9 7624   2.656   0.762   7.384  0.2375 -1.7897 -1.4089
   70CHL1   C10 7625   2.483   0.714   7.284 -0.4643 -0.7390  0.0785
   70CHL1   C19 7626   2.339   0.671   7.306  0.7924 -0.3185  0.2284
   70CHL1  H19A 7627   2.293   0.636   7.211  0.1916 -1.0581  0.7819
   70CHL1  H19B 7628   2.334   0.595   7.388 -3.1466  1.6385  1.9647
   70CHL1  H19C 7629   2.295   0.769   7.336  0.0194 -0.9582  1.2456
   70CHL1    C1 7630   2.494   0.836   7.189 -0.3311 -0.4256 -0.3453
   70CHL1   H1A 7631   2.418   0.904   7.234 -0.2976 -2.3597  2.7516
   70CHL1   H1B 7632   2.592   0.889   7.200 -0.0772 -1.2389  1.5917
   70CHL1    C2 7633   2.447   0.805   7.046 -0.6668  0.1016  0.2971
   70CHL1   H2A 7634   2.474   0.890   6.980  1.0088  0.4840  1.4462
   70CHL1   H2B 7635   2.337   0.786   7.045 -0.6482  0.0582 -0.5178
   70CHL1   C20 7636   2.586   0.796   7.969 -0.5696  0.1958 -0.0050
   70CHL1   H20 7637   2.497   0.739   8.005  1.7178 -0.7721  4.5331
   70CHL1   C21 7638   2.541   0.942   7.957 -0.0006  0.1254 -0.1944
   70CHL1  H21A 7639   2.458   0.955   7.884  0.1377  0.2745 -0.3256
   70CHL1  H21B 7640   2.629   1.002   7.925 -0.4917  0.0880 -1.6750
   70CHL1  H21C 7641   2.512   0.973   8.060 -0.7931  0.2060 -0.4319
   70CHL1   C22 7642   2.687   0.779   8.094 -0.3482  0.3668  0.0168
   70CHL1  H22A 7643   2.650   0.834   8.182  0.5632 -0.5597  0.9921
   70CHL1  H22B 7644   2.713   0.673   8.117  1.6769  0.5027 -1.5023
   70CHL1   C23 7645   2.821   0.847   8.067  0.3807 -0.0078  0.1156
   70CHL1  H23A 7646   2.862   0.805   7.973 -0.3619 -2.6915  0.9395
   70CHL1  H23B 7647   2.795   0.954   8.052  0.9579  0.4614  2.2517
   70CHL1   C24 7648   2.920   0.834   8.177  0.5338  0.0700 -0.2059
   70CHL1  H24A 7649   2.915   0.731   8.218  2.8922 -0.1170 -0.3731
   70CHL1  H24B 7650   3.021   0.868   8.146  1.3749 -1.8406  0.3866
   70CHL1   C25 7651   2.893   0.941   8.288 -0.0447 -0.6008  0.4189
   70CHL1   H25 7652   2.783   0.938   8.300 -0.1269  1.3061  0.4077
   70CHL1   C26 7653   2.967   0.897   8.413 -0.0509  0.6623  0.0475
   70CHL1  H26A 7654   2.955   0.788   8.428 -0.4066  0.6769 -0.1314
   70CHL1  H26B 7655   3.073   0.919   8.388  0.2810  0.3719  1.1515
   70CHL1  H26C 7656   2.936   0.957   8.502 -2.5228  1.1503 -1.1007
   70CHL1   C27 7657   2.924   1.084   8.254 -0.3232  0.5774 -0.2761
   70CHL1  H27A 7658   2.870   1.151   8.324  1.0190  1.2927  0.1092
   70CHL1  H27B 7659   3.033   1.109   8.257 -0.8993  3.0922  0.7805
   70CHL1  H27C 7660   2.890   1.113   8.152 -0.5126 -2.3660 -1.0835
   71CHL1    C3 7661   1.739   2.803   6.907  0.7097 -0.3754 -0.1647
   71CHL1    H3 7662   1.703   2.903   6.940 -1.1327 -1.8250  2.4068
   71CHL1    O3 7663   1.714   2.781   6.770  0.4323 -0.1644  0.0790
   71CHL1   H3' 7664   1.708   2.686   6.767 -1.2219 -0.1020  0.4370
   71CHL1    C4 7665   1.884   2.771   6.938 -1.0211 -0.3073  0.1170
   71CHL1   H4A 7666   1.914   2.675   6.891 -1.3586  0.1610 -1.0561
   71CHL1   H4B 7667   1.938   2.852   6.886  0.9339 -0.5905  1.6300
   71CHL1    C5 7668   1.908   2.760   7.089  0.2564 -0.6433 -0.1190
   71CHL1    C6 7669   1.984   2.849   7.153 -1.0258 -0.4284 -0.5812
   71CHL1    H6 7670   2.042   2.923   7.094 -1.9265 -0.1789 -1.1564
   71CHL1    C7 7671   2.011   2.845   7.306 -0.0843 -0.1388 -0.1180
   71CHL1   H7A 7672   2.118   2.867   7.322 -0.1594  0.2952 -0.1964
   71CHL1   H7B 7673   1.952   2.928   7.351  0.5808 -1.1908  2.7706
   71CHL1    C8 7674   1.962   2.719   7.368  0.2077  0.4349  0.6282
   71CHL1    H8 7675   2.038   2.643   7.339  1.4303  1.1245  1.9011
   71CHL1   C14 7676   1.962   2.736   7.521  0.6070 -0.0001 -0.1884
   71CHL1   H14 7677   1.885   2.813   7.540 -1.7316 -2.6473  1.4102
   71CHL1   C15 7678   2.093   2.788   7.582  0.3295 -0.1199 -0.5667
   71CHL1  H15A 7679   2.185   2.733   7.555  0.8701  1.1760 -1.3740
   71CHL1  H15B 7680   2.098   2.898   7.570  0.7829  0.1600  1.9233
   71CHL1   C16 7681   2.070   2.752   7.729 -0.4064 -0.0937  0.4653
   71CHL1  H16A 7682   2.170   2.709   7.753 -0.2164 -0.1074 -0.3633
   71CHL1  H16B 7683   2.053   2.843   7.791 -1.3097 -0.9472  1.5010
   71CHL1   C17 7684   1.946   2.663   7.742 -0.1925  0.2382  0.2273
   71CHL1   H17 7685   1.869   2.737   7.772 -1.1839 -0.5721 -0.2890
   71CHL1   C13 7686   1.916   2.610   7.600  0.3053  0.2305 -0.9694
   71CHL1   C18 7687   2.003   2.488   7.569 -0.5204  0.0528 -0.0814
   71CHL1  H18A 7688   1.951   2.402   7.617  0.1833 -1.3426 -1.7585
   71CHL1  H18B 7689   2.010   2.484   7.458  1.5522  0.6133  0.0167
   71CHL1  H18C 7690   2.109   2.492   7.601 -1.4152 -3.7874  3.7159
   71CHL1   C12 7691   1.769   2.595   7.563 -0.4413 -0.0174  0.1740
   71CHL1  H12A 7692   1.719   2.514   7.621  1.3140  0.3985  2.3151
   71CHL1  H12B 7693   1.716   2.685   7.601 -0.9256 -0.8122  1.4274
   71CHL1   C11 7694   1.752   2.569   7.412  0.4431  0.4456 -0.0624
   71CHL1  H11A 7695   1.783   2.467   7.381  0.4109  0.4713 -0.1827
   71CHL1  H11B 7696   1.644   2.575   7.384  1.2953  2.3679 -3.2055
   71CHL1    C9 7697   1.825   2.684   7.319 -0.1498 -0.2909  0.3222
   71CHL1    H9 7698   1.768   2.778   7.334 -1.4981 -1.3240  1.8493
   71CHL1   C10 7699   1.816   2.662   7.167 -0.0341 -0.1675  0.4881
   71CHL1   C19 7700   1.844   2.513   7.129 -0.6813 -0.5349  0.1494
   71CHL1  H19A 7701   1.753   2.450   7.140 -0.3110 -0.7190  2.4413
   71CHL1  H19B 7702   1.883   2.503   7.026 -1.1299 -0.6938 -0.0015
   71CHL1  H19C 7703   1.920   2.472   7.200 -2.2499  0.3600  2.3944
   71CHL1    C1 7704   1.665   2.688   7.126  0.0652  0.6077 -0.4826
   71CHL1   H1A 7705   1.601   2.606   7.166 -0.8830  1.6805  0.2513
   71CHL1   H1B 7706   1.632   2.783   7.171  0.2191 -0.4607  1.9513
   71CHL1    C2 7707   1.646   2.698   6.977 -0.2641  0.2314  0.1094
   71CHL1   H2A 7708   1.541   2.727   6.958 -0.2635 -0.4374 -0.9194
   71CHL1   H2B 7709   1.671   2.599   6.933 -2.4143 -0.4417  0.3607
   71CHL1   C20 7710   1.944   2.560   7.858 -0.1128 -0.3508  0.1155
   71CHL1   H20 7711   1.993   2.466   7.826 -1.5953  0.2595 -4.3122
   71CHL1   C21 7712   1.797   2.509   7.887 -0.5239 -0.1574 -0.0071
   71CHL1  H21A 7713   1.759   2.443   7.806 -0.5378 -2.0815  1.5416
   71CHL1  H21B 7714   1.727   2.592   7.911 -0.1492 -0.4587  2.2268
   71CHL1  H21C 7715   1.785   2.440   7.973 -1.4794 -1.8704 -1.4805
   71CHL1   C22 7716   2.000   2.618   7.990 -0.1461  0.0197 -0.4989
   71CHL1  H22A 7717   2.105   2.648   7.971  0.8480 -1.5710  2.2293
   71CHL1  H22B 7718   1.949   2.708   8.031 -2.5519 -1.1826 -0.7269
   71CHL1   C23 7719   2.010   2.514   8.099  0.8605  0.9687 -0.8601
   71CHL1  H23A 7720   1.907   2.506   8.142  0.9020 -2.2814 -1.2464
   71CHL1  H23B 7721   2.051   2.416   8.067  2.2551  1.9869 -2.1828
   71CHL1   C24 7722   2.112   2.575   8.205 -0.0441 -0.1008  1.0331
   71CHL1  H24A 7723   2.215   2.542   8.179 -0.0325 -1.2232  2.4326
   71CHL1  H24B 7724   2.108   2.685   8.215 -0.5987 -0.0511  0.3003
   71CHL1   C25 7725   2.089   2.520   8.346 -0.2836  0.9456  0.5673
   71CHL1   H25 7726   1.980   2.534   8.361 -0.7515 -0.2129 -1.4671
   71CHL1   C26 7727   2.118   2.370   8.359  0.5277 -0.6944 -0.6496
   71CHL1  H26A 7728   2.228   2.362   8.356  0.5770  0.5359 -3.4594
   71CHL1  H26B 7729   2.084   2.319   8.452 -3.9195 -1.7157 -2.7081
   71CHL1  H26C 7730   2.074   2.321   8.270 -0.5599  0.9769 -1.0591
   71CHL1   C27 7731   2.164   2.601   8.454 -0.0816  0.3651  0.6596
   71CHL1  H27A 7732   2.147   2.565   8.558  0.6686  1.5256  1.2040
   71CHL1  H27B 7733   2.273   2.582   8.442  0.3302  2.8922 -0.0038
   71CHL1  H27C 7734   2.128   2.704   8.434 -0.7472 -0.4716 -2.6382
   72CHL1    C3 7735   2.475   1.291   7.082 -0.5357 -0.3351 -0.2363
   72CHL1    H3 7736   2.392   1.365   7.079 -0.5870 -0.3977 -0.3378
   72CHL1    O3 7737   2.482   1.229   6.952  0.0754 -0.2996  0.0603
   72CHL1   H3' 7738   2.396   1.203   6.917  1.0955 -0.5037 -2.4288
   72CHL1    C4 7739   2.605   1.353   7.126  0.1194 -0.0201 -0.5549
   72CHL1   H4A 7740   2.686   1.283   7.097  0.5767 -0.1734  1.0688
   72CHL1   H4B 7741   2.612   1.439   7.056 -0.8017 -0.1530 -0.8220
   72CHL1    C5 7742   2.627   1.389   7.270  1.0453  0.0548 -0.3907
   72CHL1    C6 7743   2.667   1.510   7.304  0.1816  0.3202  0.5680
   72CHL1    H6 7744   2.699   1.580   7.225 -1.3544 -1.2469 -1.4922
   72CHL1    C7 7745   2.690   1.554   7.446 -0.6393 -0.6373 -1.1180
   72CHL1   H7A 7746   2.774   1.626   7.455 -0.5652 -0.9588  0.9662
   72CHL1   H7B 7747   2.599   1.613   7.469  0.7289  1.4562 -0.9905
   72CHL1    C8 7748   2.700   1.436   7.548 -0.7915  0.0726 -0.4790
   72CHL1    H8 7749   2.802   1.395   7.535 -0.8660 -0.3288  0.2023
   72CHL1   C14 7750   2.673   1.488   7.687 -0.3600 -0.8447 -0.2894
   72CHL1   H14 7751   2.568   1.525   7.694  0.8236  2.2997  2.3290
   72CHL1   C15 7752   2.762   1.607   7.734  0.2503 -0.3168  0.1789
   72CHL1  H15A 7753   2.865   1.592   7.696  0.1901  0.4125 -0.2619
   72CHL1  H15B 7754   2.742   1.704   7.684 -2.2775 -1.3398 -0.9073
   72CHL1   C16 7755   2.753   1.599   7.886  1.0229 -0.5382 -0.2990
   72CHL1  H16A 7756   2.852   1.605   7.936  1.1327  0.3620 -0.6033
   72CHL1  H16B 7757   2.692   1.681   7.931 -0.5087 -1.2491 -1.0406
   72CHL1   C17 7758   2.675   1.469   7.922 -0.2531 -0.0650  0.9534
   72CHL1   H17 7759   2.569   1.504   7.924  0.4180  2.1242  0.0441
   72CHL1   C13 7760   2.688   1.379   7.796  0.7850  0.1306  0.2848
   72CHL1   C18 7761   2.833   1.324   7.799 -0.3212 -0.3864 -0.0191
   72CHL1  H18A 7762   2.845   1.237   7.867  0.0664  0.5765  1.1726
   72CHL1  H18B 7763   2.867   1.297   7.697  0.9082 -0.2659  0.3509
   72CHL1  H18C 7764   2.911   1.397   7.831  0.4942 -0.7537 -1.1399
   72CHL1   C12 7765   2.570   1.272   7.770 -0.4732 -0.1832  0.4716
   72CHL1  H12A 7766   2.585   1.189   7.843 -0.1254 -0.6700 -0.1527
   72CHL1  H12B 7767   2.471   1.319   7.784 -0.3929 -0.4821  2.2631
   72CHL1   C11 7768   2.581   1.214   7.633  0.6805 -0.4111  0.5443
   72CHL1  H11A 7769   2.671   1.149   7.640  1.2607  0.0604 -2.0159
   72CHL1  H11B 7770   2.497   1.146   7.609  0.4746 -0.2199  0.7203
   72CHL1    C9 7771   2.593   1.329   7.521 -0.3741 -0.2437 -0.3765
   72CHL1    H9 7772   2.496   1.380   7.539 -0.1917 -0.5178  1.5368
   72CHL1   C10 7773   2.598   1.280   7.374  0.7804 -0.0855  0.0401
   72CHL1   C19 7774   2.711   1.168   7.361 -0.5135 -0.7117 -0.5708
   72CHL1  H19A 7775   2.692   1.078   7.423  1.6699  0.2065  1.5211
   72CHL1  H19B 7776   2.714   1.139   7.254 -1.1389 -0.4759 -0.6568
   72CHL1  H19C 7777   2.814   1.208   7.378 -0.6131 -0.7690  0.1922
   72CHL1    C1 7778   2.463   1.220   7.328  0.1512  0.2266 -0.1006
   72CHL1   H1A 7779   2.450   1.135   7.398  2.1769 -0.3086 -0.3383
   72CHL1   H1B 7780   2.386   1.298   7.345  0.5519  0.4809  0.5531
   72CHL1    C2 7781   2.453   1.177   7.183  0.1006 -0.1923  0.4778
   72CHL1   H2A 7782   2.365   1.112   7.163 -1.4192  1.6409  1.0853
   72CHL1   H2B 7783   2.526   1.095   7.167 -2.8204 -2.4922 -1.8013
   72CHL1   C20 7784   2.706   1.410   8.061 -0.0784 -0.2748 -0.3321
   72CHL1   H20 7785   2.802   1.354   8.071  0.4810  1.0891  2.4989
   72CHL1   C21 7786   2.617   1.294   8.094 -0.6652  0.3591  0.2175
   72CHL1  H21A 7787   2.635   1.269   8.201  0.3872 -1.0642 -0.2734
   72CHL1  H21B 7788   2.639   1.205   8.031 -0.3972  1.0204 -0.6440
   72CHL1  H21C 7789   2.508   1.314   8.091 -0.8391 -0.7520 -2.1474
   72CHL1   C22 7790   2.700   1.517   8.172  0.4051 -0.2917 -0.0125
   72CHL1  H22A 7791   2.741   1.615   8.142  0.0588 -0.3986 -0.8319
   72CHL1  H22B 7792   2.601   1.538   8.218  0.8251  0.3259  0.6294
   72CHL1   C23 7793   2.796   1.472   8.282 -0.1924 -0.0361  0.5313
   72CHL1  H23A 7794   2.787   1.368   8.320 -1.2502 -0.0011  0.3933
   72CHL1  H23B 7795   2.894   1.462   8.231 -0.5088 -1.1291  0.1243
   72CHL1   C24 7796   2.784   1.575   8.393  0.2404  0.4911 -0.0325
   72CHL1  H24A 7797   2.851   1.656   8.357  1.5573 -0.4007  0.3407
   72CHL1  H24B 7798   2.679   1.609   8.404  0.8681  2.5479 -0.2852
   72CHL1   C25 7799   2.858   1.530   8.528  0.0049 -0.3701  0.5597
   72CHL1   H25 7800   2.964   1.507   8.507 -0.0659 -1.3305  1.2121
   72CHL1   C26 7801   2.843   1.639   8.631  0.5223  0.3228  0.3245
   72CHL1  H26A 7802   2.736   1.654   8.658  0.3680 -0.0663 -0.0541
   72CHL1  H26B 7803   2.916   1.613   8.710 -0.4356  1.5592  1.6682
   72CHL1  H26C 7804   2.891   1.730   8.589  0.7810 -0.4093 -0.9931
   72CHL1   C27 7805   2.800   1.394   8.583  0.5548 -0.2359  0.5456
   72CHL1  H27A 7806   2.693   1.375   8.559  0.4283  1.0171  0.0476
   72CHL1  H27B 7807   2.868   1.312   8.550  1.8547  1.1686 -0.3226
   72CHL1  H27C 7808   2.796   1.399   8.694 -2.8940  2.1172  0.3868
   73CHL1    C3 7809   1.657   4.398   6.967  0.0666  0.0543  0.1183
   73CHL1    H3 7810   1.685   4.492   7.019 -2.2701 -0.2430  1.9874
   73CHL1    O3 7811   1.637   4.408   6.829  0.1079 -0.0738 -0.1529
   73CHL1   H3' 7812   1.604   4.498   6.826 -0.8825 -0.3730  1.6529
   73CHL1    C4 7813   1.761   4.295   7.017 -0.0938  0.8340 -0.3610
   73CHL1   H4A 7814   1.744   4.203   6.957  0.9043  1.0674 -1.0085
   73CHL1   H4B 7815   1.850   4.351   6.982  1.4334 -1.7468 -0.7014
   73CHL1    C5 7816   1.780   4.265   7.164  0.0331 -0.2843  0.2092
   73CHL1    C6 7817   1.890   4.297   7.233 -0.4451 -0.5309 -0.7146
   73CHL1    H6 7818   1.978   4.344   7.186 -0.2340 -1.1049 -0.9054
   73CHL1    C7 7819   1.904   4.257   7.381  0.3727  0.8847 -0.9419
   73CHL1   H7A 7820   1.995   4.196   7.401  2.3347  3.3751 -1.9799
   73CHL1   H7B 7821   1.931   4.346   7.442 -0.9546 -0.8517  2.2912
   73CHL1    C8 7822   1.789   4.174   7.440  0.0657  0.4069 -0.6469
   73CHL1    H8 7823   1.824   4.073   7.409 -1.9523 -0.8955  1.1649
   73CHL1   C14 7824   1.786   4.181   7.595 -0.1309 -0.8934  0.3843
   73CHL1   H14 7825   1.759   4.288   7.606  0.8604 -0.5027 -0.8250
   73CHL1   C15 7826   1.917   4.163   7.675 -0.5117 -0.3571  0.0040
   73CHL1  H15A 7827   1.972   4.074   7.638 -0.8406 -0.3442 -0.5168
   73CHL1  H15B 7828   1.998   4.239   7.673  1.6389 -2.5755  0.6730
   73CHL1   C16 7829   1.864   4.129   7.817 -0.4857 -0.4281  0.1441
   73CHL1  H16A 7830   1.918   4.047   7.869 -1.2597  1.1396  3.5319
   73CHL1  H16B 7831   1.880   4.220   7.879  0.8664 -1.1589  0.8853
   73CHL1   C17 7832   1.708   4.103   7.808 -0.0673  0.9368  0.2998
   73CHL1   H17 7833   1.662   4.201   7.835 -0.2351  0.7036  0.8617
   73CHL1   C13 7834   1.681   4.088   7.657 -0.1912 -0.9169 -0.2256
   73CHL1   C18 7835   1.700   3.936   7.622  0.2349 -0.4807 -0.3799
   73CHL1  H18A 7836   1.625   3.875   7.677 -1.1982  0.2631 -1.4626
   73CHL1  H18B 7837   1.700   3.911   7.513  0.9066 -1.7331 -0.0975
   73CHL1  H18C 7838   1.802   3.915   7.660 -0.6644 -1.3248  1.5873
   73CHL1   C12 7839   1.541   4.136   7.611 -0.2011 -0.2924  0.0385
   73CHL1  H12A 7840   1.469   4.070   7.663  0.7486 -1.3194  0.0699
   73CHL1  H12B 7841   1.528   4.241   7.644  0.6947 -0.8824  2.3434
   73CHL1   C11 7842   1.536   4.130   7.456 -0.0314 -0.4662  0.1492
   73CHL1  H11A 7843   1.546   4.025   7.422  2.2018 -0.9414  2.1532
   73CHL1  H11B 7844   1.439   4.160   7.410 -0.0003  0.4533  0.6758
   73CHL1    C9 7845   1.651   4.214   7.384  0.7122 -0.2684 -0.3416
   73CHL1    H9 7846   1.637   4.317   7.423  0.4307 -0.1293 -0.7958
   73CHL1   C10 7847   1.651   4.205   7.227  0.2334 -0.2121 -0.4749
   73CHL1   C19 7848   1.624   4.058   7.184  0.1255 -0.7429  0.2840
   73CHL1  H19A 7849   1.541   4.003   7.233 -0.0319 -0.2879  0.5303
   73CHL1  H19B 7850   1.603   4.064   7.075 -0.7304 -1.8223  0.3793
   73CHL1  H19C 7851   1.713   3.993   7.195  0.5319 -0.2685 -0.2098
   73CHL1    C1 7852   1.538   4.303   7.178  0.1242  0.4513 -0.2808
   73CHL1   H1A 7853   1.441   4.260   7.211  0.3835 -0.2725 -0.4488
   73CHL1   H1B 7854   1.551   4.400   7.231 -1.5863  0.2380  0.5986
   73CHL1    C2 7855   1.522   4.353   7.032 -1.0399 -0.7675 -0.4924
   73CHL1   H2A 7856   1.447   4.434   7.032 -0.5483 -0.3073 -1.1773
   73CHL1   H2B 7857   1.492   4.269   6.966 -0.1389 -1.4271 -0.0749
   73CHL1   C20 7858   1.667   3.993   7.909  0.5205 -0.2348 -0.0154
   73CHL1   H20 7859   1.704   3.891   7.885  1.2207 -0.3745  1.6262
   73CHL1   C21 7860   1.511   3.979   7.907 -0.0768 -0.0497 -0.1500
   73CHL1  H21A 7861   1.475   3.926   7.817  1.2438 -1.2539  0.0180
   73CHL1  H21B 7862   1.464   4.080   7.914 -2.0771 -0.9989  0.6581
   73CHL1  H21C 7863   1.478   3.907   7.985  2.7564  0.1908  1.3650
   73CHL1   C22 7864   1.704   4.020   8.059  0.3896  0.9404 -0.4216
   73CHL1  H22A 7865   1.814   4.029   8.053  0.3241  1.9120 -0.2502
   73CHL1  H22B 7866   1.665   4.121   8.083 -2.1037 -0.7295  3.0314
   73CHL1   C23 7867   1.678   3.928   8.181 -0.6098  0.5474 -0.2733
   73CHL1  H23A 7868   1.571   3.927   8.211 -0.5784 -1.4509 -0.1371
   73CHL1  H23B 7869   1.703   3.824   8.150 -0.7867  0.6670 -0.8133
   73CHL1   C24 7870   1.744   3.967   8.316  0.1863  0.3290  0.4945
   73CHL1  H24A 7871   1.707   4.068   8.345 -0.0355  0.9699 -1.9137
   73CHL1  H24B 7872   1.717   3.893   8.394 -0.8547  0.7896  0.5751
   73CHL1   C25 7873   1.896   3.958   8.320  0.4413  0.3194 -0.4632
   73CHL1   H25 7874   1.918   4.054   8.269  0.1855  0.2137 -0.7695
   73CHL1   C26 7875   1.961   3.977   8.462  0.1626  0.9928 -0.3287
   73CHL1  H26A 7876   1.973   3.877   8.508 -0.5249  0.7892 -0.5758
   73CHL1  H26B 7877   2.063   4.019   8.447  1.0888 -0.8342  0.6998
   73CHL1  H26C 7878   1.905   4.043   8.531  0.1225 -0.4113  1.0038
   73CHL1   C27 7879   1.960   3.840   8.237  0.3825 -0.4386 -0.1767
   73CHL1  H27A 7880   1.922   3.843   8.133  2.0403 -0.4857 -0.7889
   73CHL1  H27B 7881   2.071   3.844   8.244  0.3624 -1.0421  0.5384
   73CHL1  H27C 7882   1.933   3.746   8.290  3.2064 -0.6595  0.9604
   74CHL1    C3 7883   1.004   3.056   7.067  0.2339  0.3303  0.9232
   74CHL1    H3 7884   1.059   3.151   7.084 -0.0054  0.3225  1.7731
   74CHL1    O3 7885   0.958   3.076   6.934 -0.5467  0.5067 -0.5716
   74CHL1   H3' 7886   0.888   3.141   6.943  0.0402  0.8863  1.5931
   74CHL1    C4 7887   1.109   2.933   7.058  0.0631  0.1219  0.1451
   74CHL1   H4A 7888   1.051   2.856   7.002  0.7727  0.5577 -1.2220
   74CHL1   H4B 7889   1.191   2.976   6.997  2.1362 -1.3101  1.8619
   74CHL1    C5 7890   1.152   2.876   7.190 -0.0643  0.0747  0.0625
   74CHL1    C6 7891   1.284   2.859   7.206 -0.6499  0.8488 -0.5922
   74CHL1    H6 7892   1.357   2.894   7.132 -0.1350 -1.5251 -1.2260
   74CHL1    C7 7893   1.333   2.797   7.340  1.1099 -0.0521  0.4841
   74CHL1   H7A 7894   1.404   2.712   7.329  1.9794  0.7074  0.1592
   74CHL1   H7B 7895   1.393   2.881   7.380 -0.0311  1.2713 -0.5457
   74CHL1    C8 7896   1.231   2.754   7.449 -0.2921 -0.4882 -0.4685
   74CHL1    H8 7897   1.207   2.652   7.411 -0.8926 -0.5406  0.0444
   74CHL1   C14 7898   1.298   2.760   7.585 -0.1706  0.5637  0.0274
   74CHL1   H14 7899   1.320   2.867   7.602  1.4338  0.4946 -1.4877
   74CHL1   C15 7900   1.437   2.701   7.608 -0.2405 -0.6374 -0.5682
   74CHL1  H15A 7901   1.431   2.597   7.569 -0.9879 -0.0654 -2.0179
   74CHL1  H15B 7902   1.521   2.757   7.563  1.0606 -2.4695 -0.4924
   74CHL1   C16 7903   1.439   2.690   7.766 -0.1653 -0.2509 -0.4238
   74CHL1  H16A 7904   1.488   2.592   7.783 -0.0806  0.2412  2.4299
   74CHL1  H16B 7905   1.501   2.773   7.806 -2.0838  0.8359  0.3753
   74CHL1   C17 7906   1.295   2.715   7.819  0.3418 -0.0110 -0.4629
   74CHL1   H17 7907   1.288   2.823   7.844  0.2038 -0.1044 -0.0884
   74CHL1   C13 7908   1.202   2.708   7.692  0.0432 -0.3969 -0.0519
   74CHL1   C18 7909   1.160   2.561   7.678 -0.1996 -0.3427  1.0925
   74CHL1  H18A 7910   1.243   2.491   7.702  2.4194  2.1017 -0.4971
   74CHL1  H18B 7911   1.071   2.546   7.743 -0.5556  0.2653  0.7434
   74CHL1  H18C 7912   1.130   2.541   7.573  3.1328  1.9859 -0.4039
   74CHL1   C12 7913   1.079   2.796   7.693  0.0350 -0.6903  0.2810
   74CHL1  H12A 7914   1.017   2.749   7.772 -1.1953  0.2690 -0.1024
   74CHL1  H12B 7915   1.096   2.901   7.724  0.6542 -0.6285 -0.2731
   74CHL1   C11 7916   1.006   2.805   7.560  0.8745 -0.3434  0.3989
   74CHL1  H11A 7917   0.955   2.708   7.539 -0.7257  0.3458  0.9608
   74CHL1  H11B 7918   0.929   2.885   7.565  1.6380  0.4237  0.0535
   74CHL1    C9 7919   1.103   2.841   7.442 -0.2424 -0.5847  0.0851
   74CHL1    H9 7920   1.147   2.940   7.466 -1.1713 -0.1885  0.1570
   74CHL1   C10 7921   1.044   2.845   7.298  0.3735 -0.6044 -0.1326
   74CHL1   C19 7922   0.962   2.720   7.264 -0.6287 -0.2826 -0.0739
   74CHL1  H19A 7923   0.897   2.728   7.174 -2.2671 -2.2052  0.8889
   74CHL1  H19B 7924   1.015   2.623   7.274  1.4730  0.9938  1.4098
   74CHL1  H19C 7925   0.882   2.708   7.341  0.1933  0.1709  0.8537
   74CHL1    C1 7926   0.945   2.969   7.300 -0.4443  0.6784  0.0441
   74CHL1   H1A 7927   0.854   2.936   7.355  0.2700 -4.0926 -1.3700
   74CHL1   H1B 7928   0.994   3.057   7.347 -1.7981  1.1709  0.5524
   74CHL1    C2 7929   0.895   3.015   7.158  0.6341 -0.2061 -0.0500
   74CHL1   H2A 7930   0.816   3.090   7.177  1.1655 -0.2194  2.3622
   74CHL1   H2B 7931   0.843   2.927   7.114  1.2553 -1.5841  1.8789
   74CHL1   C20 7932   1.257   2.634   7.941  0.4847  0.0524 -0.4398
   74CHL1   H20 7933   1.249   2.523   7.934  0.2445  0.0480 -0.1223
   74CHL1   C21 7934   1.118   2.678   7.997  0.2322 -0.2199  0.3257
   74CHL1  H21A 7935   1.115   2.633   8.098  1.9520 -1.3417 -0.1153
   74CHL1  H21B 7936   1.034   2.644   7.932  0.7611  2.7905 -2.0711
   74CHL1  H21C 7937   1.114   2.789   8.003 -0.9933 -0.1792 -0.7384
   74CHL1   C22 7938   1.366   2.652   8.051 -0.5122  0.2511  0.1537
   74CHL1  H22A 7939   1.443   2.729   8.030  1.5520 -2.2704 -1.9908
   74CHL1  H22B 7940   1.315   2.670   8.148  0.3969 -1.8794  1.0650
   74CHL1   C23 7941   1.439   2.521   8.076  0.0351  1.0754 -0.0148
   74CHL1  H23A 7942   1.369   2.440   8.107 -0.0168  1.2365  0.2862
   74CHL1  H23B 7943   1.475   2.491   7.975 -0.2425  1.0656 -0.1110
   74CHL1   C24 7944   1.561   2.517   8.169 -0.0236 -0.7379  0.0478
   74CHL1  H24A 7945   1.620   2.423   8.162  0.8019 -0.3596  1.6754
   74CHL1  H24B 7946   1.629   2.596   8.129  0.6901 -0.3783  1.9535
   74CHL1   C25 7947   1.527   2.550   8.314 -0.0817  0.2368 -0.4006
   74CHL1   H25 7948   1.482   2.651   8.323  3.4491  1.7799  0.9567
   74CHL1   C26 7949   1.427   2.449   8.375  0.0382  0.2630 -0.3297
   74CHL1  H26A 7950   1.406   2.457   8.484  2.4229  1.3211  0.0792
   74CHL1  H26B 7951   1.330   2.465   8.324  0.0967  2.2341  0.1265
   74CHL1  H26C 7952   1.477   2.350   8.367 -0.5306 -0.2254  1.7272
   74CHL1   C27 7953   1.649   2.556   8.403  0.3757 -0.2736  1.4211
   74CHL1  H27A 7954   1.641   2.588   8.509 -0.1750 -0.8689  1.5581
   74CHL1  H27B 7955   1.695   2.455   8.402  1.2387  0.1207  0.6185
   74CHL1  H27C 7956   1.728   2.618   8.355  0.7343 -1.7750  0.0433
   75CHL1    C3 7957   4.186   4.536   6.683 -0.0244  0.1881 -0.3532
   75CHL1    H3 7958   4.161   4.642   6.708 -0.4752  0.2171 -0.9239
   75CHL1    O3 7959   4.192   4.531   6.541  0.1095  0.2885 -0.1319
   75CHL1   H3' 7960   4.128   4.598   6.517  0.7413  1.7156  1.9545
   75CHL1    C4 7961   4.330   4.514   6.746  0.0914  0.0513 -0.2435
   75CHL1   H4A 7962   4.360   4.409   6.725  0.9162 -0.2361  2.2316
   75CHL1   H4B 7963   4.405   4.582   6.703 -0.3480  1.9710  1.9460
   75CHL1    C5 7964   4.334   4.521   6.898  0.0858  0.0945 -0.3019
   75CHL1    C6 7965   4.420   4.602   6.959  0.2395 -0.8813 -0.6148
   75CHL1    H6 7966   4.479   4.661   6.889 -1.1029  1.1691 -0.0569
   75CHL1    C7 7967   4.422   4.610   7.107 -0.2722 -0.2595 -0.1149
   75CHL1   H7A 7968   4.526   4.600   7.147 -0.2161 -1.0240 -0.4358
   75CHL1   H7B 7969   4.382   4.711   7.129  0.5289 -0.0352  0.3543
   75CHL1    C8 7970   4.340   4.515   7.191 -0.2270  0.2214 -0.2155
   75CHL1    H8 7971   4.397   4.420   7.187  0.3878  0.5492  0.6635
   75CHL1   C14 7972   4.319   4.568   7.330  0.1718  0.3205 -0.1580
   75CHL1   H14 7973   4.242   4.647   7.316 -0.1781  0.4218  2.0246
   75CHL1   C15 7974   4.441   4.633   7.402  0.3499 -0.5184  0.1501
   75CHL1  H15A 7975   4.532   4.569   7.408  0.1018 -0.7636  1.3126
   75CHL1  H15B 7976   4.469   4.736   7.372  1.2483 -0.4619  1.1558
   75CHL1   C16 7977   4.385   4.642   7.546 -0.5244 -0.0085  0.1710
   75CHL1  H16A 7978   4.454   4.586   7.612  1.2835 -2.0413 -3.3683
   75CHL1  H16B 7979   4.366   4.745   7.584 -0.4024  0.4735 -1.0739
   75CHL1   C17 7980   4.261   4.548   7.558  0.5522 -0.4546  0.6820
   75CHL1   H17 7981   4.179   4.623   7.558 -0.8557 -1.9270 -2.1613
   75CHL1   C13 7982   4.253   4.469   7.421 -0.7053  0.4428 -0.3982
   75CHL1   C18 7983   4.335   4.333   7.424 -0.2349  0.4011  0.2612
   75CHL1  H18A 7984   4.329   4.292   7.320  1.4628 -0.5878  0.5238
   75CHL1  H18B 7985   4.441   4.356   7.444 -0.0319 -0.2871  0.0130
   75CHL1  H18C 7986   4.288   4.248   7.478 -1.3029  0.1469 -1.0190
   75CHL1   C12 7987   4.106   4.459   7.359 -1.2686 -0.3111 -0.3588
   75CHL1  H12A 7988   4.046   4.388   7.420  1.4164 -1.7584  0.6773
   75CHL1  H12B 7989   4.067   4.563   7.354 -2.9185 -0.6420  3.8503
   75CHL1   C11 7990   4.109   4.410   7.214 -0.6163 -0.0841 -0.6127
   75CHL1  H11A 7991   4.137   4.302   7.212 -3.5742 -0.8969 -0.3489
   75CHL1  H11B 7992   4.010   4.430   7.166  0.0928  0.1015 -2.0238
   75CHL1    C9 7993   4.205   4.493   7.121  0.5948  0.8097  0.6628
   75CHL1    H9 7994   4.152   4.590   7.120  0.6804  0.8883  2.1888
   75CHL1   C10 7995   4.225   4.441   6.970  0.0637 -0.3366 -0.6436
   75CHL1   C19 7996   4.262   4.282   6.969 -0.0491  0.8194  0.5276
   75CHL1  H19A 7997   4.255   4.236   6.868  1.0782  0.1152  0.7650
   75CHL1  H19B 7998   4.360   4.268   7.020  0.4850  0.6742 -0.5203
   75CHL1  H19C 7999   4.176   4.234   7.020  0.6883 -0.9665  0.1369
   75CHL1    C1 8000   4.092   4.465   6.894 -0.1513 -0.1670 -0.5621
   75CHL1   H1A 8001   4.020   4.391   6.935 -2.7060  0.4718 -3.6937
   75CHL1   H1B 8002   4.054   4.565   6.924 -1.9051 -0.8462 -0.4741
   75CHL1    C2 8003   4.085   4.445   6.737  0.2582 -0.6391  0.0191
   75CHL1   H2A 8004   3.978   4.453   6.711  0.1212 -2.1315  0.0701
   75CHL1   H2B 8005   4.107   4.343   6.698 -0.2951 -1.8188  2.6330
   75CHL1   C20 8006   4.244   4.454   7.672 -0.1768 -0.2044 -0.6003
   75CHL1   H20 8007   4.314   4.367   7.667 -0.6641 -0.5683 -1.1388
   75CHL1   C21 8008   4.105   4.397   7.667 -0.1731  0.6563 -0.3761
   75CHL1  H21A 8009   4.020   4.463   7.641 -0.1191 -0.2154 -2.8691
   75CHL1  H21B 8010   4.066   4.351   7.761 -0.6675  1.5164 -0.1532
   75CHL1  H21C 8011   4.110   4.313   7.595  0.2203 -0.2016  0.6358
   75CHL1   C22 8012   4.262   4.522   7.810 -0.7082  0.8743  0.0653
   75CHL1  H22A 8013   4.265   4.459   7.901  0.5146  1.5795  0.5309
   75CHL1  H22B 8014   4.366   4.562   7.815  0.4826 -2.1675  1.0293
   75CHL1   C23 8015   4.170   4.640   7.844  0.0608 -0.3973  0.4625
   75CHL1  H23A 8016   4.173   4.723   7.770 -0.2817 -1.3838 -0.6696
   75CHL1  H23B 8017   4.071   4.593   7.830 -0.3311  1.1079 -2.1921
   75CHL1   C24 8018   4.192   4.690   7.986 -0.0622 -0.7983 -0.1195
   75CHL1  H24A 8019   4.110   4.761   8.009  0.3809 -0.3576  0.1032
   75CHL1  H24B 8020   4.179   4.604   8.055  0.6582 -0.2447  0.7244
   75CHL1   C25 8021   4.326   4.751   8.023  0.2596  0.1875  0.8323
   75CHL1   H25 8022   4.406   4.679   7.993 -1.4409 -0.8851 -1.3004
   75CHL1   C26 8023   4.355   4.873   7.932 -0.1639  0.5435  0.2359
   75CHL1  H26A 8024   4.267   4.940   7.923 -0.8981 -0.2379  1.6151
   75CHL1  H26B 8025   4.444   4.920   7.978  0.7327 -2.6409  1.8805
   75CHL1  H26C 8026   4.387   4.840   7.830  1.5008 -1.7310  1.4407
   75CHL1   C27 8027   4.330   4.812   8.163  0.2718  0.0695 -0.0878
   75CHL1  H27A 8028   4.303   4.743   8.246 -0.2149 -0.7385 -0.9153
   75CHL1  H27B 8029   4.431   4.852   8.188 -0.0560  0.0144  1.4002
   75CHL1  H27C 8030   4.259   4.897   8.176 -1.5249 -1.1020 -2.0438
   76CHL1    C3 8031   1.292   6.213   7.239  0.0845 -0.3407 -0.3454
   76CHL1    H3 8032   1.397   6.181   7.222  0.2972  1.5787 -2.8123
   76CHL1    O3 8033   1.229   6.258   7.120 -0.0285 -0.2490  0.3754
   76CHL1   H3' 8034   1.230   6.176   7.070 -0.8203  0.9925 -1.7324
   76CHL1    C4 8035   1.213   6.096   7.307  0.3667 -0.7836 -0.5179
   76CHL1   H4A 8036   1.107   6.126   7.293  0.1582  0.4185  3.1253
   76CHL1   H4B 8037   1.227   5.998   7.256  3.8662 -0.0570 -1.1072
   76CHL1    C5 8038   1.225   6.079   7.453 -0.7953  0.5242  0.0704
   76CHL1    C6 8039   1.242   5.955   7.501 -0.0500  0.0998 -0.0858
   76CHL1    H6 8040   1.251   5.871   7.430 -4.1386 -2.6416  2.4338
   76CHL1    C7 8041   1.265   5.914   7.642 -0.4939  0.6863 -0.7774
   76CHL1   H7A 8042   1.201   5.828   7.670  0.8998  0.0397  0.5080
   76CHL1   H7B 8043   1.367   5.874   7.663 -1.6004 -1.7249  0.1633
   76CHL1    C8 8044   1.244   6.032   7.734 -0.1691  0.0850 -0.6677
   76CHL1    H8 8045   1.133   6.038   7.731 -0.1238  0.5283 -1.9180
   76CHL1   C14 8046   1.296   6.004   7.869 -0.2238 -0.0442  0.5508
   76CHL1   H14 8047   1.407   5.999   7.859 -0.2079  0.3097  0.5211
   76CHL1   C15 8048   1.265   5.864   7.933 -0.5640 -0.0110 -0.0461
   76CHL1  H15A 8049   1.156   5.844   7.925 -0.4794 -1.9780  2.9262
   76CHL1  H15B 8050   1.321   5.792   7.869  1.8321  2.8914 -1.3518
   76CHL1   C16 8051   1.311   5.889   8.076 -0.2172  0.3236 -0.0977
   76CHL1  H16A 8052   1.241   5.836   8.144  2.9828  0.1389  3.1908
   76CHL1  H16B 8053   1.412   5.844   8.090 -0.4024  0.6351  2.5089
   76CHL1   C17 8054   1.332   6.040   8.093 -0.2826  0.6555  0.0474
   76CHL1   H17 8055   1.440   6.058   8.077 -0.4704  2.3259  0.5638
   76CHL1   C13 8056   1.266   6.110   7.974  1.6069 -0.0520  0.4742
   76CHL1   C18 8057   1.114   6.120   7.993 -0.3747 -0.1632  0.3048
   76CHL1  H18A 8058   1.068   6.194   7.924  2.8450 -0.2253 -1.9979
   76CHL1  H18B 8059   1.058   6.026   7.972  3.4278 -2.0834 -1.6482
   76CHL1  H18C 8060   1.081   6.156   8.093  0.4669 -1.8894  1.2200
   76CHL1   C12 8061   1.338   6.237   7.924  0.5404 -0.3649  0.5798
   76CHL1  H12A 8062   1.313   6.314   8.001  3.2945  1.6961 -0.5056
   76CHL1  H12B 8063   1.446   6.212   7.928  0.6120  0.1678  2.4656
   76CHL1   C11 8064   1.291   6.278   7.785 -0.0944  0.3975  0.5675
   76CHL1  H11A 8065   1.182   6.295   7.796 -0.1675  0.3985 -0.1341
   76CHL1  H11B 8066   1.350   6.365   7.749 -0.6840  1.0942  1.2636
   76CHL1    C9 8067   1.300   6.164   7.678  0.0711  1.1887  0.6774
   76CHL1    H9 8068   1.409   6.154   7.661 -0.1403 -0.3825  0.1895
   76CHL1   C10 8069   1.239   6.199   7.546  0.6472  0.0876 -0.1940
   76CHL1   C19 8070   1.100   6.256   7.566  0.1861  0.2593 -0.0098
   76CHL1  H19A 8071   1.102   6.357   7.612 -4.1567  0.3997  0.1150
   76CHL1  H19B 8072   1.042   6.258   7.472 -1.8165  3.0079  1.2006
   76CHL1  H19C 8073   1.032   6.192   7.627 -0.1939  0.8838  0.2295
   76CHL1    C1 8074   1.329   6.297   7.470 -0.5964  0.0562 -0.4933
   76CHL1   H1A 8075   1.338   6.387   7.534  1.1944 -1.2998  1.2213
   76CHL1   H1B 8076   1.428   6.246   7.475 -0.0166  1.4168  3.1484
   76CHL1    C2 8077   1.294   6.340   7.328 -0.4858 -0.7234  0.6838
   76CHL1   H2A 8078   1.359   6.421   7.288 -0.3471  0.9849  4.2051
   76CHL1   H2B 8079   1.190   6.377   7.330 -0.1604  0.1410  3.2379
   76CHL1   C20 8080   1.309   6.087   8.243  0.6177 -0.1463  0.2181
   76CHL1   H20 8081   1.200   6.072   8.259  1.0124 -2.2565  1.0896
   76CHL1   C21 8082   1.348   6.237   8.249 -0.2385  0.3494  0.2568
   76CHL1  H21A 8083   1.440   6.266   8.195  0.2712 -0.6526  0.5767
   76CHL1  H21B 8084   1.368   6.278   8.351  3.6159 -1.9290  0.5255
   76CHL1  H21C 8085   1.266   6.298   8.206 -2.3291 -2.6467 -0.1130
   76CHL1   C22 8086   1.377   6.010   8.353 -0.1794 -0.1567  0.5026
   76CHL1  H22A 8087   1.354   5.902   8.339 -1.1206  0.2573 -1.2904
   76CHL1  H22B 8088   1.485   6.027   8.335 -0.2555  1.4612  1.4994
   76CHL1   C23 8089   1.336   6.040   8.497  0.1432  0.0503  0.3632
   76CHL1  H23A 8090   1.387   6.136   8.520  0.9475 -0.1536 -0.5425
   76CHL1  H23B 8091   1.228   6.046   8.522 -0.1877  2.1470 -1.4452
   76CHL1   C24 8092   1.407   5.931   8.584  0.1062 -0.6327  0.1277
   76CHL1  H24A 8093   1.353   5.843   8.542 -0.4554  0.3574 -1.2798
   76CHL1  H24B 8094   1.512   5.932   8.549  0.8072  4.1592  2.1151
   76CHL1   C25 8095   1.394   5.930   8.733  0.8738  0.9748  0.1950
   76CHL1   H25 8096   1.292   5.966   8.758  0.8424 -0.1506  1.6863
   76CHL1   C26 8097   1.405   5.785   8.783 -0.1700  0.2610 -0.4501
   76CHL1  H26A 8098   1.317   5.719   8.766  0.2133 -0.8213  1.6510
   76CHL1  H26B 8099   1.485   5.733   8.727  0.4268 -1.0346  1.5869
   76CHL1  H26C 8100   1.424   5.779   8.892 -1.5729 -0.5841 -0.2331
   76CHL1   C27 8101   1.492   6.028   8.798  0.1740  0.5158  0.2534
   76CHL1  H27A 8102   1.493   6.023   8.909  1.3777  1.7546  0.3033
   76CHL1  H27B 8103   1.595   6.024   8.759  0.5500  1.4070  1.1470
   76CHL1  H27C 8104   1.475   6.136   8.777  1.4334  0.6269 -0.2093
   77CHL1    C3 8105   1.773   4.942   6.982  0.3678  0.2293 -0.3609
   77CHL1    H3 8106   1.707   5.028   7.009  2.3920  1.7186 -0.0095
   77CHL1    O3 8107   1.805   4.964   6.845 -0.7749  0.2644  0.9642
   77CHL1   H3' 8108   1.836   4.882   6.807 -0.1988  0.7398  0.4097
   77CHL1    C4 8109   1.906   4.952   7.055  0.4979 -0.4393 -0.2653
   77CHL1   H4A 8110   1.976   4.876   7.015  1.0171 -0.0563 -0.0902
   77CHL1   H4B 8111   1.951   5.049   7.027  0.5875 -0.8184 -1.4626
   77CHL1    C5 8112   1.905   4.924   7.201  1.0045 -0.1190  0.1507
   77CHL1    C6 8113   1.949   5.003   7.297  0.8081 -0.3505  0.1634
   77CHL1    H6 8114   1.999   5.096   7.265 -1.9659  0.4339 -2.0452
   77CHL1    C7 8115   1.944   4.976   7.441  0.3255  1.0285  0.1571
   77CHL1   H7A 8116   2.038   4.996   7.498 -0.6160  1.3266  1.6312
   77CHL1   H7B 8117   1.859   5.038   7.476  0.5583  0.3412  2.0233
   77CHL1    C8 8118   1.898   4.828   7.478  0.6749  0.4090  0.4211
   77CHL1    H8 8119   1.989   4.766   7.462  1.3088  1.9245 -2.1114
   77CHL1   C14 8120   1.853   4.815   7.620 -0.3480  0.6382 -0.3480
   77CHL1   H14 8121   1.759   4.872   7.632 -0.1924  0.6416  0.9966
   77CHL1   C15 8122   1.961   4.862   7.726 -0.7263 -0.1894  0.1684
   77CHL1  H15A 8123   2.051   4.804   7.696  0.2911  0.7726  1.2744
   77CHL1  H15B 8124   1.984   4.970   7.720  1.3577 -0.6155 -0.1553
   77CHL1   C16 8125   1.896   4.808   7.851  0.3627 -0.2694  0.3509
   77CHL1  H16A 8126   1.973   4.767   7.920 -0.9735  1.1140  2.7445
   77CHL1  H16B 8127   1.848   4.890   7.910 -0.3678 -0.2697 -0.2455
   77CHL1   C17 8128   1.791   4.700   7.812 -0.4423  0.0571 -0.5770
   77CHL1   H17 8129   1.686   4.735   7.818 -0.3817 -0.1974  2.2450
   77CHL1   C13 8130   1.814   4.674   7.663  0.8471 -0.4640 -0.2643
   77CHL1   C18 8131   1.934   4.578   7.649  0.3743 -0.0438  0.1837
   77CHL1  H18A 8132   1.971   4.584   7.544 -0.5481 -2.5142 -0.3260
   77CHL1  H18B 8133   2.017   4.600   7.718  0.6387  0.8444 -0.4152
   77CHL1  H18C 8134   1.902   4.471   7.656  1.3343 -0.4591 -1.5387
   77CHL1   C12 8135   1.689   4.634   7.569 -0.6286  0.6114  0.2694
   77CHL1  H12A 8136   1.657   4.531   7.593  2.0167  0.2536  2.4942
   77CHL1  H12B 8137   1.605   4.705   7.586 -0.0941  0.9891  1.3703
   77CHL1   C11 8138   1.725   4.643   7.423  0.2237  0.3933 -0.7891
   77CHL1  H11A 8139   1.802   4.563   7.417 -0.0159 -0.0135  1.0401
   77CHL1  H11B 8140   1.635   4.619   7.364 -0.5737  0.8440  0.2254
   77CHL1    C9 8141   1.791   4.780   7.383 -0.6656 -0.1451 -0.8469
   77CHL1    H9 8142   1.714   4.857   7.404  1.7689  1.5724  2.4656
   77CHL1   C10 8143   1.834   4.790   7.239 -0.5209 -0.3159  0.5146
   77CHL1   C19 8144   1.930   4.681   7.209 -0.0498  0.2086  0.3721
   77CHL1  H19A 8145   1.955   4.683   7.100 -0.1175  3.0189  0.3823
   77CHL1  H19B 8146   2.026   4.691   7.263  0.7314  2.2394 -1.3322
   77CHL1  H19C 8147   1.898   4.578   7.237  0.0821 -0.0123 -0.2692
   77CHL1    C1 8148   1.700   4.789   7.151 -0.1645 -0.4477 -0.2975
   77CHL1   H1A 8149   1.651   4.689   7.160 -0.0724 -0.2466  3.2260
   77CHL1   H1B 8150   1.621   4.861   7.180  0.1309 -0.0657 -0.4483
   77CHL1    C2 8151   1.711   4.806   7.002 -0.1091 -0.4838 -0.8719
   77CHL1   H2A 8152   1.617   4.800   6.943 -0.8528  0.6408  0.1680
   77CHL1   H2B 8153   1.768   4.716   6.970 -0.4544 -0.2913 -2.0485
   77CHL1   C20 8154   1.794   4.586   7.916 -0.1680 -0.6072 -0.6403
   77CHL1   H20 8155   1.892   4.533   7.910 -0.7551 -1.7852 -0.1258
   77CHL1   C21 8156   1.679   4.494   7.879  0.0050  0.9454  0.0976
   77CHL1  H21A 8157   1.696   4.427   7.791 -1.9787  0.4970  0.0408
   77CHL1  H21B 8158   1.587   4.550   7.851 -1.8456 -2.4957 -0.9710
   77CHL1  H21C 8159   1.644   4.427   7.959  1.3145 -0.7553 -0.7116
   77CHL1   C22 8160   1.779   4.642   8.060  0.3811 -0.0270  0.3232
   77CHL1  H22A 8161   1.843   4.732   8.072  1.1927  0.1820 -4.3337
   77CHL1  H22B 8162   1.673   4.666   8.078 -1.2389 -4.5544 -2.1645
   77CHL1   C23 8163   1.820   4.540   8.166  0.6352  0.1325 -0.0355
   77CHL1  H23A 8164   1.752   4.452   8.163  0.5006  0.0869  2.7861
   77CHL1  H23B 8165   1.923   4.499   8.154  1.0368  1.0034  0.3695
   77CHL1   C24 8166   1.806   4.614   8.298  0.1368 -0.0864  0.4718
   77CHL1  H24A 8167   1.884   4.694   8.294 -0.1434  0.2565  1.6899
   77CHL1  H24B 8168   1.711   4.671   8.303  1.2160  1.9570 -1.2776
   77CHL1   C25 8169   1.829   4.538   8.427 -0.1938 -0.6332 -0.4253
   77CHL1   H25 8170   1.936   4.507   8.421 -0.7709 -2.5447 -1.0030
   77CHL1   C26 8171   1.810   4.635   8.553  0.4192  0.4376  0.1628
   77CHL1  H26A 8172   1.709   4.681   8.553 -1.1655 -2.6501 -4.8930
   77CHL1  H26B 8173   1.826   4.574   8.645 -2.5524 -0.8140 -0.1194
   77CHL1  H26C 8174   1.872   4.727   8.548  1.1891  0.0788  2.2675
   77CHL1   C27 8175   1.739   4.418   8.439  0.2405 -0.0859  0.1066
   77CHL1  H27A 8176   1.635   4.457   8.430 -1.0931 -2.9951  2.0385
   77CHL1  H27B 8177   1.753   4.340   8.360 -0.9229 -0.6720  0.4602
   77CHL1  H27C 8178   1.731   4.361   8.534 -1.2873  0.8015  0.5267
   78CHL1    C3 8179   4.093   6.241   6.787 -0.3517  0.8065  0.2938
   78CHL1    H3 8180   3.993   6.288   6.795  0.0937  1.6543  1.0796
   78CHL1    O3 8181   4.114   6.218   6.647 -0.0302 -0.5243 -0.4609
   78CHL1   H3' 8182   4.149   6.300   6.612 -4.0666  1.3446 -0.4333
   78CHL1    C4 8183   4.200   6.349   6.833 -0.5465  0.0689 -0.5272
   78CHL1   H4A 8184   4.300   6.326   6.792  0.0100 -1.5833  1.6856
   78CHL1   H4B 8185   4.162   6.445   6.791  0.1705  0.3517 -0.5275
   78CHL1    C5 8186   4.213   6.359   6.980 -0.2385 -0.3544 -0.3764
   78CHL1    C6 8187   4.215   6.479   7.040  0.3592  0.1025 -0.3561
   78CHL1    H6 8188   4.213   6.568   6.976  0.0606 -1.2391 -2.2638
   78CHL1    C7 8189   4.231   6.511   7.187  1.0619 -0.3588 -0.2570
   78CHL1   H7A 8190   4.302   6.596   7.196 -1.9559  2.0418  2.6317
   78CHL1   H7B 8191   4.136   6.546   7.233  0.4692 -1.7313 -0.4117
   78CHL1    C8 8192   4.276   6.386   7.261  0.3695 -0.7127  0.6847
   78CHL1    H8 8193   4.386   6.386   7.244  0.0455  1.5610 -1.7667
   78CHL1   C14 8194   4.250   6.398   7.412  0.1643  0.4054 -0.2548
   78CHL1   H14 8195   4.140   6.379   7.408  0.0672  0.8175  0.4252
   78CHL1   C15 8196   4.264   6.540   7.485 -0.6566  0.4555 -0.1022
   78CHL1  H15A 8197   4.355   6.589   7.445  1.0533 -1.2807  1.5849
   78CHL1  H15B 8198   4.189   6.619   7.462  0.0379  0.9673 -0.6469
   78CHL1   C16 8199   4.284   6.498   7.630  0.4315  0.8597  0.1521
   78CHL1  H16A 8200   4.388   6.524   7.660  0.5816  0.1513  0.2618
   78CHL1  H16B 8201   4.212   6.548   7.698  0.5301 -2.2786  2.6868
   78CHL1   C17 8202   4.274   6.336   7.632 -0.7618  0.0838 -0.0719
   78CHL1   H17 8203   4.164   6.318   7.629 -0.9345  1.3105 -1.3816
   78CHL1   C13 8204   4.320   6.287   7.494  0.1899  0.6777 -0.1184
   78CHL1   C18 8205   4.476   6.295   7.483  0.0252  0.1221  0.2605
   78CHL1  H18A 8206   4.508   6.279   7.377  1.7448  0.2154  0.7483
   78CHL1  H18B 8207   4.517   6.396   7.504  2.2278  0.4238 -4.6611
   78CHL1  H18C 8208   4.524   6.217   7.546  0.1486  0.5473  0.6918
   78CHL1   C12 8209   4.273   6.150   7.443 -1.0616 -0.0608  0.0611
   78CHL1  H12A 8210   4.343   6.073   7.482  0.9901  1.5689 -0.3241
   78CHL1  H12B 8211   4.167   6.130   7.467 -1.3131  0.1226 -0.8902
   78CHL1   C11 8212   4.276   6.136   7.289  0.4964 -0.0139  0.0895
   78CHL1  H11A 8213   4.385   6.131   7.268  0.6356  1.9337  0.2999
   78CHL1  H11B 8214   4.231   6.040   7.254 -0.8426  0.9034 -0.7416
   78CHL1    C9 8215   4.212   6.258   7.208  0.6643  0.8474  0.3655
   78CHL1    H9 8216   4.105   6.272   7.233  0.4412  2.6051 -1.4090
   78CHL1   C10 8217   4.221   6.229   7.058  0.0553  0.1858 -0.2271
   78CHL1   C19 8218   4.360   6.177   7.007  0.1137  0.0673  0.4480
   78CHL1  H19A 8219   4.441   6.246   7.038  0.7871 -0.0582 -0.9709
   78CHL1  H19B 8220   4.389   6.077   7.046  0.9231  0.4700  0.8735
   78CHL1  H19C 8221   4.349   6.157   6.898  0.6706 -4.0449  1.0555
   78CHL1    C1 8222   4.097   6.141   7.012 -0.2266  1.1546  0.6671
   78CHL1   H1A 8223   4.096   6.041   7.061  3.1627  0.0569 -1.3617
   78CHL1   H1B 8224   3.995   6.179   7.033 -1.3446 -0.8853 -0.7965
   78CHL1    C2 8225   4.097   6.112   6.853  0.0968 -0.2958  0.3603
   78CHL1   H2A 8226   4.005   6.054   6.833 -0.8349  1.2784  0.0340
   78CHL1   H2B 8227   4.184   6.045   6.833 -0.2168 -1.5702  2.9858
   78CHL1   C20 8228   4.336   6.275   7.758  0.1584 -0.1299 -0.3345
   78CHL1   H20 8229   4.439   6.316   7.758 -0.3650  1.3073  2.4330
   78CHL1   C21 8230   4.345   6.125   7.751  0.7487 -0.5160  0.3849
   78CHL1  H21A 8231   4.248   6.073   7.767  0.1319 -0.3316 -2.5905
   78CHL1  H21B 8232   4.416   6.084   7.826  0.5363 -2.7765 -0.6130
   78CHL1  H21C 8233   4.403   6.086   7.665 -0.1749  1.8651 -1.3477
   78CHL1   C22 8234   4.263   6.318   7.885  0.1485  0.3779  0.2303
   78CHL1  H22A 8235   4.265   6.429   7.890 -0.6117  0.3238  1.8849
   78CHL1  H22B 8236   4.166   6.264   7.879  0.8494 -0.9596  0.5554
   78CHL1   C23 8237   4.328   6.266   8.014 -0.1362  0.3927 -0.2051
   78CHL1  H23A 8238   4.306   6.157   8.017  0.2171  0.2902 -1.3037
   78CHL1  H23B 8239   4.438   6.277   8.013 -0.0214 -0.4876  1.2291
   78CHL1   C24 8240   4.272   6.344   8.131 -0.0808 -0.2315  0.5566
   78CHL1  H24A 8241   4.321   6.444   8.127  0.7607 -0.6377  0.4479
   78CHL1  H24B 8242   4.163   6.353   8.111  0.2801  0.3782 -1.2907
   78CHL1   C25 8243   4.297   6.273   8.268 -0.0327  0.3989  0.5114
   78CHL1   H25 8244   4.322   6.171   8.232 -0.7112 -0.0280  1.2223
   78CHL1   C26 8245   4.420   6.327   8.346  0.0725 -0.0522  0.8041
   78CHL1  H26A 8246   4.440   6.274   8.441  2.3976 -1.4525 -0.4343
   78CHL1  H26B 8247   4.515   6.324   8.289 -1.0565  1.0585 -1.2119
   78CHL1  H26C 8248   4.391   6.432   8.369 -0.1964 -0.3028  1.6106
   78CHL1   C27 8249   4.164   6.271   8.343 -0.3189 -0.0722 -0.4796
   78CHL1  H27A 8250   4.073   6.239   8.286 -1.5555  1.5168  0.5473
   78CHL1  H27B 8251   4.164   6.202   8.431 -0.3446 -2.6254 -2.4015
   78CHL1  H27C 8252   4.151   6.372   8.386 -1.2735  0.1035 -1.1535
   79CHL1    C3 8253   2.412   6.367   7.183 -0.3503  0.0030  0.2061
   79CHL1    H3 8254   2.372   6.470   7.199 -1.4422 -0.5220  0.9635
   79CHL1    O3 8255   2.427   6.341   7.040 -0.3554 -0.1163 -0.4536
   79CHL1   H3' 8256   2.480   6.260   7.040  2.3981  1.5617  2.5679
   79CHL1    C4 8257   2.548   6.357   7.257 -0.3574  0.3931  0.1834
   79CHL1   H4A 8258   2.596   6.264   7.221  0.4741  1.5187 -1.6846
   79CHL1   H4B 8259   2.617   6.431   7.212 -0.7662  1.2407  0.9366
   79CHL1    C5 8260   2.546   6.364   7.409  0.0623 -0.1055  0.5607
   79CHL1    C6 8261   2.612   6.455   7.484  0.6269  0.2419 -0.2529
   79CHL1    H6 8262   2.670   6.526   7.424 -0.3902 -0.3280 -1.9494
   79CHL1    C7 8263   2.613   6.465   7.634 -0.2323 -0.2741  0.4957
   79CHL1   H7A 8264   2.714   6.472   7.681  0.4686  1.1639 -1.1705
   79CHL1   H7B 8265   2.546   6.547   7.666 -3.0478 -2.3384  0.0895
   79CHL1    C8 8266   2.550   6.335   7.698  0.6795  0.1560  0.8887
   79CHL1    H8 8267   2.632   6.260   7.690 -0.4192 -1.0703  1.0088
   79CHL1   C14 8268   2.515   6.362   7.848  0.0586 -0.0534  0.3893
   79CHL1   H14 8269   2.432   6.435   7.855 -0.8444 -1.0081 -0.2044
   79CHL1   C15 8270   2.634   6.426   7.933 -0.2547 -0.2147 -0.9432
   79CHL1  H15A 8271   2.729   6.371   7.918  0.2779  0.1548  0.9874
   79CHL1  H15B 8272   2.635   6.536   7.920  0.0220 -0.0012  0.7859
   79CHL1   C16 8273   2.587   6.397   8.077 -1.1221  0.2086 -0.0883
   79CHL1  H16A 8274   2.670   6.350   8.133 -0.9129  0.4644 -0.1785
   79CHL1  H16B 8275   2.554   6.493   8.123 -0.4538  0.1747  0.4688
   79CHL1   C17 8276   2.463   6.292   8.065 -0.1233 -0.4654  0.5260
   79CHL1   H17 8277   2.372   6.356   8.065  2.0732  2.7491 -1.8000
   79CHL1   C13 8278   2.474   6.239   7.919 -0.4240 -0.4138  0.2467
   79CHL1   C18 8279   2.579   6.124   7.902 -0.3365  0.4799  0.5350
   79CHL1  H18A 8280   2.546   6.031   7.953  0.1358 -0.4639 -0.8568
   79CHL1  H18B 8281   2.601   6.103   7.795  0.0830 -1.4056  0.9738
   79CHL1  H18C 8282   2.670   6.167   7.948 -0.2172  0.8463 -0.0290
   79CHL1   C12 8283   2.343   6.191   7.858  1.0339  0.7437 -0.3798
   79CHL1  H12A 8284   2.311   6.094   7.902  2.1124  0.4223 -0.2851
   79CHL1  H12B 8285   2.264   6.267   7.869 -0.3965 -0.0127 -4.3854
   79CHL1   C11 8286   2.356   6.168   7.702  0.0826  0.5631 -0.5232
   79CHL1  H11A 8287   2.411   6.072   7.692  0.8295  0.7662  1.4350
   79CHL1  H11B 8288   2.253   6.164   7.661  0.9458 -0.6041 -2.6884
   79CHL1    C9 8289   2.426   6.284   7.626 -0.0896  0.5212  0.3000
   79CHL1    H9 8290   2.358   6.372   7.634  0.4965  0.8155  2.2824
   79CHL1   C10 8291   2.447   6.258   7.471 -0.6833 -0.3445  0.0522
   79CHL1   C19 8292   2.487   6.118   7.457 -1.1298  0.6451 -0.1006
   79CHL1  H19A 8293   2.572   6.080   7.518  1.3018  1.8502 -2.5951
   79CHL1  H19B 8294   2.404   6.045   7.463 -1.1259  0.5074 -1.6014
   79CHL1  H19C 8295   2.527   6.094   7.356  0.1539 -0.3556  0.6323
   79CHL1    C1 8296   2.307   6.286   7.406  0.1474  0.2130  0.4760
   79CHL1   H1A 8297   2.243   6.205   7.448 -0.2372  1.2062  1.8271
   79CHL1   H1B 8298   2.265   6.388   7.417  0.3738  0.2661  0.8704
   79CHL1    C2 8299   2.300   6.274   7.250 -0.1045 -0.0525 -0.5297
   79CHL1   H2A 8300   2.211   6.323   7.206 -0.3247  0.2943  0.3001
   79CHL1   H2B 8301   2.302   6.169   7.212 -0.3372 -0.2306 -0.0560
   79CHL1   C20 8302   2.469   6.192   8.177 -0.3198 -0.6839  0.2292
   79CHL1   H20 8303   2.570   6.147   8.167 -0.1296 -0.5871  1.6766
   79CHL1   C21 8304   2.369   6.076   8.163  0.2043 -0.5541 -0.5990
   79CHL1  H21A 8305   2.360   6.016   8.256  0.5836 -0.2391 -0.3576
   79CHL1  H21B 8306   2.393   6.007   8.080  0.2162  0.5267 -1.5015
   79CHL1  H21C 8307   2.264   6.108   8.145 -0.9902 -4.3746 -0.9411
   79CHL1   C22 8308   2.450   6.266   8.314  0.2953  0.5845  0.0966
   79CHL1  H22A 8309   2.501   6.365   8.325  0.0625  0.5336  1.6858
   79CHL1  H22B 8310   2.344   6.298   8.313 -0.4256 -1.7902 -0.2892
   79CHL1   C23 8311   2.477   6.188   8.442  0.1643  0.8330 -0.5042
   79CHL1  H23A 8312   2.408   6.103   8.459  1.7958  0.3899  4.6377
   79CHL1  H23B 8313   2.575   6.136   8.444 -0.8491 -1.1015  3.5083
   79CHL1   C24 8314   2.479   6.286   8.574 -0.1511  0.2082  0.2750
   79CHL1  H24A 8315   2.567   6.354   8.564 -0.6764  0.5651 -2.1818
   79CHL1  H24B 8316   2.384   6.342   8.568 -2.1621 -3.0232  0.3394
   79CHL1   C25 8317   2.497   6.206   8.708  1.1271 -0.3567  0.6035
   79CHL1   H25 8318   2.593   6.151   8.703  1.1039 -0.1768 -2.1065
   79CHL1   C26 8319   2.495   6.300   8.830 -0.2752  0.3893  0.4187
   79CHL1  H26A 8320   2.495   6.238   8.922  0.8901  1.5200  1.1980
   79CHL1  H26B 8321   2.584   6.367   8.828  0.3264 -0.3798 -2.9761
   79CHL1  H26C 8322   2.401   6.359   8.832  0.3190  1.3221  0.9648
   79CHL1   C27 8323   2.395   6.091   8.733 -0.2015  0.5077 -0.9878
   79CHL1  H27A 8324   2.298   6.145   8.730 -0.9480 -0.7928 -0.3680
   79CHL1  H27B 8325   2.403   6.013   8.654 -0.2758 -1.5428  0.9706
   79CHL1  H27C 8326   2.412   6.041   8.831  1.0626  0.4472 -1.2210
   80CHL1    C3 8327   0.606   3.515   7.183 -0.1773  0.8704 -0.5131
   80CHL1    H3 8328   0.707   3.509   7.137  0.0958 -1.2927  0.2998
   80CHL1    O3 8329   0.523   3.517   7.074  0.3713 -0.2909 -0.2716
   80CHL1   H3' 8330   0.434   3.525   7.107  0.3936 -2.2465  0.2729
   80CHL1    C4 8331   0.567   3.389   7.251  1.0981  0.1964  0.0337
   80CHL1   H4A 8332   0.457   3.397   7.264  0.7893 -2.0542 -0.9472
   80CHL1   H4B 8333   0.585   3.299   7.188 -1.6666 -1.4509  1.4751
   80CHL1    C5 8334   0.628   3.372   7.390 -0.6502 -0.1052 -0.1108
   80CHL1    C6 8335   0.692   3.255   7.424 -0.1239 -0.6717 -0.5316
   80CHL1    H6 8336   0.683   3.171   7.355 -1.5175  0.2651 -1.5110
   80CHL1    C7 8337   0.763   3.225   7.557 -0.0089  0.0455  0.0104
   80CHL1   H7A 8338   0.745   3.121   7.591  1.6990 -0.7469 -1.4614
   80CHL1   H7B 8339   0.870   3.235   7.529 -0.8976  0.3141 -3.4781
   80CHL1    C8 8340   0.719   3.331   7.666 -0.3707 -0.5356 -0.9688
   80CHL1    H8 8341   0.618   3.296   7.697  0.2068 -0.0386  1.5595
   80CHL1   C14 8342   0.818   3.316   7.780 -0.1332  0.1172 -0.2114
   80CHL1   H14 8343   0.917   3.353   7.748 -0.1278 -0.8106 -1.3169
   80CHL1   C15 8344   0.856   3.176   7.826 -0.0750  0.1982 -0.2801
   80CHL1  H15A 8345   0.764   3.115   7.812  1.4151 -1.9861 -0.8568
   80CHL1  H15B 8346   0.937   3.135   7.763  0.5851 -0.9749  1.2925
   80CHL1   C16 8347   0.894   3.196   7.975 -0.6337  0.7132  0.3810
   80CHL1  H16A 8348   0.812   3.149   8.034 -2.5527 -1.4946 -3.8086
   80CHL1  H16B 8349   0.993   3.152   7.998 -0.2390  1.4655  0.1205
   80CHL1   C17 8350   0.890   3.343   8.002  0.2228 -0.7421 -0.3380
   80CHL1   H17 8351   0.984   3.396   7.973  0.0912 -0.2473  0.1179
   80CHL1   C13 8352   0.780   3.397   7.903 -0.1677  0.3078 -0.4784
   80CHL1   C18 8353   0.632   3.363   7.942  0.3200 -0.2288 -0.0532
   80CHL1  H18A 8354   0.568   3.416   7.868 -2.0503 -2.5673  0.2342
   80CHL1  H18B 8355   0.615   3.254   7.925  0.5813 -0.1727 -0.6958
   80CHL1  H18C 8356   0.612   3.385   8.049 -1.0785  0.6366 -0.4776
   80CHL1   C12 8357   0.784   3.544   7.859 -1.2259 -0.1647 -0.4866
   80CHL1  H12A 8358   0.751   3.618   7.936 -1.3544 -0.2197 -0.4906
   80CHL1  H12B 8359   0.889   3.581   7.850 -1.6196  1.3554  0.9455
   80CHL1   C11 8360   0.708   3.583   7.729 -0.2749  0.1409 -0.4987
   80CHL1  H11A 8361   0.598   3.581   7.743 -0.1149  0.7914  0.9759
   80CHL1  H11B 8362   0.745   3.683   7.697  2.3235 -0.4219  0.5864
   80CHL1    C9 8363   0.728   3.476   7.615 -0.1858  0.3174 -0.9093
   80CHL1    H9 8364   0.832   3.476   7.576 -0.4629 -1.1166 -1.7148
   80CHL1   C10 8365   0.631   3.496   7.487 -0.1299 -0.6032  0.2756
   80CHL1   C19 8366   0.483   3.509   7.526  0.5513  0.8749  0.1386
   80CHL1  H19A 8367   0.469   3.422   7.593 -0.4162 -0.5848 -1.8954
   80CHL1  H19B 8368   0.472   3.605   7.580 -0.0079  0.6609  0.4040
   80CHL1  H19C 8369   0.416   3.517   7.437  1.5569  0.7359 -0.6488
   80CHL1    C1 8370   0.677   3.626   7.413 -0.0922 -0.4684  0.3756
   80CHL1   H1A 8371   0.662   3.717   7.475 -1.0239 -0.4199  0.0806
   80CHL1   H1B 8372   0.778   3.615   7.367  0.5336  0.7319  1.4137
   80CHL1    C2 8373   0.595   3.637   7.280  0.6334  0.0793 -0.1154
   80CHL1   H2A 8374   0.640   3.726   7.231 -0.0175  0.8048  0.5855
   80CHL1   H2B 8375   0.486   3.656   7.280  0.6250  0.4707  3.4167
   80CHL1   C20 8376   0.871   3.366   8.153  0.0101  0.6752  0.6494
   80CHL1   H20 8377   0.781   3.312   8.190 -1.5615  1.1924 -2.3196
   80CHL1   C21 8378   0.857   3.520   8.181  0.7153  0.0078  0.2233
   80CHL1  H21A 8379   0.814   3.535   8.282 -0.3986  0.0116 -0.2385
   80CHL1  H21B 8380   0.774   3.565   8.122 -0.5095 -1.6268  0.6816
   80CHL1  H21C 8381   0.950   3.581   8.170  1.0569 -0.6009 -0.3196
   80CHL1   C22 8382   0.990   3.301   8.224 -0.4664 -0.3750 -0.1073
   80CHL1  H22A 8383   1.000   3.191   8.214 -0.3130 -0.2067 -2.0014
   80CHL1  H22B 8384   1.085   3.341   8.183 -0.3803  0.4458  0.8745
   80CHL1   C23 8385   0.993   3.345   8.374  0.6234 -0.5790 -0.0390
   80CHL1  H23A 8386   1.005   3.455   8.381 -1.3395 -0.4150  0.9454
   80CHL1  H23B 8387   0.895   3.316   8.416  0.8063  0.2245  0.9611
   80CHL1   C24 8388   1.100   3.283   8.461 -0.2368 -0.5204 -0.1143
   80CHL1  H24A 8389   1.110   3.175   8.440  0.1208 -0.1242 -2.0991
   80CHL1  H24B 8390   1.191   3.336   8.425  0.1997 -2.6406 -2.2215
   80CHL1   C25 8391   1.084   3.311   8.610 -0.8584  1.0972 -0.8474
   80CHL1   H25 8392   1.048   3.415   8.619 -2.2701  0.5591 -0.1386
   80CHL1   C26 8393   0.986   3.218   8.678  0.5290  0.2190 -0.3924
   80CHL1  H26A 8394   1.029   3.118   8.702  1.0340 -0.1953 -2.8352
   80CHL1  H26B 8395   0.933   3.263   8.764 -1.4206 -0.2701 -1.2897
   80CHL1  H26C 8396   0.902   3.192   8.610 -0.0895  1.9966 -0.3205
   80CHL1   C27 8397   1.219   3.304   8.690 -0.2966  0.1755  0.1147
   80CHL1  H27A 8398   1.211   3.333   8.797  0.1684  2.3490 -0.4030
   80CHL1  H27B 8399   1.260   3.201   8.689 -0.4475  0.0841 -3.1351
   80CHL1  H27C 8400   1.288   3.368   8.631  0.2764 -2.4896 -2.1685
   81CHL1    C3 8401   5.639   3.357   6.739 -0.4156  0.4740 -0.0123
   81CHL1    H3 8402   5.735   3.408   6.765  1.4639 -2.3601 -1.0962
   81CHL1    O3 8403   5.661   3.273   6.628  0.1663 -0.3573  0.1487
   81CHL1   H3' 8404   5.578   3.256   6.583  0.0647 -0.0518  0.2179
   81CHL1    C4 8405   5.597   3.266   6.847  0.1147  0.2817 -0.6665
   81CHL1   H4A 8406   5.513   3.202   6.813  0.4299 -1.0078  0.8672
   81CHL1   H4B 8407   5.677   3.191   6.865 -1.1065 -0.5414  1.5243
   81CHL1    C5 8408   5.560   3.336   6.977 -0.5788 -0.2108 -0.7904
   81CHL1    C6 8409   5.618   3.306   7.089  0.0792  0.4390  0.4182
   81CHL1    H6 8410   5.697   3.229   7.091  0.4456  0.6544 -2.5009
   81CHL1    C7 8411   5.574   3.356   7.217  0.3646 -0.2821  0.7904
   81CHL1   H7A 8412   5.545   3.271   7.282 -0.3757 -0.3323  0.3972
   81CHL1   H7B 8413   5.653   3.424   7.256  0.9516 -0.8202  0.5633
   81CHL1    C8 8414   5.449   3.451   7.217  0.3313  0.2447 -1.4974
   81CHL1    H8 8415   5.356   3.391   7.214  0.8112 -0.7619  1.7807
   81CHL1   C14 8416   5.434   3.540   7.341  0.8095 -0.0703 -0.3296
   81CHL1   H14 8417   5.530   3.594   7.350  0.8458 -0.5598  2.6488
   81CHL1   C15 8418   5.427   3.469   7.472 -0.4795 -0.4185  0.2873
   81CHL1  H15A 8419   5.366   3.376   7.473 -1.2770  0.0426 -2.0712
   81CHL1  H15B 8420   5.531   3.455   7.508 -0.2137 -0.6510 -0.5598
   81CHL1   C16 8421   5.361   3.570   7.565  0.1979 -0.6212 -0.8293
   81CHL1  H16A 8422   5.268   3.526   7.607 -0.2307  1.1226  0.0944
   81CHL1  H16B 8423   5.438   3.596   7.641 -0.5633 -1.0162  0.0841
   81CHL1   C17 8424   5.318   3.689   7.482 -0.0663 -0.4040 -0.3229
   81CHL1   H17 8425   5.407   3.755   7.477 -2.3699  2.7543 -1.4793
   81CHL1   C13 8426   5.307   3.629   7.340 -0.7780  0.3416  0.3958
   81CHL1   C18 8427   5.169   3.562   7.335  0.0067 -0.1482  0.0480
   81CHL1  H18A 8428   5.164   3.499   7.244  1.2115 -0.2000  0.0089
   81CHL1  H18B 8429   5.158   3.492   7.421 -1.6952 -0.1577 -0.1649
   81CHL1  H18C 8430   5.091   3.641   7.343  0.1193  0.0829 -0.9883
   81CHL1   C12 8431   5.325   3.735   7.223  0.1308  0.4420  0.2644
   81CHL1  H12A 8432   5.233   3.798   7.228 -1.2209 -1.5830  1.7311
   81CHL1  H12B 8433   5.414   3.801   7.235 -0.2279  1.2454 -1.2977
   81CHL1   C11 8434   5.334   3.655   7.094 -0.2001 -0.3190  0.6871
   81CHL1  H11A 8435   5.234   3.610   7.076 -0.2296  0.5728 -1.5715
   81CHL1  H11B 8436   5.349   3.723   7.007  1.9596  0.0460  1.3191
   81CHL1    C9 8437   5.447   3.538   7.092  0.0776 -0.5991 -0.2924
   81CHL1    H9 8438   5.544   3.587   7.112 -0.5819  0.5538  0.1374
   81CHL1   C10 8439   5.449   3.444   6.964 -0.9437 -0.3057 -0.0655
   81CHL1   C19 8440   5.317   3.371   6.947  0.0780 -0.0425 -0.2294
   81CHL1  H19A 8441   5.228   3.432   6.919  0.4169 -0.1770 -1.6362
   81CHL1  H19B 8442   5.321   3.293   6.868 -2.0778  0.2476 -0.6741
   81CHL1  H19C 8443   5.290   3.311   7.037  0.1746 -2.0164 -1.4989
   81CHL1    C1 8444   5.484   3.528   6.835 -0.3431  0.0319 -0.8544
   81CHL1   H1A 8445   5.401   3.600   6.816  1.1319  2.1558  0.5063
   81CHL1   H1B 8446   5.570   3.591   6.867 -0.5243 -1.8758  3.6482
   81CHL1    C2 8447   5.529   3.461   6.705 -0.4504  0.1330 -0.2809
   81CHL1   H2A 8448   5.571   3.523   6.623  0.5141 -0.7815 -0.4923
   81CHL1   H2B 8449   5.446   3.396   6.672  0.3240 -0.3205 -1.3487
   81CHL1   C20 8450   5.198   3.763   7.542  0.7618  0.4722  0.1748
   81CHL1   H20 8451   5.109   3.697   7.548  2.0178 -1.3152 -0.4166
   81CHL1   C21 8452   5.168   3.895   7.469  0.2376 -0.2736 -0.0213
   81CHL1  H21A 8453   5.091   3.881   7.390  1.8934 -1.5522 -1.4501
   81CHL1  H21B 8454   5.260   3.952   7.447 -2.1582  3.4283 -0.8877
   81CHL1  H21C 8455   5.103   3.949   7.541 -1.1263 -0.8574 -0.7876
   81CHL1   C22 8456   5.209   3.802   7.699 -0.5131 -0.3335  0.1124
   81CHL1  H22A 8457   5.261   3.713   7.741  0.6021  1.3780  2.4624
   81CHL1  H22B 8458   5.282   3.883   7.720 -2.5469  1.1287  1.7751
   81CHL1   C23 8459   5.077   3.817   7.780 -0.0462  0.4887 -0.0490
   81CHL1  H23A 8460   5.007   3.888   7.732  2.1023  1.4462 -1.8675
   81CHL1  H23B 8461   5.032   3.716   7.783 -0.4742  0.7034  1.5118
   81CHL1   C24 8462   5.110   3.852   7.919 -0.1146 -0.3092 -0.6486
   81CHL1  H24A 8463   5.183   3.783   7.965 -0.0998  1.0058  1.3710
   81CHL1  H24B 8464   5.144   3.958   7.921 -2.3993  0.4175  1.2629
   81CHL1   C25 8465   4.991   3.852   8.014 -0.5570 -0.5445 -0.2134
   81CHL1   H25 8466   4.941   3.755   7.996 -1.0085 -0.1986 -0.8404
   81CHL1   C26 8467   5.030   3.872   8.158 -0.7402  0.6068  0.2308
   81CHL1  H26A 8468   5.081   3.969   8.171  2.7229 -0.8133 -2.0917
   81CHL1  H26B 8469   4.938   3.875   8.220 -2.9362  0.9353 -2.9792
   81CHL1  H26C 8470   5.099   3.789   8.185 -1.8886 -0.2335  0.6117
   81CHL1   C27 8471   4.897   3.968   7.986  0.2138  0.3839  0.6570
   81CHL1  H27A 8472   4.852   3.959   7.884 -2.5628  4.0492  1.4469
   81CHL1  H27B 8473   4.812   3.965   8.057 -0.4449  0.5962 -0.1080
   81CHL1  H27C 8474   4.945   4.068   7.993 -1.5685  1.1578  2.5305
   82CHL1    C3 8475   6.576   4.454   6.826 -0.8372  0.0536 -0.0248
   82CHL1    H3 8476   6.486   4.404   6.867 -0.3976 -0.1060  0.7596
   82CHL1    O3 8477   6.589   4.423   6.690 -0.4824  0.5331  0.5600
   82CHL1   H3' 8478   6.643   4.494   6.652 -0.8257  0.5938  0.1843
   82CHL1    C4 8479   6.572   4.602   6.843  0.5293 -0.8693 -0.9171
   82CHL1   H4A 8480   6.671   4.635   6.803  0.2208 -0.3049 -1.2252
   82CHL1   H4B 8481   6.498   4.645   6.771  0.4627 -1.6734 -1.3366
   82CHL1    C5 8482   6.543   4.625   6.997  0.1060 -0.4392 -0.2797
   82CHL1    C6 8483   6.422   4.668   7.042  0.4015  0.6222  0.4569
   82CHL1    H6 8484   6.343   4.687   6.968  0.6316  0.4805  0.1748
   82CHL1    C7 8485   6.389   4.677   7.188  0.3567  0.4056 -0.1326
   82CHL1   H7A 8486   6.319   4.763   7.186 -0.3166 -0.1671 -3.0540
   82CHL1   H7B 8487   6.332   4.590   7.224  2.1598 -0.1742  1.3860
   82CHL1    C8 8488   6.516   4.681   7.278 -0.5461  0.1565 -0.3484
   82CHL1    H8 8489   6.567   4.777   7.255  0.1148 -0.3557 -1.0186
   82CHL1   C14 8490   6.473   4.667   7.427  0.0844  0.1610 -0.1396
   82CHL1   H14 8491   6.422   4.568   7.423 -1.1747  0.7048  1.9547
   82CHL1   C15 8492   6.367   4.764   7.488  0.1726  0.0367  0.4798
   82CHL1  H15A 8493   6.398   4.867   7.461  1.8430 -0.1142  1.8084
   82CHL1  H15B 8494   6.259   4.745   7.468  0.2626 -0.7347  0.7191
   82CHL1   C16 8495   6.381   4.749   7.639  0.8380 -0.8132 -0.2461
   82CHL1  H16A 8496   6.390   4.851   7.681  1.6605 -0.9574 -0.0746
   82CHL1  H16B 8497   6.306   4.691   7.697 -2.2947  1.2040 -2.1292
   82CHL1   C17 8498   6.509   4.661   7.660 -0.8983 -0.0145  0.3296
   82CHL1   H17 8499   6.476   4.556   7.669 -0.2674 -0.2849 -0.5237
   82CHL1   C13 8500   6.588   4.665   7.530  0.7517 -0.6524 -0.5046
   82CHL1   C18 8501   6.673   4.793   7.518 -0.6719  0.0682 -0.4587
   82CHL1  H18A 8502   6.606   4.881   7.509 -1.6611 -0.3592  2.2496
   82CHL1  H18B 8503   6.738   4.815   7.606  0.2774  0.6909 -1.3116
   82CHL1  H18C 8504   6.728   4.797   7.422 -0.9218 -1.5100 -0.6959
   82CHL1   C12 8505   6.658   4.530   7.492  0.1000 -0.4847  0.4716
   82CHL1  H12A 8506   6.745   4.514   7.559 -1.1528  0.6819  2.4186
   82CHL1  H12B 8507   6.578   4.453   7.493 -1.7991  1.4444  2.4781
   82CHL1   C11 8508   6.714   4.538   7.344 -0.3223 -0.0954 -0.4659
   82CHL1  H11A 8509   6.803   4.606   7.339 -1.0120  0.9632  1.2272
   82CHL1  H11B 8510   6.769   4.444   7.325  2.6598  1.2582  1.0705
   82CHL1    C9 8511   6.608   4.571   7.238 -0.1676  0.2079 -0.1821
   82CHL1    H9 8512   6.543   4.481   7.240  0.6512 -0.4074 -0.7822
   82CHL1   C10 8513   6.653   4.581   7.095  0.5031  0.6222 -0.3247
   82CHL1   C19 8514   6.781   4.672   7.084 -0.3089  0.1285 -0.0674
   82CHL1  H19A 8515   6.807   4.691   6.977 -2.8712 -1.1408 -0.9712
   82CHL1  H19B 8516   6.762   4.766   7.139  0.6531  0.7597 -0.7842
   82CHL1  H19C 8517   6.862   4.620   7.139 -0.7162 -0.9439 -0.4653
   82CHL1    C1 8518   6.707   4.442   7.047 -0.0007 -0.0989  0.6411
   82CHL1   H1A 8519   6.807   4.410   7.081  1.1784 -0.3994 -2.9207
   82CHL1   H1B 8520   6.636   4.372   7.097 -1.1133 -0.1355 -0.9362
   82CHL1    C2 8521   6.708   4.408   6.895 -0.6987  0.1541  0.0951
   82CHL1   H2A 8522   6.712   4.298   6.885  0.8517  0.3279 -1.2724
   82CHL1   H2B 8523   6.798   4.458   6.854 -1.3097  1.6988  0.6149
   82CHL1   C20 8524   6.592   4.690   7.795  0.5992 -0.1548  0.3975
   82CHL1   H20 8525   6.624   4.796   7.785 -1.4807  0.5048  0.5964
   82CHL1   C21 8526   6.719   4.609   7.814  0.2191  0.4996  0.6268
   82CHL1  H21A 8527   6.776   4.635   7.906  1.7553  0.0645 -0.1698
   82CHL1  H21B 8528   6.790   4.634   7.732  1.8839  1.9242  2.4470
   82CHL1  H21C 8529   6.696   4.501   7.804  1.2044  0.5234 -2.5719
   82CHL1   C22 8530   6.495   4.693   7.926 -0.3046  0.2922 -0.2047
   82CHL1  H22A 8531   6.408   4.756   7.900  1.0794  2.0701 -0.6654
   82CHL1  H22B 8532   6.447   4.594   7.920 -0.4733  0.5436 -4.8030
   82CHL1   C23 8533   6.568   4.719   8.062 -0.5237 -0.1485 -0.3966
   82CHL1  H23A 8534   6.656   4.653   8.076 -0.1159 -0.3572 -3.4802
   82CHL1  H23B 8535   6.599   4.825   8.051 -2.1018  0.4719  0.7821
   82CHL1   C24 8536   6.481   4.730   8.191  0.4871 -0.5102 -0.0849
   82CHL1  H24A 8537   6.420   4.822   8.181 -1.2590 -1.6499 -0.0751
   82CHL1  H24B 8538   6.420   4.638   8.206 -0.3239  0.2906  1.7093
   82CHL1   C25 8539   6.559   4.757   8.325  0.9700 -0.4621 -0.3429
   82CHL1   H25 8540   6.614   4.665   8.351 -0.2729 -1.1971 -0.2576
   82CHL1   C26 8541   6.654   4.876   8.319  0.8502  0.1265 -0.1711
   82CHL1  H26A 8542   6.599   4.971   8.305  0.1947 -0.5427 -2.2835
   82CHL1  H26B 8543   6.708   4.877   8.416 -0.8263  3.1062  0.7813
   82CHL1  H26C 8544   6.725   4.862   8.236 -0.4057  0.7415 -1.3653
   82CHL1   C27 8545   6.451   4.783   8.436  0.1956 -0.5492 -0.2256
   82CHL1  H27A 8546   6.400   4.881   8.426  1.3187  0.0220 -0.4132
   82CHL1  H27B 8547   6.378   4.701   8.454  0.0811  0.0291  2.0377
   82CHL1  H27C 8548   6.504   4.803   8.531  0.8015 -2.7813 -0.0812
   83CHL1    C3 8549   2.702   5.568   6.977  1.3165 -0.4627 -0.0440
   83CHL1    H3 8550   2.754   5.476   7.010 -0.6394 -2.1674 -1.6173
   83CHL1    O3 8551   2.696   5.569   6.837  0.4005 -0.1179 -0.2526
   83CHL1   H3' 8552   2.783   5.564   6.798  0.0420  0.6708 -1.1807
   83CHL1    C4 8553   2.561   5.580   7.030 -0.1467 -0.2208  0.0960
   83CHL1   H4A 8554   2.519   5.677   6.995  0.4847 -0.0784 -0.2888
   83CHL1   H4B 8555   2.491   5.509   6.981  1.7907 -1.5326 -0.8633
   83CHL1    C5 8556   2.554   5.572   7.179 -0.3107  0.2105  0.2033
   83CHL1    C6 8557   2.488   5.483   7.252  0.3289 -0.9104 -0.4747
   83CHL1    H6 8558   2.416   5.418   7.200  0.0756 -1.8638  1.0436
   83CHL1    C7 8559   2.495   5.474   7.401  0.7389  0.0818  0.5585
   83CHL1   H7A 8560   2.392   5.465   7.442 -1.1292  2.3401 -3.3186
   83CHL1   H7B 8561   2.560   5.388   7.426  0.4790 -0.5938 -1.0318
   83CHL1    C8 8562   2.554   5.601   7.469  1.1091 -0.9511  0.0200
   83CHL1    H8 8563   2.483   5.687   7.476  1.8380 -0.5349  3.0352
   83CHL1   C14 8564   2.583   5.565   7.619  0.0351 -1.3556 -0.1324
   83CHL1   H14 8565   2.654   5.482   7.602  0.0729 -0.9739 -1.9735
   83CHL1   C15 8566   2.476   5.513   7.710 -0.2329 -0.5132  0.3255
   83CHL1  H15A 8567   2.380   5.564   7.686  1.1285  1.6608 -0.5921
   83CHL1  H15B 8568   2.463   5.405   7.686  1.1675 -0.4664 -0.6816
   83CHL1   C16 8569   2.518   5.545   7.855 -0.3131 -0.6439 -0.1557
   83CHL1  H16A 8570   2.451   5.612   7.913  0.5749 -0.8040  1.0795
   83CHL1  H16B 8571   2.536   5.453   7.915 -1.6883 -1.3270 -0.7804
   83CHL1   C17 8572   2.653   5.619   7.831 -0.5953 -0.6410 -0.7039
   83CHL1   H17 8573   2.724   5.533   7.826  2.4537  1.7403 -0.0836
   83CHL1   C13 8574   2.646   5.683   7.695  0.4295  0.3961  0.2235
   83CHL1   C18 8575   2.550   5.806   7.708  0.4324  0.1452 -0.3903
   83CHL1  H18A 8576   2.452   5.776   7.750  0.3467  1.8032  0.6609
   83CHL1  H18B 8577   2.604   5.885   7.765 -1.5390  1.4530 -0.2923
   83CHL1  H18C 8578   2.521   5.852   7.611 -1.7734 -2.0645 -0.8201
   83CHL1   C12 8579   2.776   5.724   7.623  0.7696 -0.3867 -0.0498
   83CHL1  H12A 8580   2.819   5.812   7.676 -0.1427  0.1398 -0.1720
   83CHL1  H12B 8581   2.838   5.632   7.627  1.2436 -0.0660  0.0677
   83CHL1   C11 8582   2.749   5.760   7.476  0.6320  0.5078  0.5716
   83CHL1  H11A 8583   2.684   5.850   7.479 -0.5562 -0.1898 -2.6141
   83CHL1  H11B 8584   2.844   5.790   7.426  1.5086 -0.4390  1.6196
   83CHL1    C9 8585   2.678   5.647   7.397  0.4337 -0.3895  0.1483
   83CHL1    H9 8586   2.756   5.569   7.408 -0.0931 -1.0291 -0.6591
   83CHL1   C10 8587   2.651   5.675   7.248 -0.8809 -0.0253  0.1074
   83CHL1   C19 8588   2.589   5.818   7.237 -0.1013  0.7287  0.3352
   83CHL1  H19A 8589   2.511   5.833   7.314 -0.0181  0.4374  0.4764
   83CHL1  H19B 8590   2.652   5.909   7.251  0.8152  0.3307 -1.0643
   83CHL1  H19C 8591   2.537   5.825   7.139  1.4466  2.6209 -0.4003
   83CHL1    C1 8592   2.785   5.675   7.178 -0.5331  0.3910 -0.2885
   83CHL1   H1A 8593   2.851   5.756   7.214 -0.8974  0.7645 -0.4524
   83CHL1   H1B 8594   2.836   5.579   7.201  1.9664  2.1439  1.6802
   83CHL1    C2 8595   2.775   5.691   7.026 -0.1018  0.6023 -0.8180
   83CHL1   H2A 8596   2.878   5.693   6.983 -0.1746 -1.9507 -1.2109
   83CHL1   H2B 8597   2.724   5.785   6.996 -1.0342  0.7237  1.1181
   83CHL1   C20 8598   2.705   5.704   7.953  0.0688  0.1351  0.2711
   83CHL1   H20 8599   2.633   5.789   7.967 -0.9925 -0.4521 -1.5124
   83CHL1   C21 8600   2.831   5.785   7.935 -0.1719  0.2225 -0.6063
   83CHL1  H21A 8601   2.913   5.728   7.886 -0.0927 -1.3901  1.3279
   83CHL1  H21B 8602   2.863   5.830   8.032  0.3198  1.0331 -1.1357
   83CHL1  H21C 8603   2.812   5.880   7.881  0.0702  0.1051 -0.9002
   83CHL1   C22 8604   2.706   5.626   8.087 -0.1465 -0.1342  0.5232
   83CHL1  H22A 8605   2.609   5.571   8.084  0.3260 -1.2130  3.4704
   83CHL1  H22B 8606   2.786   5.549   8.091  0.6585  0.6600 -0.0476
   83CHL1   C23 8607   2.708   5.714   8.210 -0.7620  0.7082  0.1700
   83CHL1  H23A 8608   2.795   5.783   8.211  0.1798 -0.4205 -1.8268
   83CHL1  H23B 8609   2.618   5.778   8.205 -0.2282  1.6045  1.6568
   83CHL1   C24 8610   2.683   5.624   8.331 -0.0110 -0.1608  0.3561
   83CHL1  H24A 8611   2.586   5.571   8.326  0.7951 -1.5291 -1.5883
   83CHL1  H24B 8612   2.745   5.532   8.319  0.6042  0.1866  0.7905
   83CHL1   C25 8613   2.705   5.701   8.464  0.0439  0.5998 -0.3806
   83CHL1   H25 8614   2.814   5.723   8.463 -0.2816  2.1660 -1.4273
   83CHL1   C26 8615   2.629   5.832   8.480 -0.2866  0.2741  0.3206
   83CHL1  H26A 8616   2.518   5.823   8.477 -0.4603  1.9522  1.0391
   83CHL1  H26B 8617   2.651   5.869   8.583 -0.1355  0.7741  0.1102
   83CHL1  H26C 8618   2.661   5.908   8.406  1.0636 -0.7462 -0.1573
   83CHL1   C27 8619   2.665   5.607   8.588 -0.2016 -0.0532 -0.3858
   83CHL1  H27A 8620   2.709   5.504   8.587 -1.5115 -0.6373  1.2216
   83CHL1  H27B 8621   2.704   5.667   8.673 -0.4395 -1.2492  0.5748
   83CHL1  H27C 8622   2.555   5.612   8.593 -0.0118  1.6193  3.1545
   84CHL1    C3 8623   5.051   1.589   7.028  0.5347 -0.5893 -0.2663
   84CHL1    H3 8624   5.157   1.556   7.039  0.1169 -1.4115  1.5035
   84CHL1    O3 8625   5.012   1.611   6.896  0.1402 -0.6811  0.0963
   84CHL1   H3' 8626   4.916   1.613   6.900  0.0792 -0.8185 -1.1108
   84CHL1    C4 8627   4.955   1.473   7.072  0.3570  0.6074  0.3942
   84CHL1   H4A 8628   4.848   1.497   7.052  0.6269  0.2725 -1.5918
   84CHL1   H4B 8629   4.977   1.385   7.009  0.2633  1.9544 -1.5616
   84CHL1    C5 8630   4.974   1.436   7.218 -0.4843  0.1067  1.0461
   84CHL1    C6 8631   5.005   1.306   7.254  0.2631 -1.2068  0.3731
   84CHL1    H6 8632   5.013   1.225   7.180  1.4709 -0.2698 -0.5193
   84CHL1    C7 8633   5.020   1.257   7.398 -0.5294 -0.7016 -0.5518
   84CHL1   H7A 8634   4.972   1.157   7.411 -1.0686 -0.2882  0.6641
   84CHL1   H7B 8635   5.128   1.248   7.421 -0.4441 -1.3902 -1.2226
   84CHL1    C8 8636   4.969   1.365   7.501  0.1756 -0.3224 -0.0659
   84CHL1    H8 8637   4.860   1.373   7.482  0.2526 -0.3247 -0.5071
   84CHL1   C14 8638   5.008   1.329   7.643  0.0948 -0.5255  0.2359
   84CHL1   H14 8639   5.115   1.360   7.640 -0.6295  2.1131  1.1168
   84CHL1   C15 8640   4.984   1.194   7.701  0.0314 -0.2224 -0.3622
   84CHL1  H15A 8641   4.888   1.155   7.661  0.3582 -2.2701  0.7807
   84CHL1  H15B 8642   5.066   1.122   7.678 -0.0116 -1.0361  1.8998
   84CHL1   C16 8643   4.961   1.216   7.854 -0.0228 -0.4537 -0.0365
   84CHL1  H16A 8644   4.856   1.192   7.881  0.2391 -2.1264 -0.4608
   84CHL1  H16B 8645   5.028   1.150   7.914 -0.2862 -0.8741 -0.2046
   84CHL1   C17 8646   4.991   1.371   7.886 -0.6160 -0.2086  0.2650
   84CHL1   H17 8647   5.100   1.389   7.898 -1.1490  1.4100  3.0212
   84CHL1   C13 8648   4.952   1.428   7.743  0.0139 -0.5460 -0.0941
   84CHL1   C18 8649   4.795   1.431   7.736 -0.4234  0.6264  0.1033
   84CHL1  H18A 8650   4.768   1.485   7.643  3.1898 -0.4047 -1.6177
   84CHL1  H18B 8651   4.755   1.327   7.732  0.0250  0.3756  1.8803
   84CHL1  H18C 8652   4.755   1.488   7.822 -0.2619  0.0866  0.5395
   84CHL1   C12 8653   5.018   1.566   7.715 -0.5460  0.2613  0.6288
   84CHL1  H12A 8654   4.982   1.648   7.781 -0.8811  2.0890 -1.7726
   84CHL1  H12B 8655   5.128   1.558   7.727 -0.4924 -1.4374 -0.8335
   84CHL1   C11 8656   4.982   1.609   7.571  0.0309 -0.0046  1.0351
   84CHL1  H11A 8657   4.875   1.639   7.569 -0.1056 -0.5411 -0.8447
   84CHL1  H11B 8658   5.041   1.700   7.548  0.0075 -0.3432 -0.4126
   84CHL1    C9 8659   5.013   1.506   7.459 -0.1446  0.1526 -0.0342
   84CHL1    H9 8660   5.124   1.500   7.464 -0.1088 -1.1624 -2.0155
   84CHL1   C10 8661   4.964   1.548   7.326  0.9177 -1.1676 -0.2065
   84CHL1   C19 8662   4.816   1.591   7.329 -0.5949 -0.1325  0.7442
   84CHL1  H19A 8663   4.778   1.604   7.225  1.5360  0.3745  0.0035
   84CHL1  H19B 8664   4.743   1.536   7.391 -1.1022 -1.9370 -1.3826
   84CHL1  H19C 8665   4.818   1.692   7.374  1.8605 -0.4964  1.5093
   84CHL1    C1 8666   5.048   1.671   7.270  0.3206 -0.4307 -0.5108
   84CHL1   H1A 8667   5.022   1.759   7.332  0.9596 -0.7475  0.2154
   84CHL1   H1B 8668   5.149   1.640   7.306  0.1122  0.2221  0.6633
   84CHL1    C2 8669   5.035   1.707   7.121 -0.5591  0.5062  0.4425
   84CHL1   H2A 8670   5.110   1.784   7.093  0.1156 -0.0646  0.6547
   84CHL1   H2B 8671   4.936   1.756   7.111 -1.3981 -0.9662  1.3387
   84CHL1   C20 8672   4.924   1.422   8.017 -0.3617  0.4240  0.5622
   84CHL1   H20 8673   4.814   1.420   8.004 -0.4159  0.0828  1.0770
   84CHL1   C21 8674   4.975   1.563   8.048 -0.1038  0.0553  0.5922
   84CHL1  H21A 8675   4.942   1.601   8.147  1.4025  2.3753  0.2571
   84CHL1  H21B 8676   4.927   1.637   7.979  0.1853  2.0712  2.4963
   84CHL1  H21C 8677   5.085   1.563   8.037 -0.0105 -0.0390  1.5027
   84CHL1   C22 8678   4.954   1.329   8.134  0.8043 -0.3102 -0.0465
   84CHL1  H22A 8679   4.937   1.222   8.111 -1.6767 -0.1827  1.0735
   84CHL1  H22B 8680   5.064   1.346   8.142  0.6957  0.8273 -0.8586
   84CHL1   C23 8681   4.885   1.372   8.264 -0.2429  0.0594 -0.3250
   84CHL1  H23A 8682   4.910   1.475   8.298 -2.6065  0.7949 -0.6978
   84CHL1  H23B 8683   4.777   1.360   8.239 -0.4847  0.6981  0.3809
   84CHL1   C24 8684   4.913   1.284   8.386  0.1660 -0.3689  0.1561
   84CHL1  H24A 8685   5.011   1.236   8.370  1.1996  1.6747  0.2604
   84CHL1  H24B 8686   4.933   1.357   8.467  3.2417 -1.1675  0.1688
   84CHL1   C25 8687   4.800   1.187   8.432 -0.6024 -0.3243 -0.0398
   84CHL1   H25 8688   4.711   1.254   8.443 -1.8212 -2.1969  1.8124
   84CHL1   C26 8689   4.761   1.081   8.326  0.2263 -0.1046 -0.0617
   84CHL1  H26A 8690   4.671   1.026   8.361  0.6416 -0.2912  0.7281
   84CHL1  H26B 8691   4.732   1.128   8.230  1.7582  1.2195  0.1090
   84CHL1  H26C 8692   4.844   1.016   8.292  0.3042  1.3887 -2.8676
   84CHL1   C27 8693   4.841   1.117   8.564  0.4470  0.5055 -0.8135
   84CHL1  H27A 8694   4.755   1.052   8.591  1.1258  0.3261  1.0285
   84CHL1  H27B 8695   4.929   1.049   8.560 -1.0812 -1.6805  1.2211
   84CHL1  H27C 8696   4.860   1.193   8.642  1.1208  0.9420 -1.3987
   85CHL1    C3 8697   4.432   5.687   6.677  0.2046 -0.3187  0.0672
   85CHL1    H3 8698   4.500   5.771   6.701 -1.6872  0.8756  1.3777
   85CHL1    O3 8699   4.432   5.667   6.537  0.0516  0.1249  0.0995
   85CHL1   H3' 8700   4.523   5.640   6.523  0.7465  1.5523  1.7602
   85CHL1    C4 8701   4.484   5.556   6.732  0.4670 -0.1037  1.0680
   85CHL1   H4A 8702   4.404   5.479   6.717 -0.2868  1.0368 -0.9022
   85CHL1   H4B 8703   4.570   5.512   6.678  0.3737  1.4573 -0.3793
   85CHL1    C5 8704   4.495   5.567   6.883 -0.3844 -0.0421  0.0294
   85CHL1    C6 8705   4.612   5.528   6.945 -0.3543  0.0587  0.3026
   85CHL1    H6 8706   4.696   5.495   6.882 -0.2294  0.0498  0.4757
   85CHL1    C7 8707   4.635   5.538   7.093 -0.4870  0.5335 -0.0620
   85CHL1   H7A 8708   4.653   5.434   7.127  1.2345  0.3587 -1.4646
   85CHL1   H7B 8709   4.713   5.608   7.131 -0.5985 -0.8418  2.7633
   85CHL1    C8 8710   4.505   5.576   7.163  0.4238  0.1166 -0.4058
   85CHL1    H8 8711   4.445   5.485   7.188 -0.1489  0.9848  1.4713
   85CHL1   C14 8712   4.538   5.626   7.299 -0.1712  0.7950  0.9583
   85CHL1   H14 8713   4.588   5.723   7.281  2.8588 -0.8020  0.4241
   85CHL1   C15 8714   4.638   5.543   7.385  0.3632 -0.1724  0.8554
   85CHL1  H15A 8715   4.601   5.438   7.386 -0.9303  0.2665 -0.2635
   85CHL1  H15B 8716   4.744   5.550   7.352 -0.3148  1.3784 -1.0884
   85CHL1   C16 8717   4.617   5.599   7.531 -0.0951 -0.4919  0.2323
   85CHL1  H16A 8718   4.596   5.522   7.609 -1.2411  1.3043  1.7447
   85CHL1  H16B 8719   4.699   5.665   7.565 -1.3383  1.3269 -0.2242
   85CHL1   C17 8720   4.489   5.694   7.531 -0.2442  0.7128 -0.3166
   85CHL1   H17 8721   4.532   5.796   7.529 -4.2197  2.4885 -1.5871
   85CHL1   C13 8722   4.421   5.657   7.393  0.2276 -0.4326 -0.1163
   85CHL1   C18 8723   4.328   5.529   7.412 -0.4599  0.7288 -0.1127
   85CHL1  H18A 8724   4.231   5.557   7.459 -0.9955  0.0299 -0.7791
   85CHL1  H18B 8725   4.305   5.489   7.311  0.2300 -0.5628  0.2218
   85CHL1  H18C 8726   4.388   5.460   7.475 -1.3161  0.2609  0.2034
   85CHL1   C12 8727   4.342   5.769   7.327 -0.3705  0.4556  0.1625
   85CHL1  H12A 8728   4.251   5.798   7.383 -2.2701  0.8429 -3.0234
   85CHL1  H12B 8729   4.404   5.862   7.331  1.6906 -0.8450 -0.5837
   85CHL1   C11 8730   4.306   5.737   7.185 -0.2090 -0.9270 -0.2768
   85CHL1  H11A 8731   4.219   5.667   7.185 -0.4830 -0.5886 -0.7420
   85CHL1  H11B 8732   4.260   5.828   7.141  0.1360 -1.4355 -1.7206
   85CHL1    C9 8733   4.418   5.682   7.090 -0.1314 -0.2361  0.1633
   85CHL1    H9 8734   4.490   5.762   7.066 -0.6720 -0.3539 -1.9338
   85CHL1   C10 8735   4.369   5.639   6.951  0.3285  0.0481  0.5836
   85CHL1   C19 8736   4.264   5.530   6.975 -0.0365 -0.4400 -0.1554
   85CHL1  H19A 8737   4.164   5.563   7.009  0.7019 -1.7194  3.4227
   85CHL1  H19B 8738   4.235   5.475   6.883 -2.3757 -1.3283  1.0742
   85CHL1  H19C 8739   4.288   5.454   7.052 -0.5478 -0.4044  0.0404
   85CHL1    C1 8740   4.309   5.760   6.875 -0.1526 -0.1390  0.9313
   85CHL1   H1A 8741   4.210   5.785   6.920 -0.5903  1.0368 -0.6453
   85CHL1   H1B 8742   4.372   5.848   6.896  2.4419 -1.3945 -1.3050
   85CHL1    C2 8743   4.295   5.722   6.728  0.3966  0.7896  0.1068
   85CHL1   H2A 8744   4.263   5.810   6.669  1.7210  0.4642 -1.1439
   85CHL1   H2B 8745   4.211   5.652   6.712  2.1220 -2.1602  3.0433
   85CHL1   C20 8746   4.409   5.697   7.667 -0.2397 -0.3049 -0.1881
   85CHL1   H20 8747   4.394   5.591   7.698  3.5338 -0.5775  1.0173
   85CHL1   C21 8748   4.275   5.774   7.651  0.0760 -0.3975  0.4102
   85CHL1  H21A 8749   4.304   5.878   7.626  0.8619 -0.2916  1.7415
   85CHL1  H21B 8750   4.226   5.763   7.750  0.3476  1.8054  0.8071
   85CHL1  H21C 8751   4.212   5.716   7.580 -1.1389 -2.4040  3.0382
   85CHL1   C22 8752   4.495   5.766   7.776  0.4490  0.5341  0.1555
   85CHL1  H22A 8753   4.588   5.706   7.786 -1.0321 -2.3249 -2.4766
   85CHL1  H22B 8754   4.523   5.865   7.736 -0.1377  0.3400 -0.7401
   85CHL1   C23 8755   4.436   5.773   7.921 -0.2327  0.4971 -0.7283
   85CHL1  H23A 8756   4.330   5.806   7.926 -0.6417 -1.0098  1.3826
   85CHL1  H23B 8757   4.445   5.671   7.964 -0.2636  1.1650  0.9311
   85CHL1   C24 8758   4.526   5.866   8.006 -0.3329 -0.0154 -0.3864
   85CHL1  H24A 8759   4.636   5.862   7.992 -0.5524 -0.6458 -1.9766
   85CHL1  H24B 8760   4.494   5.967   7.972 -1.1374 -0.8168 -2.1030
   85CHL1   C25 8761   4.505   5.865   8.157 -0.6763  0.5434 -0.1363
   85CHL1   H25 8762   4.545   5.770   8.197  1.7990  2.3719  1.9311
   85CHL1   C26 8763   4.587   5.971   8.219 -0.0716  0.2183  1.1177
   85CHL1  H26A 8764   4.590   5.955   8.329  0.6654 -1.1522  0.9127
   85CHL1  H26B 8765   4.696   5.975   8.199  0.2069  0.4080  2.6304
   85CHL1  H26C 8766   4.547   6.073   8.204  2.8098  1.1935 -0.4313
   85CHL1   C27 8767   4.360   5.886   8.184  0.2154 -0.0106 -0.1935
   85CHL1  H27A 8768   4.317   5.965   8.118 -1.6649 -0.7229  0.1616
   85CHL1  H27B 8769   4.298   5.795   8.173 -0.3626  0.2856  0.5385
   85CHL1  H27C 8770   4.345   5.906   8.293 -1.1737 -3.7156  0.3674
   86CHL1    C3 8771   6.676   3.365   6.993 -0.0714 -0.6486 -0.3331
   86CHL1    H3 8772   6.776   3.352   7.039  1.9357  1.8248 -3.7737
   86CHL1    O3 8773   6.663   3.361   6.855  0.7079 -0.2108 -0.2973
   86CHL1   H3' 8774   6.710   3.280   6.835 -0.2642 -0.5484 -1.2351
   86CHL1    C4 8775   6.587   3.253   7.056  0.1163  0.6917 -0.2270
   86CHL1   H4A 8776   6.481   3.262   7.022 -0.1376 -0.2315  0.3085
   86CHL1   H4B 8777   6.610   3.154   7.012  0.6156 -0.1763  1.9033
   86CHL1    C5 8778   6.590   3.248   7.210 -0.2004  0.8016 -0.2349
   86CHL1    C6 8779   6.634   3.132   7.270  0.1841 -0.8082  1.0508
   86CHL1    H6 8780   6.656   3.040   7.214  0.7049 -0.4882  0.7221
   86CHL1    C7 8781   6.624   3.108   7.412 -0.2772 -0.6258 -0.3480
   86CHL1   H7A 8782   6.571   3.011   7.424  0.6142 -1.3042 -1.7037
   86CHL1   H7B 8783   6.728   3.086   7.446  0.6708  1.1540 -1.9872
   86CHL1    C8 8784   6.555   3.225   7.493  0.2130  1.0165 -0.1612
   86CHL1    H8 8785   6.446   3.215   7.477  0.2291 -0.8201  0.6339
   86CHL1   C14 8786   6.592   3.230   7.640  0.7435 -0.1860  0.5439
   86CHL1   H14 8787   6.701   3.249   7.643  0.7148 -0.1525  1.7779
   86CHL1   C15 8788   6.565   3.105   7.731 -0.4320  0.3846 -0.4361
   86CHL1  H15A 8789   6.458   3.077   7.726 -1.1952  3.1775 -0.3504
   86CHL1  H15B 8790   6.623   3.014   7.701 -0.5746 -0.7044  2.4499
   86CHL1   C16 8791   6.612   3.162   7.865 -0.2402  0.4924 -0.0822
   86CHL1  H16A 8792   6.551   3.110   7.941 -1.0936 -1.5445 -2.1072
   86CHL1  H16B 8793   6.719   3.138   7.881 -0.3468 -0.0043 -0.1152
   86CHL1   C17 8794   6.586   3.313   7.861 -0.1177 -0.5622 -0.3124
   86CHL1   H17 8795   6.690   3.353   7.857 -0.0356 -0.7848 -0.4216
   86CHL1   C13 8796   6.531   3.345   7.720 -0.3396  0.8541  0.0607
   86CHL1   C18 8797   6.377   3.326   7.712 -0.4198 -0.1284  0.0980
   86CHL1  H18A 8798   6.325   3.324   7.614 -0.9155 -0.8737  0.3769
   86CHL1  H18B 8799   6.349   3.235   7.769 -2.4405  1.6582  2.0474
   86CHL1  H18C 8800   6.318   3.400   7.769 -2.6163 -0.8754 -1.1173
   86CHL1   C12 8801   6.587   3.478   7.662 -0.0874  0.3053 -0.5659
   86CHL1  H12A 8802   6.536   3.565   7.711  0.6890  1.0909 -1.1410
   86CHL1  H12B 8803   6.698   3.475   7.664 -0.0889  0.5837  0.7025
   86CHL1   C11 8804   6.550   3.493   7.511  0.1605 -0.2355  0.1557
   86CHL1  H11A 8805   6.442   3.519   7.507  0.0984 -0.3274  1.1885
   86CHL1  H11B 8806   6.593   3.588   7.473 -1.4618  0.5286  0.1855
   86CHL1    C9 8807   6.589   3.361   7.429 -0.6718  0.0049 -0.0496
   86CHL1    H9 8808   6.700   3.361   7.428 -0.6453  1.9123  0.5161
   86CHL1   C10 8809   6.548   3.378   7.281  0.0212  0.0874 -0.0405
   86CHL1   C19 8810   6.387   3.406   7.281  0.3411  0.2885 -0.0699
   86CHL1  H19A 8811   6.338   3.363   7.191 -0.9518  2.9402 -0.6730
   86CHL1  H19B 8812   6.345   3.374   7.378 -1.0884  1.5432 -0.2614
   86CHL1  H19C 8813   6.372   3.516   7.281 -1.2176  0.1088  1.7549
   86CHL1    C1 8814   6.624   3.500   7.214  0.4980  0.1923  0.4495
   86CHL1   H1A 8815   6.576   3.597   7.238 -0.6296 -0.6203  1.5429
   86CHL1   H1B 8816   6.730   3.503   7.249  0.6034 -0.3321  0.1759
   86CHL1    C2 8817   6.617   3.493   7.055 -0.1249 -0.1657 -0.2512
   86CHL1   H2A 8818   6.680   3.577   7.017 -1.3485  0.6597 -0.4717
   86CHL1   H2B 8819   6.510   3.511   7.031  0.2164  2.2946 -0.0515
   86CHL1   C20 8820   6.510   3.369   7.987 -0.1156 -0.2267  0.4876
   86CHL1   H20 8821   6.408   3.326   7.990  0.5208 -1.8786 -0.9409
   86CHL1   C21 8822   6.493   3.526   7.961  0.6483  0.7937  0.1370
   86CHL1  H21A 8823   6.429   3.553   7.875  0.9162  1.9360  0.2919
   86CHL1  H21B 8824   6.595   3.567   7.942 -0.2082  2.2518 -1.4775
   86CHL1  H21C 8825   6.436   3.572   8.044  1.6956 -0.1783  1.4196
   86CHL1   C22 8826   6.576   3.347   8.129 -0.4392 -0.0364 -0.3849
   86CHL1  H22A 8827   6.526   3.414   8.203 -0.8446  0.0461 -0.7300
   86CHL1  H22B 8828   6.576   3.242   8.163  0.5372  0.3060  0.7112
   86CHL1   C23 8829   6.730   3.385   8.131 -0.2518  0.9998 -0.0526
   86CHL1  H23A 8830   6.786   3.304   8.079 -2.8870 -0.1127 -1.2510
   86CHL1  H23B 8831   6.743   3.485   8.085 -1.0753  1.5346  0.8705
   86CHL1   C24 8832   6.784   3.396   8.278 -0.3659  0.4020 -0.7156
   86CHL1  H24A 8833   6.750   3.305   8.333  0.1629 -0.6487 -2.1161
   86CHL1  H24B 8834   6.894   3.410   8.269 -0.6548  2.5128 -1.0682
   86CHL1   C25 8835   6.740   3.522   8.353 -0.3116  0.7527  0.3454
   86CHL1   H25 8836   6.634   3.552   8.339 -0.9503 -1.3021  0.7270
   86CHL1   C26 8837   6.768   3.498   8.498 -0.1842 -0.2893  0.1281
   86CHL1  H26A 8838   6.703   3.558   8.566  0.8192  0.6274  0.2985
   86CHL1  H26B 8839   6.738   3.396   8.529 -0.7665 -1.1157 -2.9764
   86CHL1  H26C 8840   6.875   3.506   8.528  0.3846  0.9549 -2.0681
   86CHL1   C27 8841   6.817   3.645   8.314  0.2293 -0.2751  0.4474
   86CHL1  H27A 8842   6.802   3.663   8.206  1.7184 -0.6757  0.1686
   86CHL1  H27B 8843   6.776   3.733   8.369 -1.0713 -0.0155 -0.8936
   86CHL1  H27C 8844   6.924   3.635   8.341 -0.0543 -0.8195  1.4330
   87CHL1    C3 8845   6.685   1.830   6.925 -1.0414 -0.3514 -0.4601
   87CHL1    H3 8846   6.584   1.876   6.939 -1.2819 -1.3248  1.0865
   87CHL1    O3 8847   6.727   1.861   6.790 -0.5300  0.2471  0.2447
   87CHL1   H3' 8848   6.817   1.829   6.784 -1.2445 -2.0114  1.0618
   87CHL1    C4 8849   6.800   1.883   7.018 -0.5391 -0.8239 -0.4069
   87CHL1   H4A 8850   6.899   1.842   6.989  0.5499  1.0883  0.5074
   87CHL1   H4B 8851   6.796   1.993   7.008  0.6636 -0.8491 -1.2620
   87CHL1    C5 8852   6.771   1.843   7.167  0.2961  0.9951  0.0682
   87CHL1    C6 8853   6.744   1.934   7.258 -0.3565  0.2262 -0.6296
   87CHL1    H6 8854   6.749   2.042   7.235  1.3055 -0.1781 -2.4201
   87CHL1    C7 8855   6.730   1.899   7.405  0.6918  0.3617  0.1190
   87CHL1   H7A 8856   6.815   1.942   7.463  1.0405  0.1878 -0.2550
   87CHL1   H7B 8857   6.644   1.940   7.461  1.3655 -0.7019  1.9514
   87CHL1    C8 8858   6.760   1.752   7.437 -0.4294 -0.1319  0.1631
   87CHL1    H8 8859   6.871   1.747   7.446 -0.1109  0.3456 -2.7888
   87CHL1   C14 8860   6.700   1.711   7.568  0.1859  0.4783 -0.8014
   87CHL1   H14 8861   6.590   1.728   7.564 -0.2495 -1.6710  0.6827
   87CHL1   C15 8862   6.748   1.783   7.698 -0.2112  0.1468  0.4000
   87CHL1  H15A 8863   6.859   1.779   7.693 -0.2035  1.1775 -0.4572
   87CHL1  H15B 8864   6.724   1.891   7.705 -0.0088  0.3027 -1.2407
   87CHL1   C16 8865   6.689   1.704   7.810 -0.9003 -0.3842  0.2688
   87CHL1  H16A 8866   6.766   1.689   7.889 -2.8660  3.1306  3.0085
   87CHL1  H16B 8867   6.600   1.758   7.849 -1.2766  0.0118 -1.0781
   87CHL1   C17 8868   6.657   1.567   7.752 -0.0775 -0.2524  0.1952
   87CHL1   H17 8869   6.549   1.553   7.731 -0.3399  0.9130  0.7171
   87CHL1   C13 8870   6.721   1.567   7.605  0.4847  0.3682 -0.1325
   87CHL1   C18 8871   6.866   1.520   7.607  0.2520 -0.6151 -0.1682
   87CHL1  H18A 8872   6.920   1.580   7.684 -1.0602 -1.5325  1.4877
   87CHL1  H18B 8873   6.886   1.414   7.633 -1.1095 -1.3934 -2.2168
   87CHL1  H18C 8874   6.910   1.541   7.507  1.6498  0.1724  0.5935
   87CHL1   C12 8875   6.642   1.482   7.504  0.3055  0.3953  0.1523
   87CHL1  H12A 8876   6.656   1.376   7.535 -0.4714  0.4094  0.5633
   87CHL1  H12B 8877   6.538   1.515   7.519  0.3023  0.5418 -0.1988
   87CHL1   C11 8878   6.694   1.508   7.359  0.5571 -1.0220 -0.0464
   87CHL1  H11A 8879   6.798   1.471   7.352  1.7026  2.2202 -1.0869
   87CHL1  H11B 8880   6.629   1.454   7.287  1.3714 -1.7377 -0.2485
   87CHL1    C9 8881   6.699   1.665   7.328  0.2841  1.4807  0.0516
   87CHL1    H9 8882   6.590   1.682   7.321 -0.3401 -2.3603 -1.0302
   87CHL1   C10 8883   6.758   1.692   7.192  0.0951  0.1978  0.4493
   87CHL1   C19 8884   6.908   1.643   7.176  0.5071  0.1285 -0.2470
   87CHL1  H19A 8885   6.897   1.534   7.198  0.0219  0.2133 -0.0766
   87CHL1  H19B 8886   6.949   1.654   7.073 -1.0890  1.0036 -0.7985
   87CHL1  H19C 8887   6.970   1.702   7.247 -1.2332  0.5451  0.9547
   87CHL1    C1 8888   6.664   1.629   7.085 -0.0581 -0.1623  0.0860
   87CHL1   H1A 8889   6.671   1.518   7.082  1.0108 -0.0837 -0.5954
   87CHL1   H1B 8890   6.558   1.641   7.116 -1.0074 -4.1371 -1.3360
   87CHL1    C2 8891   6.683   1.679   6.935 -0.4175 -0.1951 -0.2107
   87CHL1   H2A 8892   6.597   1.646   6.874 -0.0609 -3.2136  0.8237
   87CHL1   H2B 8893   6.766   1.629   6.880 -0.2626  1.3872 -1.4600
   87CHL1   C20 8894   6.694   1.454   7.853 -1.0688 -0.0095  0.0802
   87CHL1   H20 8895   6.800   1.467   7.883 -1.1800 -0.9615  0.9320
   87CHL1   C21 8896   6.673   1.314   7.789  0.0487  0.3331  0.2241
   87CHL1  H21A 8897   6.568   1.290   7.762  1.0399 -4.2815  0.1711
   87CHL1  H21B 8898   6.711   1.234   7.856  1.1025  0.3863 -0.3020
   87CHL1  H21C 8899   6.738   1.296   7.701 -0.7657 -0.7329 -0.1677
   87CHL1   C22 8900   6.614   1.459   7.984 -0.2420 -0.1052 -0.1722
   87CHL1  H22A 8901   6.616   1.554   8.043 -0.9077 -1.1575  1.5775
   87CHL1  H22B 8902   6.511   1.437   7.951 -0.5001  1.3896 -0.4248
   87CHL1   C23 8903   6.659   1.362   8.098 -1.2166 -0.0707  0.0729
   87CHL1  H23A 8904   6.646   1.260   8.056  4.0977 -1.1494  0.7430
   87CHL1  H23B 8905   6.767   1.367   8.125 -0.9802  0.6918 -0.9496
   87CHL1   C24 8906   6.586   1.376   8.223 -0.5917 -0.3139  0.2937
   87CHL1  H24A 8907   6.620   1.468   8.275 -0.4666 -2.3364  3.9973
   87CHL1  H24B 8908   6.476   1.372   8.208 -0.5912  1.3622 -0.1720
   87CHL1   C25 8909   6.608   1.255   8.316  0.0654  0.2152 -0.0110
   87CHL1   H25 8910   6.717   1.251   8.334 -0.0059 -1.5565  0.1313
   87CHL1   C26 8911   6.545   1.288   8.456 -0.6113  0.6586  0.3967
   87CHL1  H26A 8912   6.434   1.295   8.455 -0.5953  1.0370  1.4947
   87CHL1  H26B 8913   6.580   1.221   8.537 -0.5490 -1.9801 -1.7047
   87CHL1  H26C 8914   6.576   1.391   8.482  0.1636 -0.6555  5.1227
   87CHL1   C27 8915   6.556   1.124   8.265  0.0622 -0.0836 -0.2477
   87CHL1  H27A 8916   6.570   1.042   8.339  0.0929 -0.0408 -0.2064
   87CHL1  H27B 8917   6.448   1.140   8.246  0.5368  2.9366 -0.5537
   87CHL1  H27C 8918   6.604   1.075   8.177  1.1798 -1.5322  1.1355
   88CHL1    C3 8919   4.043   0.326   7.036 -0.1718 -0.4109  0.1290
   88CHL1    H3 8920   4.136   0.266   7.036  0.1397  0.0731 -0.1203
   88CHL1    O3 8921   4.016   0.352   6.899 -0.4902 -0.3019  0.3974
   88CHL1   H3' 8922   4.071   0.293   6.848  0.5434 -0.6909  1.9205
   88CHL1    C4 8923   3.931   0.242   7.104 -0.2917 -0.4164  0.3551
   88CHL1   H4A 8924   3.833   0.291   7.086  0.9922  2.3636  0.7607
   88CHL1   H4B 8925   3.929   0.153   7.037 -0.6578 -1.3960  1.6590
   88CHL1    C5 8926   3.974   0.206   7.245  0.6646 -0.5495 -0.2249
   88CHL1    C6 8927   3.977   0.074   7.282  0.2489  0.2171 -0.0072
   88CHL1    H6 8928   3.942  -0.004   7.213 -0.5220 -0.1682  0.8075
   88CHL1    C7 8929   4.015   0.041   7.424 -0.0042  0.3450  0.0744
   88CHL1   H7A 8930   3.949  -0.039   7.464 -1.0565  0.2111 -1.9011
   88CHL1   H7B 8931   4.115  -0.004   7.443 -0.7612 -1.6748 -0.6651
   88CHL1    C8 8932   3.999   0.165   7.520  0.2005 -0.5001 -0.1290
   88CHL1    H8 8933   3.893   0.196   7.531  0.3620 -0.9110  3.0630
   88CHL1   C14 8934   4.041   0.139   7.664 -0.2240 -0.5294 -0.2191
   88CHL1   H14 8935   4.150   0.119   7.665 -0.3591 -1.2397  1.9643
   88CHL1   C15 8936   3.999   0.003   7.725 -0.0056  0.5460 -0.4217
   88CHL1  H15A 8937   3.894  -0.017   7.697  0.3406 -1.4996 -0.3669
   88CHL1  H15B 8938   4.063  -0.081   7.690 -2.1127 -1.4391  0.3463
   88CHL1   C16 8939   4.009   0.044   7.874  0.3004  0.1093 -0.1996
   88CHL1  H16A 8940   3.906   0.050   7.916  0.2656 -0.3901 -0.2065
   88CHL1  H16B 8941   4.067  -0.023   7.941  0.0458 -0.1935 -0.2794
   88CHL1   C17 8942   4.078   0.181   7.896 -0.5211 -0.1653  0.5081
   88CHL1   H17 8943   4.188   0.162   7.896 -0.6837 -1.1609  0.4532
   88CHL1   C13 8944   4.037   0.255   7.768 -0.4009 -0.4525 -0.3349
   88CHL1   C18 8945   3.890   0.314   7.773 -0.3093  0.3880 -0.1992
   88CHL1  H18A 8946   3.864   0.355   7.673 -0.6409 -1.2280 -0.8028
   88CHL1  H18B 8947   3.812   0.237   7.792  3.1525 -4.0585 -2.7675
   88CHL1  H18C 8948   3.881   0.391   7.852  0.9078  0.7686 -0.4146
   88CHL1   C12 8949   4.142   0.356   7.720 -0.2651  0.6001  0.7698
   88CHL1  H12A 8950   4.135   0.449   7.780 -1.5156  1.3041 -0.4445
   88CHL1  H12B 8951   4.245   0.318   7.737  0.4918  1.8755 -0.7854
   88CHL1   C11 8952   4.114   0.393   7.570 -1.0719 -0.2354  0.8299
   88CHL1  H11A 8953   4.039   0.474   7.562  0.8950  1.6328  1.1216
   88CHL1  H11B 8954   4.203   0.442   7.524 -1.7534  0.0323 -0.2322
   88CHL1    C9 8955   4.077   0.284   7.463 -0.0425 -1.3265  0.9229
   88CHL1    H9 8956   4.174   0.234   7.442  0.5912  1.0806 -2.2890
   88CHL1   C10 8957   4.012   0.333   7.334  0.0243 -0.3600 -0.5142
   88CHL1   C19 8958   3.873   0.410   7.352 -0.4287 -0.1168  0.3806
   88CHL1  H19A 8959   3.822   0.445   7.259  1.7165  1.5416 -0.2199
   88CHL1  H19B 8960   3.802   0.351   7.414 -0.0613 -1.2353 -0.2524
   88CHL1  H19C 8961   3.899   0.505   7.404 -0.5287 -0.1740  0.5359
   88CHL1    C1 8962   4.115   0.424   7.259 -0.2545 -0.0516  0.1234
   88CHL1   H1A 8963   4.117   0.518   7.318 -3.6563  0.1461  0.0230
   88CHL1   H1B 8964   4.211   0.368   7.260 -0.1426  0.1182  3.0518
   88CHL1    C2 8965   4.070   0.455   7.119  0.5974 -0.1289 -0.0148
   88CHL1   H2A 8966   4.149   0.511   7.064 -0.2357  1.0468 -0.0451
   88CHL1   H2B 8967   3.980   0.519   7.105 -0.9084 -1.9709  1.1007
   88CHL1   C20 8968   4.041   0.247   8.024 -0.3827 -0.1721  0.3752
   88CHL1   H20 8969   3.937   0.285   8.028 -0.0948  0.6068  0.5819
   88CHL1   C21 8970   4.123   0.375   8.040  0.4213  0.4297  0.1112
   88CHL1  H21A 8971   4.100   0.454   7.966  1.3517 -0.6426 -1.3392
   88CHL1  H21B 8972   4.233   0.361   8.035  0.1946 -2.7317  2.4311
   88CHL1  H21C 8973   4.100   0.430   8.134  0.4827  0.6392  0.0016
   88CHL1   C22 8974   4.062   0.163   8.153  0.0408 -0.2357 -1.0189
   88CHL1  H22A 8975   4.024   0.061   8.133 -0.4498 -0.1570 -0.5208
   88CHL1  H22B 8976   4.163   0.135   8.189 -2.1117 -0.4521  5.6032
   88CHL1   C23 8977   3.986   0.212   8.277  0.2172 -0.4177 -0.9464
   88CHL1  H23A 8978   4.040   0.302   8.314  1.5975 -1.1683 -1.1200
   88CHL1  H23B 8979   3.890   0.247   8.233  0.0863 -1.4803 -1.5160
   88CHL1   C24 8980   3.955   0.108   8.386  0.0314  0.3048 -0.0608
   88CHL1  H24A 8981   3.907   0.019   8.339  1.8950  0.2374 -1.8905
   88CHL1  H24B 8982   4.054   0.063   8.411 -0.3414 -1.0022 -0.8869
   88CHL1   C25 8983   3.897   0.158   8.518  0.0815 -0.5956 -0.0079
   88CHL1   H25 8984   3.803   0.216   8.506 -0.4059 -0.8271  2.4407
   88CHL1   C26 8985   3.866   0.035   8.600 -0.0545 -0.3794  0.4924
   88CHL1  H26A 8986   3.796  -0.030   8.542  1.1566  1.3632 -3.0516
   88CHL1  H26B 8987   3.941  -0.046   8.609 -1.1591 -1.4692  0.0038
   88CHL1  H26C 8988   3.813   0.054   8.696 -3.4702 -1.7504 -1.0162
   88CHL1   C27 8989   3.979   0.261   8.599 -0.0417 -0.4161  0.5330
   88CHL1  H27A 8990   4.080   0.221   8.622  0.2481  0.0553  0.0960
   88CHL1  H27B 8991   3.980   0.357   8.543 -0.7691 -1.4471 -1.2819
   88CHL1  H27C 8992   3.935   0.298   8.694 -0.5239 -0.1909  0.2249
   89CHL1    C3 8993   0.199   3.055   7.040  0.0420 -0.3770  0.8661
   89CHL1    H3 8994   0.091   3.062   7.065 -0.4638  2.9739 -1.8297
   89CHL1    O3 8995   0.227   3.058   6.901 -0.0540 -0.0596 -0.7905
   89CHL1   H3' 8996   0.321   3.040   6.897 -0.3846 -2.4452  0.7947
   89CHL1    C4 8997   0.273   3.178   7.101  0.4586  0.3727 -0.3856
   89CHL1   H4A 8998   0.380   3.152   7.083  0.7490  1.1358  0.2305
   89CHL1   H4B 8999   0.237   3.266   7.043  1.1199  1.4772  0.8483
   89CHL1    C5 9000   0.261   3.188   7.251 -0.0089  0.6366 -0.0203
   89CHL1    C6 9001   0.210   3.289   7.321 -0.0222  0.4361 -0.1870
   89CHL1    H6 9002   0.179   3.380   7.269 -1.2931  0.0791 -0.0850
   89CHL1    C7 9003   0.194   3.300   7.471 -0.2968  0.0461  0.3238
   89CHL1   H7A 9004   0.240   3.398   7.496 -0.1168  0.4008 -1.3631
   89CHL1   H7B 9005   0.087   3.305   7.499  0.0313 -1.2800  1.9083
   89CHL1    C8 9006   0.275   3.174   7.536  0.4767  0.4131  0.8979
   89CHL1    H8 9007   0.377   3.214   7.518  0.5548  0.4880  1.4686
   89CHL1   C14 9008   0.240   3.170   7.677 -0.1171  0.7887  0.1441
   89CHL1   H14 9009   0.131   3.150   7.683  0.4660 -2.9870 -1.2129
   89CHL1   C15 9010   0.260   3.295   7.761  0.2057  0.5806 -0.2687
   89CHL1  H15A 9011   0.360   3.343   7.750  1.1698 -0.6038  2.9165
   89CHL1  H15B 9012   0.183   3.371   7.734  1.1079  1.1403 -1.3282
   89CHL1   C16 9013   0.251   3.239   7.911  0.0350 -0.0093 -0.0613
   89CHL1  H16A 9014   0.336   3.278   7.970  0.2172  0.4895 -0.6517
   89CHL1  H16B 9015   0.156   3.274   7.958 -0.4491  0.2745 -1.2196
   89CHL1   C17 9016   0.248   3.084   7.898 -0.3280 -0.0686  0.2804
   89CHL1   H17 9017   0.140   3.057   7.897 -0.1275 -0.9909  1.3392
   89CHL1   C13 9018   0.291   3.050   7.758 -0.2473  0.0354  0.7019
   89CHL1   C18 9019   0.442   3.054   7.739 -0.0213  0.0235  0.5464
   89CHL1  H18A 9020   0.504   3.130   7.792  0.1515 -0.5663  1.1981
   89CHL1  H18B 9021   0.476   2.956   7.778 -0.3714  0.1024  1.0561
   89CHL1  H18C 9022   0.474   3.073   7.634 -1.5060  3.1760  0.6118
   89CHL1   C12 9023   0.229   2.919   7.696  0.4910 -0.0911 -0.0977
   89CHL1  H12A 9024   0.279   2.832   7.744 -1.2316 -1.0766 -0.0752
   89CHL1  H12B 9025   0.119   2.920   7.712  0.1984  2.1227 -2.0153
   89CHL1   C11 9026   0.264   2.910   7.545  0.7131  0.7108  0.5914
   89CHL1  H11A 9027   0.368   2.875   7.533  0.8864  1.8323 -1.3449
   89CHL1  H11B 9028   0.192   2.835   7.506  2.5576 -0.9554  0.3065
   89CHL1    C9 9029   0.242   3.044   7.467 -0.2152  0.1256  0.0955
   89CHL1    H9 9030   0.131   3.044   7.465 -0.2210  1.2991  0.1608
   89CHL1   C10 9031   0.290   3.049   7.321  0.1032  0.2620 -0.0877
   89CHL1   C19 9032   0.440   3.018   7.336 -0.5181  0.7825  0.0934
   89CHL1  H19A 9033   0.459   2.909   7.348  1.7385  1.3483  2.3227
   89CHL1  H19B 9034   0.503   3.057   7.254 -1.3525 -1.5120 -1.7044
   89CHL1  H19C 9035   0.486   3.074   7.421  0.9702  1.9096 -1.4372
   89CHL1    C1 9036   0.222   2.935   7.246 -0.1157 -0.7589 -0.3377
   89CHL1   H1A 9037   0.262   2.838   7.283  1.8589 -0.1530 -0.7848
   89CHL1   H1B 9038   0.112   2.922   7.251 -0.3145  0.1701 -1.9696
   89CHL1    C2 9039   0.249   2.929   7.094  0.2552 -0.0853  0.0341
   89CHL1   H2A 9040   0.184   2.847   7.055 -0.6109  1.3358 -1.6248
   89CHL1   H2B 9041   0.353   2.899   7.068  1.4600  1.9108  2.3877
   89CHL1   C20 9042   0.312   3.003   8.009  0.3158 -0.4206 -0.0492
   89CHL1   H20 9043   0.335   2.901   7.973  2.4136  0.1793 -0.4727
   89CHL1   C21 9044   0.200   2.985   8.118 -0.3350  0.1095 -0.2170
   89CHL1  H21A 9045   0.230   2.903   8.186 -0.4879  0.3774  0.1760
   89CHL1  H21B 9046   0.104   2.942   8.081 -0.4404 -1.0267  1.3455
   89CHL1  H21C 9047   0.184   3.073   8.184 -0.8773 -0.2418  0.1308
   89CHL1   C22 9048   0.438   3.058   8.079 -0.5236  0.4226  0.8262
   89CHL1  H22A 9049   0.515   3.097   8.008 -0.0621 -0.8877  0.5826
   89CHL1  H22B 9050   0.401   3.147   8.133  0.7081  0.9841  0.7744
   89CHL1   C23 9051   0.500   2.962   8.181 -0.2861 -0.8450 -0.6363
   89CHL1  H23A 9052   0.439   2.955   8.274  1.3113  0.9691  0.5950
   89CHL1  H23B 9053   0.498   2.860   8.137  0.4227 -0.9404 -0.4572
   89CHL1   C24 9054   0.655   2.992   8.219 -0.0558 -0.1289 -0.5632
   89CHL1  H24A 9055   0.716   2.978   8.127  2.5467 -1.4981  1.3136
   89CHL1  H24B 9056   0.661   3.093   8.266  0.8809  0.0584 -1.0675
   89CHL1   C25 9057   0.716   2.904   8.329  0.1545 -0.9278 -0.1362
   89CHL1   H25 9058   0.646   2.892   8.415  1.2507 -1.2010  0.7293
   89CHL1   C26 9059   0.757   2.769   8.267 -0.2314  0.2972 -0.0629
   89CHL1  H26A 9060   0.807   2.697   8.335 -0.4461 -2.2227 -2.4532
   89CHL1  H26B 9061   0.669   2.721   8.218 -0.6647 -1.0024  1.9626
   89CHL1  H26C 9062   0.830   2.793   8.187 -1.0589  2.8656 -0.0995
   89CHL1   C27 9063   0.845   2.962   8.390 -0.5134  0.2203  0.2401
   89CHL1  H27A 9064   0.813   3.065   8.417  0.0299  0.1040  1.3380
   89CHL1  H27B 9065   0.875   2.912   8.484  0.3564  1.3394  0.5761
   89CHL1  H27C 9066   0.928   2.971   8.316  0.6006 -0.8357  1.3497
   90CHL1    C3 9067   0.293   4.896   6.798 -0.3046  0.1900 -0.0039
   90CHL1    H3 9068   0.184   4.877   6.801 -0.7450  2.6407  2.4278
   90CHL1    O3 9069   0.336   4.921   6.667  0.2802 -0.1132 -0.6722
   90CHL1   H3' 9070   0.424   4.957   6.669 -0.5014  1.8157  0.3464
   90CHL1    C4 9071   0.344   5.016   6.878 -0.0355 -0.0459  0.3886
   90CHL1   H4A 9072   0.452   5.039   6.869  0.0809 -0.9085 -0.4693
   90CHL1   H4B 9073   0.298   5.113   6.849  0.1719 -0.4468 -1.3211
   90CHL1    C5 9074   0.311   4.996   7.025  0.6642  0.9617 -0.2607
   90CHL1    C6 9075   0.235   5.086   7.088  0.4691  0.6211  0.1201
   90CHL1    H6 9076   0.210   5.180   7.037  0.0467  0.8293  0.6939
   90CHL1    C7 9077   0.182   5.058   7.231  0.5917  0.1014 -0.0920
   90CHL1   H7A 9078   0.156   5.150   7.287  1.3826 -0.7111  1.6166
   90CHL1   H7B 9079   0.084   5.004   7.228  0.5676  0.1107  0.5122
   90CHL1    C8 9080   0.279   4.964   7.306 -0.1391 -0.1268  0.1761
   90CHL1    H8 9081   0.378   5.012   7.317  1.2384 -2.6597 -0.7015
   90CHL1   C14 9082   0.228   4.934   7.449  0.8169  0.2927 -0.9194
   90CHL1   H14 9083   0.136   4.874   7.436 -0.2411  2.0535 -1.7714
   90CHL1   C15 9084   0.183   5.057   7.537 -0.3798  1.2690  0.2526
   90CHL1  H15A 9085   0.255   5.141   7.530  1.3224 -0.2753 -1.3773
   90CHL1  H15B 9086   0.078   5.080   7.510 -1.0409 -3.4735 -1.8304
   90CHL1   C16 9087   0.194   4.999   7.680  0.1783  0.2184 -0.6664
   90CHL1  H16A 9088   0.259   5.069   7.737  0.7282 -1.4445  0.8178
   90CHL1  H16B 9089   0.101   4.994   7.740 -0.8143  3.0222 -1.8996
   90CHL1   C17 9090   0.250   4.849   7.667 -0.0463  0.2786 -0.1428
   90CHL1   H17 9091   0.163   4.782   7.649 -0.4391  0.4951  0.8888
   90CHL1   C13 9092   0.327   4.842   7.532 -0.1438 -0.7214 -0.7005
   90CHL1   C18 9093   0.469   4.901   7.557  0.0197  0.0594  0.3804
   90CHL1  H18A 9094   0.520   4.911   7.459 -0.9378  3.1004  0.1467
   90CHL1  H18B 9095   0.463   4.997   7.612 -2.3634 -0.4572  1.0832
   90CHL1  H18C 9096   0.524   4.820   7.610 -1.6540 -2.3022 -1.3367
   90CHL1   C12 9097   0.333   4.710   7.455 -1.1963  0.2813 -0.4452
   90CHL1  H12A 9098   0.400   4.640   7.508 -1.3651 -0.1215 -0.7630
   90CHL1  H12B 9099   0.232   4.671   7.427 -0.5977 -0.9549 -0.9129
   90CHL1   C11 9100   0.386   4.727   7.310 -0.4256  0.0289  0.6855
   90CHL1  H11A 9101   0.491   4.762   7.322 -0.1348 -0.5181 -0.1986
   90CHL1  H11B 9102   0.398   4.636   7.246  0.5804 -1.4995  2.9951
   90CHL1    C9 9103   0.304   4.836   7.232  0.1699 -0.6240 -0.1574
   90CHL1    H9 9104   0.204   4.790   7.215 -0.3683  0.5140 -0.0975
   90CHL1   C10 9105   0.362   4.859   7.092 -0.2209 -0.6359  0.3799
   90CHL1   C19 9106   0.510   4.871   7.103 -0.7043 -0.4189 -0.1711
   90CHL1  H19A 9107   0.550   4.769   7.119 -2.2558 -1.1710 -0.9202
   90CHL1  H19B 9108   0.565   4.902   7.011 -1.9425  0.3187 -0.6830
   90CHL1  H19C 9109   0.541   4.934   7.188 -0.4734  0.1377 -0.6675
   90CHL1    C1 9110   0.331   4.741   6.998  0.4936 -1.5601  0.3976
   90CHL1   H1A 9111   0.387   4.651   7.034  1.5434 -1.3606 -0.6801
   90CHL1   H1B 9112   0.222   4.722   7.007 -0.0748  0.1841 -2.2552
   90CHL1    C2 9113   0.366   4.766   6.846 -0.1446  0.2755 -0.0313
   90CHL1   H2A 9114   0.332   4.674   6.794  2.7253 -2.4412  2.6324
   90CHL1   H2B 9115   0.477   4.764   6.838 -0.1230 -0.3652  0.3735
   90CHL1   C20 9116   0.319   4.787   7.790 -0.2846 -0.2334  0.2243
   90CHL1   H20 9117   0.421   4.829   7.804 -0.9394  1.6179 -0.4566
   90CHL1   C21 9118   0.347   4.635   7.775  0.2529  0.2812 -0.1940
   90CHL1  H21A 9119   0.250   4.589   7.746 -0.3221  1.7110 -0.6009
   90CHL1  H21B 9120   0.386   4.583   7.865  3.5166  1.3724 -0.9270
   90CHL1  H21C 9121   0.422   4.604   7.699 -1.6691 -0.7240 -1.7493
   90CHL1   C22 9122   0.239   4.816   7.917  0.7393 -0.3754 -0.7740
   90CHL1  H22A 9123   0.211   4.922   7.936 -0.3356 -0.7145 -0.4237
   90CHL1  H22B 9124   0.141   4.767   7.895  1.0604 -1.4585  0.1225
   90CHL1   C23 9125   0.303   4.758   8.047  0.3929 -0.0913  0.3819
   90CHL1  H23A 9126   0.320   4.648   8.042 -2.2066 -0.4421 -1.9852
   90CHL1  H23B 9127   0.402   4.805   8.066  1.1221 -0.8174 -1.4276
   90CHL1   C24 9128   0.223   4.792   8.170  0.1171  0.5218  0.3578
   90CHL1  H24A 9129   0.204   4.902   8.166  0.2949  0.5535  0.3797
   90CHL1  H24B 9130   0.123   4.743   8.171 -0.1986  1.1663  1.9171
   90CHL1   C25 9131   0.292   4.763   8.305 -0.1063  0.5034  0.4190
   90CHL1   H25 9132   0.218   4.770   8.388  0.7570  1.0007  1.1455
   90CHL1   C26 9133   0.349   4.621   8.308 -0.6665 -0.7758  0.5166
   90CHL1  H26A 9134   0.439   4.613   8.244  0.1208 -0.9103  1.6139
   90CHL1  H26B 9135   0.398   4.609   8.407 -0.8116 -0.7210  0.5946
   90CHL1  H26C 9136   0.274   4.539   8.299 -3.2902  1.5933  0.3376
   90CHL1   C27 9137   0.409   4.857   8.333  0.8845  0.6537 -0.1875
   90CHL1  H27A 9138   0.368   4.956   8.362 -1.7642 -0.2820 -0.5997
   90CHL1  H27B 9139   0.469   4.813   8.415 -0.9620 -0.8992  0.3829
   90CHL1  H27C 9140   0.483   4.860   8.250  0.0774  0.2944 -0.9347
   91CHL1    C3 9141   1.693   6.380   7.381 -0.3448  0.6480 -0.8319
   91CHL1    H3 9142   1.583   6.388   7.394 -0.3249 -0.4419  0.0705
   91CHL1    O3 9143   1.725   6.401   7.245  0.0539 -0.5664  0.7100
   91CHL1   H3' 9144   1.662   6.350   7.194  0.4017  1.9178 -2.3572
   91CHL1    C4 9145   1.773   6.490   7.463  0.5209 -0.1604  0.4527
   91CHL1   H4A 9146   1.882   6.490   7.445  0.3333  1.3530 -0.7468
   91CHL1   H4B 9147   1.724   6.586   7.435  0.9046  0.1051  0.6857
   91CHL1    C5 9148   1.755   6.462   7.614  0.4848  0.5980 -0.9404
   91CHL1    C6 9149   1.705   6.562   7.697 -0.2323 -0.1025 -0.0657
   91CHL1    H6 9150   1.685   6.663   7.661  0.7997  1.0608  2.4811
   91CHL1    C7 9151   1.713   6.537   7.844 -0.7210  0.3340 -0.2866
   91CHL1   H7A 9152   1.767   6.620   7.894  2.7896 -1.8133 -0.3977
   91CHL1   H7B 9153   1.607   6.524   7.875 -1.0162  0.1968 -1.3105
   91CHL1    C8 9154   1.788   6.410   7.906  0.4655 -0.1912 -0.2321
   91CHL1    H8 9155   1.896   6.435   7.916  0.5581 -0.5138 -0.4170
   91CHL1   C14 9156   1.745   6.380   8.050  0.0223  0.6939  0.5843
   91CHL1   H14 9157   1.640   6.343   8.044 -0.0015  0.9394 -0.7537
   91CHL1   C15 9158   1.745   6.495   8.153  0.0731  0.1342  0.0630
   91CHL1  H15A 9159   1.851   6.529   8.152 -0.0555  0.5290 -0.4437
   91CHL1  H15B 9160   1.680   6.581   8.127  1.1962  0.8013 -0.6060
   91CHL1   C16 9161   1.715   6.425   8.285  0.0398 -0.6633  0.2319
   91CHL1  H16A 9162   1.767   6.464   8.375 -2.0553 -1.0614  1.6611
   91CHL1  H16B 9163   1.604   6.429   8.293  0.0440 -0.9446  0.4653
   91CHL1   C17 9164   1.756   6.275   8.258 -0.5208  0.2289  0.8349
   91CHL1   H17 9165   1.654   6.234   8.245  0.0610 -0.2368 -2.8915
   91CHL1   C13 9166   1.816   6.258   8.116  0.1552 -0.4195 -0.5018
   91CHL1   C18 9167   1.967   6.284   8.126 -0.0751 -0.1024 -0.1582
   91CHL1  H18A 9168   2.018   6.198   8.175  1.1924 -0.1751 -1.5610
   91CHL1  H18B 9169   2.016   6.300   8.028 -0.5650  1.1539 -0.2019
   91CHL1  H18C 9170   1.985   6.370   8.193 -1.4453 -0.1463  0.2819
   91CHL1   C12 9171   1.782   6.131   8.029  0.5595  0.0588  0.7850
   91CHL1  H12A 9172   1.816   6.031   8.061 -1.7783 -0.8349  0.5427
   91CHL1  H12B 9173   1.672   6.121   8.026  0.8666 -3.5855 -0.5937
   91CHL1   C11 9174   1.827   6.163   7.885  0.0389  0.4232  0.3425
   91CHL1  H11A 9175   1.938   6.174   7.876 -0.1674  1.8978 -0.7177
   91CHL1  H11B 9176   1.790   6.078   7.823 -0.2116  1.5647 -1.1169
   91CHL1    C9 9177   1.765   6.287   7.822 -0.0592 -0.0270  0.1873
   91CHL1    H9 9178   1.655   6.269   7.816 -0.3788  1.9803 -0.3611
   91CHL1   C10 9179   1.793   6.317   7.670 -0.0388  0.1229 -0.5045
   91CHL1   C19 9180   1.949   6.312   7.656  0.4429  0.3292  0.5128
   91CHL1  H19A 9181   1.967   6.329   7.548  1.5095 -0.3515  0.5727
   91CHL1  H19B 9182   2.006   6.385   7.718  1.8905 -0.5458  0.2459
   91CHL1  H19C 9183   1.987   6.211   7.682  0.8761  0.5873  0.8832
   91CHL1    C1 9184   1.728   6.207   7.573  0.9840  0.5702  0.6739
   91CHL1   H1A 9185   1.765   6.106   7.601 -1.0841  0.1663  2.0824
   91CHL1   H1B 9186   1.622   6.211   7.609  0.3505  0.5885 -1.1350
   91CHL1    C2 9187   1.734   6.230   7.421  0.4898  0.3858 -0.4530
   91CHL1   H2A 9188   1.661   6.169   7.364 -1.4530  2.3812 -0.1601
   91CHL1   H2B 9189   1.836   6.202   7.388 -0.0533 -0.0998 -1.7538
   91CHL1   C20 9190   1.809   6.213   8.387  0.0696  0.7162  0.5790
   91CHL1   H20 9191   1.906   6.264   8.406  0.0952  1.4013 -1.3258
   91CHL1   C21 9192   1.827   6.059   8.367 -0.7126 -0.9986 -0.9722
   91CHL1  H21A 9193   1.729   6.009   8.354 -1.0240 -0.2382 -1.5668
   91CHL1  H21B 9194   1.866   6.027   8.466 -1.5924 -1.0066 -0.6278
   91CHL1  H21C 9195   1.894   6.036   8.282  1.0009 -0.3873  0.1867
   91CHL1   C22 9196   1.717   6.238   8.510  0.2821 -0.3273  0.4921
   91CHL1  H22A 9197   1.690   6.345   8.515 -1.8158 -0.8366  0.7679
   91CHL1  H22B 9198   1.623   6.185   8.482 -1.6622  1.7061  2.8603
   91CHL1   C23 9199   1.777   6.197   8.645  0.3001 -0.2439 -0.9731
   91CHL1  H23A 9200   1.704   6.231   8.721  0.5113 -0.3756 -0.7111
   91CHL1  H23B 9201   1.778   6.086   8.642 -1.4956 -0.3713  1.6281
   91CHL1   C24 9202   1.910   6.273   8.671 -0.0113  0.7301 -0.5718
   91CHL1  H24A 9203   1.981   6.229   8.598 -0.7917 -0.6696 -0.5165
   91CHL1  H24B 9204   1.882   6.378   8.653 -2.6089 -0.1652 -1.9702
   91CHL1   C25 9205   1.966   6.250   8.816  0.6517  0.0328  0.2639
   91CHL1   H25 9206   1.902   6.287   8.899 -0.5328 -2.6459  0.6228
   91CHL1   C26 9207   2.004   6.109   8.833 -0.4843 -0.2432  0.3403
   91CHL1  H26A 9208   1.914   6.045   8.840 -1.1932  0.6157 -0.6864
   91CHL1  H26B 9209   2.064   6.069   8.749  2.1773 -0.3145  2.1789
   91CHL1  H26C 9210   2.071   6.104   8.922 -0.5888  1.4470  0.5361
   91CHL1   C27 9211   2.094   6.336   8.828 -0.1685 -0.1464 -0.2764
   91CHL1  H27A 9212   2.160   6.332   8.738  0.7197  2.4950  0.2026
   91CHL1  H27B 9213   2.069   6.443   8.841  0.0012  0.0928 -1.7282
   91CHL1  H27C 9214   2.160   6.310   8.913 -0.3054 -0.8609 -0.3908
   92CHL1    C3 9215   4.695   1.223   6.971 -0.5072 -0.1325  0.6935
   92CHL1    H3 9216   4.794   1.258   7.009  1.5192 -3.0335 -1.6671
   92CHL1    O3 9217   4.690   1.233   6.829  0.1969  0.2745 -0.3196
   92CHL1   H3' 9218   4.599   1.218   6.803  0.0515 -0.6394  0.6938
   92CHL1    C4 9219   4.680   1.076   7.019  0.5045  0.1308 -0.0055
   92CHL1   H4A 9220   4.591   1.033   6.969  0.3126 -0.3366  0.7343
   92CHL1   H4B 9221   4.767   1.020   6.981  1.3271  1.7224 -0.5278
   92CHL1    C5 9222   4.666   1.064   7.167  0.7080  0.7110 -0.3752
   92CHL1    C6 9223   4.746   0.987   7.248 -0.1794  0.0621  0.5293
   92CHL1    H6 9224   4.820   0.927   7.194 -1.2521  0.6208 -1.6346
   92CHL1    C7 9225   4.713   0.966   7.392  0.1204  0.4675 -0.5544
   92CHL1   H7A 9226   4.707   0.856   7.408  3.4861  0.3733  0.3241
   92CHL1   H7B 9227   4.790   1.003   7.462  1.4217  1.7748 -2.6516
   92CHL1    C8 9228   4.579   1.026   7.445 -0.4916  0.6074 -0.2359
   92CHL1    H8 9229   4.502   0.952   7.415  0.9586 -0.5054 -1.2895
   92CHL1   C14 9230   4.581   1.045   7.595  0.7529  0.0208  0.0792
   92CHL1   H14 9231   4.662   1.121   7.596 -0.1280  1.1007 -2.8185
   92CHL1   C15 9232   4.617   0.920   7.675 -0.8091  0.7428  0.2241
   92CHL1  H15A 9233   4.550   0.834   7.655 -0.3488  0.5645 -0.5921
   92CHL1  H15B 9234   4.721   0.883   7.660 -1.4225  0.4598 -3.8372
   92CHL1   C16 9235   4.583   0.963   7.816 -0.7094  0.6215 -0.0789
   92CHL1  H16A 9236   4.510   0.889   7.854 -0.1967 -0.4554 -1.1268
   92CHL1  H16B 9237   4.669   0.977   7.884  0.5589  2.0781 -1.9329
   92CHL1   C17 9238   4.508   1.100   7.809  0.1503 -0.2409  0.1561
   92CHL1   H17 9239   4.588   1.177   7.815  0.5646 -0.5746 -0.8639
   92CHL1   C13 9240   4.463   1.110   7.662  0.0999 -0.3669  0.3503
   92CHL1   C18 9241   4.335   1.020   7.642 -0.3287  0.5710  0.3928
   92CHL1  H18A 9242   4.246   1.059   7.697 -1.4085 -1.4916  0.1527
   92CHL1  H18B 9243   4.313   1.013   7.533 -0.1330  0.0825  0.3861
   92CHL1  H18C 9244   4.358   0.916   7.673 -2.8460 -0.5891 -1.4093
   92CHL1   C12 9245   4.444   1.248   7.605  0.3579 -0.1743  0.0786
   92CHL1  H12A 9246   4.347   1.290   7.637  0.3561  0.0526 -0.2193
   92CHL1  H12B 9247   4.534   1.306   7.634  0.1420  0.0902  0.2221
   92CHL1   C11 9248   4.430   1.240   7.451 -0.5041 -0.0154 -0.4439
   92CHL1  H11A 9249   4.328   1.206   7.423 -0.4975  0.8561 -1.5918
   92CHL1  H11B 9250   4.431   1.345   7.413  2.9734  0.7036  1.4124
   92CHL1    C9 9251   4.550   1.162   7.380 -0.0926 -0.2199  0.5829
   92CHL1    H9 9252   4.637   1.228   7.401 -0.1977  0.5469 -1.2940
   92CHL1   C10 9253   4.552   1.148   7.227 -0.0083  0.0495  0.1201
   92CHL1   C19 9254   4.413   1.090   7.181  0.0551 -0.4405  0.5846
   92CHL1  H19A 9255   4.321   1.151   7.193 -0.1299 -0.7592  0.8083
   92CHL1  H19B 9256   4.416   1.060   7.075 -0.6737 -0.3392  0.5350
   92CHL1  H19C 9257   4.403   0.996   7.239 -4.1579 -0.1764  0.4427
   92CHL1    C1 9258   4.564   1.295   7.176 -0.5135 -0.0194 -0.3011
   92CHL1   H1A 9259   4.479   1.358   7.212  0.8803  1.0005  1.2588
   92CHL1   H1B 9260   4.656   1.340   7.219  0.2398 -0.0814 -1.8394
   92CHL1    C2 9261   4.573   1.303   7.026  0.4097  0.2994  0.2776
   92CHL1   H2A 9262   4.596   1.408   6.998  0.7596  0.2208  0.2669
   92CHL1   H2B 9263   4.473   1.277   6.987  0.1031 -2.8564  2.9025
   92CHL1   C20 9264   4.400   1.135   7.914  0.0801 -0.0459  0.4928
   92CHL1   H20 9265   4.306   1.173   7.869  0.3373  2.1508  1.7301
   92CHL1   C21 9266   4.467   1.255   7.990 -0.2867 -0.2990  0.3137
   92CHL1  H21A 9267   4.407   1.291   8.077  0.8850 -2.4886  2.0736
   92CHL1  H21B 9268   4.476   1.347   7.928 -1.1545 -0.6221 -0.3006
   92CHL1  H21C 9269   4.561   1.218   8.036 -0.3991  0.2055  0.9615
   92CHL1   C22 9270   4.349   1.010   7.991 -0.4137 -0.0081 -0.4307
   92CHL1  H22A 9271   4.311   0.934   7.919  0.4518 -2.1766  1.3194
   92CHL1  H22B 9272   4.425   0.957   8.052  0.8984  1.2377 -0.9770
   92CHL1   C23 9273   4.231   1.060   8.083  0.5417 -1.4326 -0.4742
   92CHL1  H23A 9274   4.247   1.161   8.125  1.0579 -1.4387 -0.6627
   92CHL1  H23B 9275   4.150   1.068   8.007  0.1239  1.1427  0.1910
   92CHL1   C24 9276   4.194   0.962   8.193 -0.2387 -0.1323 -0.8004
   92CHL1  H24A 9277   4.162   0.863   8.154  1.5887 -0.6365 -1.0273
   92CHL1  H24B 9278   4.292   0.953   8.243 -0.8016  0.0335  0.3415
   92CHL1   C25 9279   4.077   1.001   8.293  0.0498 -1.3344  0.5823
   92CHL1   H25 9280   4.063   0.904   8.345 -0.7491 -0.8200  1.3391
   92CHL1   C26 9281   4.121   1.102   8.401  0.7435 -0.1959 -0.4726
   92CHL1  H26A 9282   4.206   1.068   8.464  0.0643  2.2789  1.8526
   92CHL1  H26B 9283   4.149   1.193   8.344 -1.3226 -1.1882 -3.2118
   92CHL1  H26C 9284   4.032   1.129   8.462  1.2468  0.9225 -0.2226
   92CHL1   C27 9285   3.952   1.061   8.226 -0.6950  0.2952 -0.0026
   92CHL1  H27A 9286   3.982   1.155   8.175  0.4243  0.1457  0.3704
   92CHL1  H27B 9287   3.904   0.995   8.151 -0.4049  1.1071 -0.9108
   92CHL1  H27C 9288   3.874   1.084   8.302 -0.8500  1.2598 -0.4476
   93CHL1    C3 9289   3.308   5.739   6.836 -0.0968  0.1068 -0.7213
   93CHL1    H3 9290   3.383   5.820   6.851  0.1420 -0.0896 -0.8593
   93CHL1    O3 9291   3.293   5.729   6.699  0.0866 -0.3869 -0.5149
   93CHL1   H3' 9292   3.263   5.638   6.691 -0.3065 -0.2891 -0.1570
   93CHL1    C4 9293   3.374   5.605   6.881  1.2350 -0.4843  0.3943
   93CHL1   H4A 9294   3.308   5.523   6.845  2.1962 -1.1314  0.1084
   93CHL1   H4B 9295   3.476   5.597   6.838  1.0148  0.4755 -0.3223
   93CHL1    C5 9296   3.384   5.576   7.030 -0.1839  0.4361 -0.0639
   93CHL1    C6 9297   3.498   5.533   7.083  0.3733  0.9540  0.2529
   93CHL1    H6 9298   3.591   5.523   7.026 -0.2700  3.5082 -1.3173
   93CHL1    C7 9299   3.516   5.523   7.232  0.2894  0.1142  0.2997
   93CHL1   H7A 9300   3.560   5.424   7.257 -0.1508 -0.6738 -1.9906
   93CHL1   H7B 9301   3.591   5.596   7.269 -0.8083  0.5814  1.6706
   93CHL1    C8 9302   3.396   5.523   7.315  0.5057 -0.4006  0.2314
   93CHL1    H8 9303   3.348   5.425   7.294  1.9132 -0.8586 -0.9426
   93CHL1   C14 9304   3.434   5.537   7.462 -0.0960 -0.0495 -0.0112
   93CHL1   H14 9305   3.478   5.638   7.475  0.8921 -0.7412  2.1656
   93CHL1   C15 9306   3.540   5.446   7.517  0.2908 -0.3520 -0.5901
   93CHL1  H15A 9307   3.534   5.340   7.482 -0.8479 -0.1737 -0.9428
   93CHL1  H15B 9308   3.641   5.484   7.491  0.2089  0.6953  0.5830
   93CHL1   C16 9309   3.512   5.459   7.669  0.4403 -0.8188 -0.1550
   93CHL1  H16A 9310   3.526   5.362   7.722  1.1452  0.0432  1.2505
   93CHL1  H16B 9311   3.590   5.526   7.709 -1.6500  2.3897 -1.2124
   93CHL1   C17 9312   3.372   5.525   7.686 -0.1181 -0.1887 -0.0379
   93CHL1   H17 9313   3.380   5.633   7.713  1.4364  0.2555 -2.1251
   93CHL1   C13 9314   3.312   5.526   7.551 -0.4372 -0.1283 -0.1561
   93CHL1   C18 9315   3.241   5.395   7.525 -0.2675 -0.3578 -0.6087
   93CHL1  H18A 9316   3.189   5.389   7.427 -0.4577  2.9182 -0.7560
   93CHL1  H18B 9317   3.312   5.309   7.531  0.8947  0.6235 -0.1061
   93CHL1  H18C 9318   3.156   5.391   7.596  1.2429 -1.4062  1.2084
   93CHL1   C12 9319   3.224   5.650   7.511 -0.7601  0.3865  0.8207
   93CHL1  H12A 9320   3.135   5.631   7.576 -0.1262 -1.4933  1.1756
   93CHL1  H12B 9321   3.262   5.749   7.544 -0.5242  0.2084  1.0794
   93CHL1   C11 9322   3.188   5.665   7.367 -0.3433 -0.7304 -0.7962
   93CHL1  H11A 9323   3.118   5.580   7.354 -0.0225 -1.1046 -0.0921
   93CHL1  H11B 9324   3.133   5.758   7.342  0.3650 -0.0276  0.2293
   93CHL1    C9 9325   3.303   5.636   7.270 -0.2666 -0.6074  0.7065
   93CHL1    H9 9326   3.369   5.726   7.276 -0.0481 -0.5918 -1.6649
   93CHL1   C10 9327   3.266   5.621   7.117 -0.0046  0.6097  0.0070
   93CHL1   C19 9328   3.149   5.517   7.104 -0.1934  0.1145 -0.3505
   93CHL1  H19A 9329   3.054   5.574   7.110  0.3066  0.9688 -0.3733
   93CHL1  H19B 9330   3.141   5.473   7.003 -2.5612 -0.7760  0.2067
   93CHL1  H19C 9331   3.157   5.430   7.172  0.6204 -0.3080 -0.9762
   93CHL1    C1 9332   3.219   5.764   7.067  0.1459 -0.0511 -0.0022
   93CHL1   H1A 9333   3.132   5.802   7.124  2.0041  1.3248  2.0039
   93CHL1   H1B 9334   3.304   5.833   7.088 -0.1184  0.0160  0.8389
   93CHL1    C2 9335   3.184   5.771   6.913 -0.0863  0.1465 -0.4270
   93CHL1   H2A 9336   3.149   5.873   6.886  1.4867  0.2067 -2.3604
   93CHL1   H2B 9337   3.105   5.696   6.894  0.3136 -0.2850 -0.3837
   93CHL1   C20 9338   3.292   5.469   7.802  0.2406  0.0450  0.4332
   93CHL1   H20 9339   3.251   5.370   7.772 -3.1249  1.5616 -0.2961
   93CHL1   C21 9340   3.162   5.558   7.823 -0.4469 -0.5855 -0.3554
   93CHL1  H21A 9341   3.194   5.664   7.825 -2.5036  0.0734 -0.4833
   93CHL1  H21B 9342   3.097   5.546   7.913 -0.7179  0.1774 -0.4432
   93CHL1  H21C 9343   3.092   5.541   7.738  0.8446  2.2071 -2.0337
   93CHL1   C22 9344   3.378   5.480   7.931  0.3571  0.0436  0.0487
   93CHL1  H22A 9345   3.448   5.566   7.930  0.0668  0.2978  0.7423
   93CHL1  H22B 9346   3.307   5.511   8.012  3.6957  3.0356  1.9590
   93CHL1   C23 9347   3.437   5.345   7.988 -0.3384  0.0670 -0.1690
   93CHL1  H23A 9348   3.357   5.269   8.001  0.2898 -0.4077  1.0671
   93CHL1  H23B 9349   3.522   5.301   7.933 -1.1499 -0.0593 -1.3410
   93CHL1   C24 9350   3.473   5.369   8.139  0.4371 -0.4285 -0.5521
   93CHL1  H24A 9351   3.560   5.438   8.139 -1.9603  2.7613 -2.1107
   93CHL1  H24B 9352   3.382   5.412   8.186  0.3985  0.2955 -1.2798
   93CHL1   C25 9353   3.489   5.243   8.224  0.2842  0.5433 -0.0175
   93CHL1   H25 9354   3.399   5.179   8.221  0.8125 -0.1881 -0.5625
   93CHL1   C26 9355   3.605   5.161   8.171 -0.5170 -0.3315  0.0806
   93CHL1  H26A 9356   3.708   5.201   8.183 -0.4419  0.2602 -2.2011
   93CHL1  H26B 9357   3.605   5.064   8.225 -0.0197 -0.7754 -0.6977
   93CHL1  H26C 9358   3.593   5.153   8.061 -1.2328 -0.4047  0.1596
   93CHL1   C27 9359   3.513   5.282   8.369  0.8788 -0.4537  0.1126
   93CHL1  H27A 9360   3.541   5.194   8.432 -1.8057 -1.2995  0.1927
   93CHL1  H27B 9361   3.595   5.356   8.363 -1.0433  1.6607 -0.8162
   93CHL1  H27C 9362   3.425   5.329   8.418  1.0414  0.4561 -0.4666
   94CHL1    C3 9363   5.785   1.425   6.928  1.1411 -0.1319  0.6857
   94CHL1    H3 9364   5.766   1.324   6.969  0.6534 -0.9681 -1.5281
   94CHL1    O3 9365   5.816   1.416   6.790 -0.2931  0.6734 -0.0481
   94CHL1   H3' 9366   5.837   1.502   6.754 -2.1867  1.2616  0.2166
   94CHL1    C4 9367   5.672   1.522   6.939  0.6002  0.3779 -0.4046
   94CHL1   H4A 9368   5.698   1.624   6.902  0.8479  1.0499  1.5504
   94CHL1   H4B 9369   5.594   1.481   6.871 -0.0069  1.0962 -0.1529
   94CHL1    C5 9370   5.625   1.531   7.089 -0.4063  0.5642  0.1770
   94CHL1    C6 9371   5.508   1.489   7.137 -0.1416  0.0810 -0.1030
   94CHL1    H6 9372   5.444   1.436   7.065  0.8139 -3.2301  1.3947
   94CHL1    C7 9373   5.479   1.502   7.285 -0.3165  1.0086  0.5519
   94CHL1   H7A 9374   5.375   1.536   7.303 -0.4259  0.3067  1.2616
   94CHL1   H7B 9375   5.492   1.403   7.333  1.6306  0.8520 -0.2478
   94CHL1    C8 9376   5.571   1.600   7.362  0.6668 -0.1596 -0.0994
   94CHL1    H8 9377   5.551   1.701   7.321  0.7658  0.2633  0.8808
   94CHL1   C14 9378   5.539   1.592   7.512  0.4591  0.5498  0.2226
   94CHL1   H14 9379   5.578   1.491   7.541  0.5140  0.9963  1.7728
   94CHL1   C15 9380   5.395   1.592   7.564  0.4811 -0.3953  0.0960
   94CHL1  H15A 9381   5.328   1.663   7.510  0.5439 -1.2028 -1.0611
   94CHL1  H15B 9382   5.345   1.499   7.532  2.8208 -0.9986 -1.9900
   94CHL1   C16 9383   5.413   1.622   7.710  0.2869 -0.8559  0.6514
   94CHL1  H16A 9384   5.363   1.718   7.735 -1.8055 -1.2052 -2.0455
   94CHL1  H16B 9385   5.365   1.539   7.766 -2.6958  1.3846  1.5403
   94CHL1   C17 9386   5.563   1.638   7.741  0.1704  0.0902  0.5766
   94CHL1   H17 9387   5.619   1.544   7.760 -0.1735 -0.5958 -1.6898
   94CHL1   C13 9388   5.621   1.684   7.606  0.9680  0.7828  0.1836
   94CHL1   C18 9389   5.584   1.834   7.579 -0.3196  0.3389  0.4789
   94CHL1  H18A 9390   5.604   1.873   7.477  0.5236  2.3739  1.4022
   94CHL1  H18B 9391   5.483   1.869   7.606 -0.8320 -0.1974 -0.7200
   94CHL1  H18C 9392   5.655   1.884   7.649  0.6651 -2.4146  1.5423
   94CHL1   C12 9393   5.769   1.649   7.569  0.4945 -0.5040  0.1695
   94CHL1  H12A 9394   5.824   1.717   7.637 -0.9182  0.1615  0.6702
   94CHL1  H12B 9395   5.794   1.547   7.606 -0.2060 -0.1135  1.7862
   94CHL1   C11 9396   5.810   1.652   7.422  0.1854 -0.2490 -1.0164
   94CHL1  H11A 9397   5.791   1.756   7.391  0.3721 -0.0615 -0.5028
   94CHL1  H11B 9398   5.919   1.629   7.413  0.5549  1.1270 -0.1029
   94CHL1    C9 9399   5.721   1.567   7.330 -0.2112 -1.1818 -1.2095
   94CHL1    H9 9400   5.744   1.463   7.360  0.9973 -0.2109  1.3822
   94CHL1   C10 9401   5.746   1.585   7.176  0.1271 -0.4650 -0.2548
   94CHL1   C19 9402   5.751   1.740   7.146  0.2038  0.2031 -0.0030
   94CHL1  H19A 9403   5.841   1.791   7.187  0.7400 -0.6245 -0.1343
   94CHL1  H19B 9404   5.767   1.760   7.038 -1.0728  0.4081 -0.1584
   94CHL1  H19C 9405   5.670   1.797   7.194  0.9381  2.9989 -1.9904
   94CHL1    C1 9406   5.875   1.502   7.146  0.3554  0.4224 -0.2018
   94CHL1   H1A 9407   5.961   1.554   7.194  0.7705  0.3618 -0.8596
   94CHL1   H1B 9408   5.856   1.398   7.181  0.8335  0.7039  0.8904
   94CHL1    C2 9409   5.911   1.487   6.995  0.4816  0.2561 -0.1030
   94CHL1   H2A 9410   5.991   1.411   6.981  1.7333  2.0241 -2.9581
   94CHL1   H2B 9411   5.943   1.583   6.950  1.0800 -0.7114 -1.7681
   94CHL1   C20 9412   5.587   1.724   7.861 -0.4935  0.3343 -0.3943
   94CHL1   H20 9413   5.542   1.825   7.850 -0.5644  0.3802  0.3036
   94CHL1   C21 9414   5.742   1.732   7.876  0.5074 -0.1579 -0.1850
   94CHL1  H21A 9415   5.775   1.825   7.824  2.2121 -1.5224 -1.6138
   94CHL1  H21B 9416   5.797   1.645   7.835  1.8254  1.2884 -1.5909
   94CHL1  H21C 9417   5.777   1.731   7.982  1.9589 -3.1565 -0.6461
   94CHL1   C22 9418   5.524   1.657   7.986 -0.4360 -0.4557  0.1633
   94CHL1  H22A 9419   5.418   1.627   7.974 -0.3729 -0.5530 -0.1382
   94CHL1  H22B 9420   5.589   1.570   8.010  0.2304  0.3365  1.2858
   94CHL1   C23 9421   5.515   1.745   8.115  0.1187  0.3831 -0.0605
   94CHL1  H23A 9422   5.611   1.798   8.132  0.1397  0.0128  0.9671
   94CHL1  H23B 9423   5.434   1.817   8.090 -1.3045 -1.7168 -1.7978
   94CHL1   C24 9424   5.481   1.666   8.243  0.0513 -0.2718  0.1842
   94CHL1  H24A 9425   5.384   1.614   8.231 -0.5058  0.7926  0.0249
   94CHL1  H24B 9426   5.544   1.581   8.275  0.0069 -0.2009  0.4660
   94CHL1   C25 9427   5.469   1.759   8.370 -0.6274  0.3966 -0.2097
   94CHL1   H25 9428   5.388   1.834   8.368  0.5458  1.7711  2.0441
   94CHL1   C26 9429   5.434   1.670   8.494 -0.0595 -0.2931  0.1457
   94CHL1  H26A 9430   5.520   1.603   8.516  0.7188  1.0355  1.2188
   94CHL1  H26B 9431   5.433   1.728   8.589 -1.1095 -1.5750  0.9525
   94CHL1  H26C 9432   5.337   1.616   8.492 -1.3509  2.0275 -1.3430
   94CHL1   C27 9433   5.601   1.833   8.396  0.0032  0.8283  0.2567
   94CHL1  H27A 9434   5.601   1.916   8.323  0.5006  0.0005 -0.6944
   94CHL1  H27B 9435   5.611   1.874   8.499 -0.1736  1.8517 -0.1292
   94CHL1  H27C 9436   5.690   1.768   8.389  0.4545  1.5254 -0.5095
   95CHL1    C3 9437   5.012   0.639   6.614 -0.4349  0.2748 -0.1801
   95CHL1    H3 9438   5.078   0.552   6.594  0.3097  0.9351 -0.6021
   95CHL1    O3 9439   5.007   0.704   6.481 -0.3820  0.3617 -0.7208
   95CHL1   H3' 9440   4.941   0.771   6.502  1.0396  1.4240  0.4775
   95CHL1    C4 9441   4.875   0.609   6.664 -0.3140 -0.3771  0.4805
   95CHL1   H4A 9442   4.815   0.702   6.654  1.3586  0.7251  0.5650
   95CHL1   H4B 9443   4.835   0.537   6.589  0.5238  0.5611 -0.8863
   95CHL1    C5 9444   4.873   0.558   6.805 -0.0194 -0.0047  0.5722
   95CHL1    C6 9445   4.808   0.443   6.842  0.2600  0.9294 -0.2028
   95CHL1    H6 9446   4.754   0.391   6.761  0.7840  1.9523 -1.2308
   95CHL1    C7 9447   4.804   0.381   6.974  0.1677 -0.5459  0.6300
   95CHL1   H7A 9448   4.701   0.352   7.004  0.5283 -1.8106  0.6825
   95CHL1   H7B 9449   4.871   0.293   6.987 -1.1691 -1.5006  1.0873
   95CHL1    C8 9450   4.871   0.473   7.084 -0.6363  0.1233 -0.6632
   95CHL1    H8 9451   4.798   0.544   7.129  0.5645  0.9041  0.1036
   95CHL1   C14 9452   4.905   0.382   7.205  0.5325  0.0693 -0.2865
   95CHL1   H14 9453   4.976   0.306   7.167  1.4778  0.8298 -0.0816
   95CHL1   C15 9454   4.805   0.290   7.260  0.6011 -0.5048 -0.4001
   95CHL1  H15A 9455   4.705   0.328   7.291  0.0414 -0.1732 -2.5389
   95CHL1  H15B 9456   4.784   0.213   7.183 -0.6922  0.1699 -0.7487
   95CHL1   C16 9457   4.867   0.232   7.388  0.6889  0.3302  0.3753
   95CHL1  H16A 9458   4.796   0.227   7.473 -0.2448 -0.9838 -0.4561
   95CHL1  H16B 9459   4.902   0.126   7.389 -1.4646 -0.4102  1.6997
   95CHL1   C17 9460   4.986   0.333   7.424 -0.8891  0.0902  0.2680
   95CHL1   H17 9461   5.067   0.277   7.372  0.8501  1.2144  1.7226
   95CHL1   C13 9462   4.966   0.451   7.325 -0.2873  0.0179  0.0238
   95CHL1   C18 9463   4.869   0.552   7.392 -0.1719 -0.3940 -0.2527
   95CHL1  H18A 9464   4.783   0.495   7.431  0.7870 -1.5869  0.1713
   95CHL1  H18B 9465   4.912   0.618   7.471 -2.2638 -0.6162  1.1021
   95CHL1  H18C 9466   4.823   0.622   7.318  0.5414  1.9619  1.4749
   95CHL1   C12 9467   5.101   0.523   7.274  1.0871 -0.7092 -0.0366
   95CHL1  H12A 9468   5.152   0.583   7.352 -2.6837 -0.5685  2.4748
   95CHL1  H12B 9469   5.158   0.451   7.213 -0.2929 -2.6715  0.9316
   95CHL1   C11 9470   5.060   0.620   7.153  0.4902 -0.2581  0.5444
   95CHL1  H11A 9471   4.998   0.705   7.190  0.9934  2.4275 -4.3706
   95CHL1  H11B 9472   5.154   0.669   7.119 -1.1604  1.8270 -1.1619
   95CHL1    C9 9473   4.991   0.546   7.032 -0.7506 -0.8492  0.0746
   95CHL1    H9 9474   5.052   0.458   7.004  0.8546  0.1886  0.2453
   95CHL1   C10 9475   4.964   0.633   6.903 -0.5111 -0.3726  0.2167
   95CHL1   C19 9476   4.895   0.768   6.951  0.1426  0.7590  0.1549
   95CHL1  H19A 9477   4.953   0.847   7.004  0.8054  0.5139 -0.1899
   95CHL1  H19B 9478   4.847   0.826   6.870  3.2517  2.2011 -0.7532
   95CHL1  H19C 9479   4.818   0.721   7.015 -0.5444 -0.6101 -1.6398
   95CHL1    C1 9480   5.106   0.668   6.841  0.1799  0.1501  0.6400
   95CHL1   H1A 9481   5.164   0.739   6.904 -0.7762  2.6194 -1.1639
   95CHL1   H1B 9482   5.162   0.578   6.810  0.1022  0.2295  0.2597
   95CHL1    C2 9483   5.095   0.734   6.702 -0.3721 -0.1115  0.2058
   95CHL1   H2A 9484   5.193   0.749   6.652 -0.6835  0.7599 -0.1496
   95CHL1   H2B 9485   5.040   0.830   6.704 -2.0768 -1.0497 -0.2127
   95CHL1   C20 9486   4.991   0.351   7.580 -0.0227 -0.0626 -0.2778
   95CHL1   H20 9487   4.905   0.410   7.620  1.4002  0.8589  1.5058
   95CHL1   C21 9488   5.120   0.431   7.608  0.5244  0.4230 -0.1446
   95CHL1  H21A 9489   5.117   0.466   7.714 -3.1118 -0.7326  0.2142
   95CHL1  H21B 9490   5.142   0.523   7.550 -0.0740 -0.3585 -1.6236
   95CHL1  H21C 9491   5.213   0.370   7.606  1.0419  1.2340 -0.9929
   95CHL1   C22 9492   4.987   0.220   7.658  0.3658  0.0512 -0.3210
   95CHL1  H22A 9493   4.899   0.156   7.638  1.0715 -0.7873 -0.7556
   95CHL1  H22B 9494   5.071   0.152   7.632  0.0739  0.5015 -2.4677
   95CHL1   C23 9495   4.978   0.236   7.812 -0.3056 -1.0779  0.0325
   95CHL1  H23A 9496   5.058   0.300   7.854 -0.7957  0.1582 -0.8579
   95CHL1  H23B 9497   4.897   0.309   7.837  1.6405  0.4510  2.0716
   95CHL1   C24 9498   4.965   0.103   7.890 -1.1882 -0.7327 -0.0362
   95CHL1  H24A 9499   4.883   0.041   7.847 -1.0776 -1.2064  0.4224
   95CHL1  H24B 9500   5.066   0.058   7.877 -0.6645  0.3944  0.0908
   95CHL1   C25 9501   4.946   0.114   8.045  0.1561  0.5456  0.0454
   95CHL1   H25 9502   4.849   0.166   8.057  0.8693  1.7791  0.6164
   95CHL1   C26 9503   4.934  -0.032   8.099 -0.0195 -0.6181  0.3180
   95CHL1  H26A 9504   4.851  -0.083   8.045  1.6746 -0.5782 -2.4026
   95CHL1  H26B 9505   5.025  -0.090   8.073  0.4667  0.4355 -0.3928
   95CHL1  H26C 9506   4.918  -0.024   8.209 -0.6255 -0.3687  0.2128
   95CHL1   C27 9507   5.067   0.179   8.114  0.1423  0.5131  0.1854
   95CHL1  H27A 9508   5.156   0.124   8.077 -2.8320 -2.9737 -2.1789
   95CHL1  H27B 9509   5.082   0.282   8.075 -0.8759  0.3174 -0.7303
   95CHL1  H27C 9510   5.060   0.180   8.225 -2.3353  1.6221  0.0391
   96CHL1    C3 9511   5.172   0.257   6.649 -0.3884 -1.1200 -0.3045
   96CHL1    H3 9512   5.096   0.331   6.683 -0.8231  0.6343 -4.7094
   96CHL1    O3 9513   5.149   0.246   6.507  0.2061  0.1659 -0.3097
   96CHL1   H3' 9514   5.055   0.231   6.492  0.8941 -0.6276 -4.5874
   96CHL1    C4 9515   5.317   0.300   6.678  0.0370  0.5023 -0.3906
   96CHL1   H4A 9516   5.383   0.224   6.630 -0.0699 -0.4525  0.9433
   96CHL1   H4B 9517   5.330   0.400   6.632 -1.2156  0.3501 -1.1146
   96CHL1    C5 9518   5.344   0.299   6.828  0.3486 -1.1233 -0.5584
   96CHL1    C6 9519   5.379   0.415   6.888  0.4830  0.4597  0.3259
   96CHL1    H6 9520   5.396   0.508   6.832 -1.3515  1.7207  1.7897
   96CHL1    C7 9521   5.417   0.422   7.034  0.1380 -0.6639  1.3655
   96CHL1   H7A 9522   5.510   0.482   7.045  0.0049 -0.1229 -0.3132
   96CHL1   H7B 9523   5.340   0.487   7.081 -1.6706 -1.2946 -0.6494
   96CHL1    C8 9524   5.438   0.286   7.095  0.9346 -0.1357  0.3932
   96CHL1    H8 9525   5.532   0.233   7.068  0.6240  0.2650 -1.5185
   96CHL1   C14 9526   5.434   0.304   7.246  0.2516  0.8513  0.6556
   96CHL1   H14 9527   5.331   0.332   7.278  0.0111 -1.9984  2.6110
   96CHL1   C15 9528   5.534   0.403   7.302  0.1762  0.1148 -0.4944
   96CHL1  H15A 9529   5.633   0.386   7.255 -0.1477 -2.0976 -0.4491
   96CHL1  H15B 9530   5.509   0.509   7.283 -0.1871 -0.4101 -3.1412
   96CHL1   C16 9531   5.537   0.370   7.456 -0.0429 -0.0473 -0.5650
   96CHL1  H16A 9532   5.638   0.363   7.503  0.7520 -0.0551 -2.2292
   96CHL1  H16B 9533   5.482   0.447   7.515 -1.7774 -1.6231 -0.0803
   96CHL1   C17 9534   5.456   0.234   7.468  0.0851 -0.2859  0.5359
   96CHL1   H17 9535   5.350   0.259   7.490 -0.5267 -3.3487  1.4313
   96CHL1   C13 9536   5.457   0.171   7.328  0.0349  0.0604 -0.5261
   96CHL1   C18 9537   5.595   0.100   7.306  0.5225 -0.2812 -0.1506
   96CHL1  H18A 9538   5.591  -0.002   7.350  2.6528 -1.0034 -1.5638
   96CHL1  H18B 9539   5.616   0.084   7.198 -1.6668 -2.3198 -0.3029
   96CHL1  H18C 9540   5.671   0.167   7.353 -0.5687  0.0709  1.1421
   96CHL1   C12 9541   5.338   0.076   7.288  0.2346 -0.1709  0.1562
   96CHL1  H12A 9542   5.321  -0.021   7.338 -1.4400 -0.0622 -0.1672
   96CHL1  H12B 9543   5.245   0.126   7.323 -1.6555 -1.5567 -2.6968
   96CHL1   C11 9544   5.336   0.060   7.137 -0.2163 -0.4793  0.3617
   96CHL1  H11A 9545   5.425   0.002   7.105 -1.1261 -2.0642  0.6951
   96CHL1  H11B 9546   5.254  -0.011   7.112 -0.4801 -0.6524  1.6942
   96CHL1    C9 9547   5.328   0.190   7.057  0.0587 -0.0297 -0.2442
   96CHL1    H9 9548   5.236   0.243   7.089  1.9876  1.9007  2.3724
   96CHL1   C10 9549   5.311   0.171   6.904  0.2620  0.3381  0.6235
   96CHL1   C19 9550   5.408   0.064   6.848 -0.7520  0.5689 -0.1440
   96CHL1  H19A 9551   5.403  -0.038   6.891  0.8328 -0.7780 -2.9953
   96CHL1  H19B 9552   5.376   0.051   6.742 -4.2571  2.5983  0.5752
   96CHL1  H19C 9553   5.512   0.104   6.849  0.1146 -1.6244  1.7729
   96CHL1    C1 9554   5.166   0.127   6.871  0.1552 -0.4473 -0.0085
   96CHL1   H1A 9555   5.170   0.023   6.910 -3.0255  0.5259  3.1434
   96CHL1   H1B 9556   5.093   0.194   6.922 -1.7868  0.0280 -3.2646
   96CHL1    C2 9557   5.136   0.121   6.720 -0.5262  0.1706  0.2124
   96CHL1   H2A 9558   5.027   0.105   6.703 -0.3755  1.4972 -2.2332
   96CHL1   H2B 9559   5.173   0.033   6.663 -0.5359 -0.6045  1.3993
   96CHL1   C20 9560   5.488   0.145   7.588 -0.1052  0.4048 -0.1691
   96CHL1   H20 9561   5.598   0.128   7.580  0.1425  0.7356  2.2325
   96CHL1   C21 9562   5.417   0.007   7.595 -0.0745 -0.2672  0.3679
   96CHL1  H21A 9563   5.307   0.011   7.582 -0.2062 -1.5173  1.0066
   96CHL1  H21B 9564   5.444  -0.036   7.694 -1.2841 -1.1384  0.3271
   96CHL1  H21C 9565   5.458  -0.061   7.518 -2.3185  0.0567 -1.1364
   96CHL1   C22 9566   5.463   0.217   7.723 -0.3306 -0.4138  0.2110
   96CHL1  H22A 9567   5.486   0.325   7.715  2.0049 -0.8653  0.4740
   96CHL1  H22B 9568   5.353   0.213   7.741 -0.6610 -1.4418 -1.9442
   96CHL1   C23 9569   5.542   0.168   7.846 -0.5743  0.7549  0.3946
   96CHL1  H23A 9570   5.507   0.066   7.872  1.1369  0.4050  1.4053
   96CHL1  H23B 9571   5.650   0.149   7.826  0.0290  1.8680  2.3798
   96CHL1   C24 9572   5.523   0.261   7.965  0.2278 -0.3761 -0.1843
   96CHL1  H24A 9573   5.577   0.357   7.952 -1.9416  0.7106 -1.6165
   96CHL1  H24B 9574   5.416   0.288   7.954 -0.3432 -2.0744  0.9458
   96CHL1   C25 9575   5.557   0.208   8.106  0.1507  0.1159 -0.7869
   96CHL1   H25 9576   5.661   0.169   8.096  0.8115  1.7366 -0.3793
   96CHL1   C26 9577   5.543   0.313   8.219  0.3398 -0.4511  0.7396
   96CHL1  H26A 9578   5.442   0.355   8.200  1.2630  1.5830  0.1624
   96CHL1  H26B 9579   5.548   0.264   8.318  1.1546 -0.7865  0.5336
   96CHL1  H26C 9580   5.626   0.386   8.208  0.1180 -0.4181 -0.7611
   96CHL1   C27 9581   5.468   0.095   8.146  1.0258  0.3351 -0.1642
   96CHL1  H27A 9582   5.490   0.059   8.249 -0.0612 -0.9968 -0.3682
   96CHL1  H27B 9583   5.364   0.133   8.157  1.5290  2.1569 -1.5230
   96CHL1  H27C 9584   5.482   0.005   8.082  0.8345 -0.5681  1.0458
   97OSM      N 9585   2.521   1.371  11.445  0.0059 -0.4038 -0.2964
   97OSM    C15 9586   2.528   1.236  11.511 -0.2279  0.0601 -0.2915
   97OSM   H15A 9587   2.454   1.164  11.477  1.4770 -0.4517 -3.1084
   97OSM   H15B 9588   2.522   1.241  11.618  1.4614  2.4145 -0.2772
   97OSM   H15C 9589   2.626   1.196  11.491 -0.2032  1.0707 -2.3530
   97OSM    C14 9590   2.378   1.432  11.443  0.4940  0.3666  0.5831
   97OSM   H14A 9591   2.326   1.428  11.537 -0.7120 -2.4439 -0.1333
   97OSM   H14B 9592   2.314   1.375  11.377 -0.7333  3.4944 -0.9979
   97OSM   H14C 9593   2.392   1.533  11.409  0.1324  0.4518  0.6914
   97OSM    C13 9594   2.608   1.468  11.520  0.0877  0.4006 -0.8168
   97OSM   H13A 9595   2.610   1.560  11.463 -1.6045  0.6673 -0.4911
   97OSM   H13B 9596   2.714   1.447  11.516  0.0650  0.4080 -1.5316
   97OSM   H13C 9597   2.576   1.485  11.621 -1.7258 -3.1228 -0.7152
   97OSM    C12 9598   2.581   1.359  11.302 -0.2828 -0.2001  0.1465
   97OSM   H12A 9599   2.531   1.281  11.245 -1.7499  0.8413 -0.0116
   97OSM   H12B 9600   2.683   1.323  11.302  0.3398  1.4314  2.8346
   97OSM    C11 9601   2.601   1.492  11.223 -0.5636  1.3371 -0.1102
   97OSM   H11A 9602   2.503   1.543  11.216 -1.7459 -0.6521  1.6657
   97OSM   H11B 9603   2.628   1.470  11.118 -0.1094 -0.6406  0.4128
   97OSM      P 9604   2.858   1.510  11.281  0.2513 -0.3119  0.1283
   97OSM    O13 9605   2.925   1.625  11.351 -0.1134 -0.5035  0.5041
   97OSM    O14 9606   2.865   1.371  11.338 -0.2702 -0.3285 -0.3809
   97OSM    O11 9607   2.897   1.514  11.130  0.5866 -0.4709 -0.3006
   97OSM    O12 9608   2.708   1.567  11.285 -0.2469  0.1197  0.5088
   97OSM    C1S 9609   2.909   1.637  11.059  0.0216 -0.1181 -0.8920
   97OSM    H1S 9610   3.000   1.693  11.090  0.3313 -0.7221 -0.6922
   97OSM    H1T 9611   2.817   1.697  11.077  0.4539  0.5722 -0.9549
   97OSM     NF 9612   2.912   1.751  10.841  0.2417  0.1959  0.4505
   97OSM    HNF 9613   2.842   1.776  10.774 -0.2981 -2.1877  0.0658
   97OSM    C2S 9614   2.909   1.611  10.906  0.3905 -0.2055  0.9206
   97OSM    H2S 9615   3.010   1.571  10.882  0.6077  1.2736 -0.7338
   97OSM    C3S 9616   2.801   1.507  10.865 -0.3336 -0.1024  1.0602
   97OSM    H3S 9617   2.701   1.535  10.906 -0.9990 -1.0224  0.0748
   97OSM     O3 9618   2.837   1.375  10.904 -0.2787  0.1978  0.9302
   97OSM    HO3 9619   2.907   1.386  10.969 -0.9683 -0.0802  1.7209
   97OSM    C4S 9620   2.796   1.499  10.716  0.6815  0.1023  0.0675
   97OSM    H4S 9621   2.868   1.421  10.687 -1.6686 -1.9609 -0.5070
   97OSM    C5S 9622   2.711   1.558  10.628 -0.1299  0.0782  0.0746
   97OSM    H5S 9623   2.634   1.625  10.667  0.1251 -0.1039  0.9116
   97OSM    C6S 9624   2.708   1.543  10.476 -0.2324  0.3201  0.7243
   97OSM    H6S 9625   2.760   1.628  10.427 -0.7573 -0.1877 -0.7394
   97OSM    H6T 9626   2.601   1.551  10.447  0.1148 -2.1638 -1.4409
   97OSM    C7S 9627   2.766   1.404  10.440 -0.3021 -0.6154  0.0495
   97OSM    H7S 9628   2.753   1.321  10.513 -0.9834 -0.7466 -0.2197
   97OSM    H7T 9629   2.876   1.418  10.432 -0.5926 -0.0589 -4.0319
   97OSM    C8S 9630   2.729   1.345  10.305 -0.5476  0.2456  0.0746
   97OSM    H8S 9631   2.633   1.290  10.316  0.4690 -1.5071  0.5540
   97OSM    H8T 9632   2.793   1.259  10.275 -1.3373  0.6645 -2.9241
   97OSM    C9S 9633   2.703   1.448  10.200  0.4630 -0.9389  0.5585
   97OSM    H9S 9634   2.804   1.481  10.166 -0.2836  1.2525  0.3401
   97OSM    H9T 9635   2.650   1.541  10.229 -0.5788 -1.3401 -0.0585
   97OSM   C10S 9636   2.638   1.398  10.070  0.6163 -0.1456  0.2651
   97OSM   H10S 9637   2.539   1.356  10.099  0.5818 -1.8391 -2.1796
   97OSM   H10T 9638   2.696   1.309  10.039  0.1037 -0.5319  0.4048
   97OSM   C11S 9639   2.635   1.500   9.956 -0.5143  1.1461 -0.2518
   97OSM   H11S 9640   2.734   1.549   9.950  0.8765 -1.5705 -0.3217
   97OSM   H11T 9641   2.562   1.583   9.970 -0.7132  1.1168 -1.0656
   97OSM   C12S 9642   2.605   1.433   9.822 -0.0479  0.0148 -0.8101
   97OSM   H12S 9643   2.501   1.395   9.829 -0.6809  1.6775 -0.9188
   97OSM   H12T 9644   2.672   1.346   9.802  0.8220 -0.0140  1.9293
   97OSM   C13S 9645   2.612   1.524   9.696  0.1323 -1.3863 -0.1378
   97OSM   H13S 9646   2.707   1.582   9.689 -0.4119 -0.2842  1.2711
   97OSM   H13T 9647   2.537   1.606   9.700 -0.6836 -2.1426  0.1974
   97OSM   C14S 9648   2.606   1.446   9.568  0.3890  0.1386 -0.0478
   97OSM   H14S 9649   2.509   1.392   9.563 -1.4164  2.8956  2.9587
   97OSM   H14T 9650   2.693   1.378   9.564  0.1128 -0.2776  0.9288
   97OSM   C15S 9651   2.615   1.542   9.444 -0.1554  0.1700  0.8461
   97OSM   H15S 9652   2.696   1.618   9.455  0.4478  0.3084 -3.4562
   97OSM   H15T 9653   2.514   1.586   9.456 -0.3077  0.2262 -0.4808
   97OSM   C16S 9654   2.614   1.474   9.313 -1.4796  0.1433  0.6495
   97OSM   H16S 9655   2.546   1.386   9.317 -2.0215  0.4299 -1.8651
   97OSM   H16T 9656   2.712   1.434   9.281 -2.6254 -2.1149 -0.1895
   97OSM   C17S 9657   2.579   1.559   9.189 -0.1022  0.6053 -0.4597
   97OSM   H17S 9658   2.658   1.632   9.162  0.6680 -0.0422  0.0413
   97OSM   H17T 9659   2.484   1.615   9.201  0.0429  0.7082  0.1826
   97OSM   C18S 9660   2.567   1.468   9.067  0.2521  0.0089 -0.0689
   97OSM   H18S 9661   2.668   1.428   9.044 -0.0981 -2.4716  2.4451
   97OSM   H18T 9662   2.529   1.535   8.987 -0.6451 -0.3604  0.0460
   97OSM   H18U 9663   2.496   1.387   9.093  0.3727  0.0092  0.2744
   97OSM    C1F 9664   3.010   1.834  10.850 -0.5455 -0.4155 -0.2897
   97OSM     OF 9665   3.115   1.804  10.906  0.1076 -0.4739  0.7009
   97OSM    C2F 9666   2.989   1.970  10.802 -0.2248  0.0367 -0.3077
   97OSM    H2F 9667   3.045   2.042  10.865  1.4353 -1.9348  0.5323
   97OSM    H2G 9668   2.882   2.000  10.811  0.5445  2.6354  0.6377
   97OSM    C3F 9669   3.020   1.993  10.655 -0.1552 -0.4416  0.2142
   97OSM    H3F 9670   3.123   1.966  10.625 -1.1970 -1.5933 -2.5580
   97OSM    H3G 9671   3.027   2.104  10.648  1.2938 -0.4702  1.1227
   97OSM    C4F 9672   2.916   1.941  10.557 -0.6605  0.1168 -1.0231
   97OSM    H4F 9673   2.812   1.966  10.589  0.3025  1.0134  1.5771
   97OSM    H4G 9674   2.924   1.831  10.573  1.1617  0.1318 -1.7022
   97OSM    C5F 9675   2.948   1.981  10.413 -0.0628 -0.9886  0.3720
   97OSM    H5F 9676   3.058   1.981  10.402 -0.2372  0.9365 -1.7561
   97OSM    H5G 9677   2.924   2.089  10.405  0.3548 -0.9809 -0.9903
   97OSM    C6F 9678   2.883   1.899  10.303  0.4579 -0.2039 -0.3557
   97OSM    H6F 9679   2.901   1.789  10.307  1.2878 -0.0234  1.6238
   97OSM    H6G 9680   2.913   1.934  10.202 -2.0788  1.4194 -0.5995
   97OSM    C7F 9681   2.732   1.904  10.306  0.1920 -0.2338 -0.4350
   97OSM    H7F 9682   2.698   2.009  10.322 -0.2274 -0.0668 -2.2491
   97OSM    H7G 9683   2.702   1.841  10.391  2.4200  0.3476  0.8186
   97OSM    C8F 9684   2.671   1.837  10.177  0.6295  0.1815  0.0767
   97OSM    H8F 9685   2.568   1.803  10.202 -0.7558  3.4565 -1.0260
   97OSM    H8G 9686   2.724   1.745  10.145 -2.0219 -2.5940  3.1528
   97OSM    C9F 9687   2.677   1.922  10.053  0.0267 -0.2336  0.7724
   97OSM    H9F 9688   2.780   1.949  10.025 -0.1492 -2.3006 -2.0723
   97OSM   C10F 9689   2.583   1.983   9.980 -0.6209  0.6551  0.5047
   97OSM   H10F 9690   2.603   2.051   9.896  1.3397  1.4660  1.6096
   97OSM   C11F 9691   2.430   1.961   9.996 -0.8699 -0.7420  0.1358
   97OSM   H11F 9692   2.387   2.063   9.999  1.1004  0.0890  1.0000
   97OSM   H11G 9693   2.411   1.910  10.092 -2.5718 -0.9072 -0.2860
   97OSM   C12F 9694   2.371   1.873   9.897 -0.1128 -0.1997  0.2818
   97OSM   H12F 9695   2.263   1.863   9.919 -0.2861  2.2337  0.6223
   97OSM   H12G 9696   2.414   1.770   9.899 -1.3433 -0.7104  1.0563
   97OSM   C13F 9697   2.378   1.934   9.759 -0.1741 -0.5438  0.6611
   97OSM   H13F 9698   2.485   1.937   9.730 -1.0196  3.2756 -2.5648
   97OSM   H13G 9699   2.337   2.037   9.745  2.6027  0.5132  0.0352
   97OSM   C14F 9700   2.318   1.842   9.652 -0.1228  0.4924  0.1618
   97OSM   H14F 9701   2.235   1.781   9.695  1.1611 -0.9581  0.6051
   97OSM   H14G 9702   2.390   1.760   9.633 -2.4602 -1.4779 -0.4980
   97OSM   C15F 9703   2.278   1.908   9.521  0.1087 -0.2219 -0.0063
   97OSM   H15F 9704   2.358   1.977   9.485  0.4256 -0.3997  0.3526
   97OSM   H15G 9705   2.187   1.969   9.535  0.9325  1.2658 -0.9929
   97OSM   C16F 9706   2.252   1.789   9.421  0.2715  0.4573 -0.3923
   97OSM   H16F 9707   2.176   1.722   9.466  0.3280  1.2011  0.8518
   97OSM   H16G 9708   2.345   1.730   9.411  1.3417  1.6465  2.0355
   97OSM   C17F 9709   2.215   1.834   9.279 -0.0882 -0.0056  0.9825
   97OSM   H17F 9710   2.119   1.890   9.274 -0.3015 -0.3033  1.7428
   97OSM   H17G 9711   2.205   1.749   9.207 -0.4509  0.5902  0.3159
   97OSM   C18F 9712   2.329   1.927   9.223 -0.4450  0.0091  0.1309
   97OSM   H18F 9713   2.323   1.937   9.113 -0.1629 -0.3573  0.0801
   97OSM   H18G 9714   2.427   1.878   9.246 -0.0724  0.9505  0.5788
   97OSM   H18H 9715   2.334   2.031   9.262 -0.7506  0.4337 -0.9495
   98OSM      N 9716   2.099   0.878  11.041  0.1380  0.2773 -0.4827
   98OSM    C15 9717   2.054   0.752  11.111 -0.1621  1.0694 -0.4322
   98OSM   H15A 9718   1.946   0.744  11.109 -0.4277  3.6341  0.5142
   98OSM   H15B 9719   2.083   0.754  11.215 -0.3027  0.8196 -0.3890
   98OSM   H15C 9720   2.101   0.664  11.072 -0.0760 -0.2425  2.4626
   98OSM    C14 9721   2.039   0.868  10.907  0.1803  0.1215  0.6288
   98OSM   H14A 9722   2.086   0.791  10.847 -0.4350  0.7271 -0.6543
   98OSM   H14B 9723   2.065   0.959  10.855 -0.9595 -0.3463 -0.8009
   98OSM   H14C 9724   1.934   0.844  10.914  0.4481 -1.1828  0.2720
   98OSM    C13 9725   2.030   0.988  11.110  0.2794 -0.8566 -0.0359
   98OSM   H13A 9726   1.924   0.982  11.095  0.3647 -0.9033 -0.6305
   98OSM   H13B 9727   2.063   1.085  11.073  2.1893 -2.1602 -1.8467
   98OSM   H13C 9728   2.049   0.978  11.216  1.1899  0.8712 -0.0183
   98OSM    C12 9729   2.247   0.897  11.035  0.0695  0.4810  0.4016
   98OSM   H12A 9730   2.285   0.801  11.004 -0.7289  0.4826 -0.6043
   98OSM   H12B 9731   2.295   0.909  11.131  0.8024 -1.3447  0.2701
   98OSM    C11 9732   2.300   1.014  10.944  0.4821  0.0127 -0.4793
   98OSM   H11A 9733   2.274   0.986  10.839  1.2096 -0.0823 -0.6418
   98OSM   H11B 9734   2.411   1.015  10.947  0.4380  1.9169  1.1394
   98OSM      P 9735   2.343   1.259  11.011 -0.5568  0.2376 -0.4048
   98OSM    O13 9736   2.266   1.382  11.025 -0.1377 -0.0475 -0.0833
   98OSM    O14 9737   2.423   1.209  11.124 -0.2301  0.3867 -0.1364
   98OSM    O11 9738   2.435   1.289  10.886 -0.7592  0.4512 -0.3016
   98OSM    O12 9739   2.249   1.144  10.971 -0.4479  0.0451 -0.5344
   98OSM    C1S 9740   2.377   1.328  10.761 -0.7091 -0.8552  0.2431
   98OSM    H1S 9741   2.367   1.439  10.760 -1.1311 -0.8707  1.9575
   98OSM    H1T 9742   2.283   1.273  10.739  0.5812 -2.9502 -0.1624
   98OSM     NF 9743   2.395   1.325  10.509  0.0956 -0.1441  0.0352
   98OSM    HNF 9744   2.367   1.247  10.454  1.0177  1.4911 -2.8627
   98OSM    C2S 9745   2.469   1.292  10.628  0.0910  0.4008  0.1528
   98OSM    H2S 9746   2.556   1.360  10.629  1.1410 -0.9316  1.2949
   98OSM    C3S 9747   2.518   1.144  10.646  0.4036  0.2636  0.5055
   98OSM    H3S 9748   2.434   1.077  10.674 -3.4125  4.2651 -0.8089
   98OSM     O3 9749   2.618   1.133  10.750  0.2909  0.2472  0.2649
   98OSM    HO3 9750   2.614   1.208  10.810  0.8182 -0.7521  1.5690
   98OSM    C4S 9751   2.588   1.082  10.520  0.4428  0.1885 -0.8414
   98OSM    H4S 9752   2.696   1.093  10.503  0.8107 -0.4014  0.9941
   98OSM    C5S 9753   2.521   0.993  10.438  0.4481 -0.6098 -1.3415
   98OSM    H5S 9754   2.420   0.964  10.471  1.0710  0.7805  2.0124
   98OSM    C6S 9755   2.577   0.929  10.317 -0.0212  0.0762  0.2304
   98OSM    H6S 9756   2.552   0.821  10.320  2.3666 -0.5743 -1.6887
   98OSM    H6T 9757   2.688   0.926  10.316 -0.0013  0.7354 -0.0513
   98OSM    C7S 9758   2.528   0.998  10.189  0.0316 -0.4710 -0.0690
   98OSM    H7S 9759   2.546   1.107  10.200  0.6703 -0.6343  0.5510
   98OSM    H7T 9760   2.419   0.980  10.176  0.0119 -0.3512 -0.0691
   98OSM    C8S 9761   2.606   0.946  10.066  0.1354 -0.2647  0.3298
   98OSM    H8S 9762   2.622   0.837  10.074 -0.1866 -0.1769  2.4621
   98OSM    H8T 9763   2.708   0.990  10.063 -1.3175  3.2085 -0.6417
   98OSM    C9S 9764   2.538   0.989   9.940 -0.3572  0.2137 -0.4012
   98OSM    H9S 9765   2.538   1.100   9.941  0.9203  0.2150  1.4638
   98OSM    H9T 9766   2.433   0.953   9.946 -0.4991  1.1846  3.9727
   98OSM   C10S 9767   2.605   0.925   9.817  0.3763  0.0329  0.7554
   98OSM   H10S 9768   2.584   0.816   9.816 -1.7554  0.4401  0.1786
   98OSM   H10T 9769   2.716   0.932   9.824  0.1938  2.1626  2.0160
   98OSM   C11S 9770   2.557   0.990   9.691  0.0887  0.1575 -0.0016
   98OSM   H11S 9771   2.587   1.097   9.696  1.1386 -0.1414  0.3577
   98OSM   H11T 9772   2.447   0.982   9.682 -0.1347  1.5180  1.4457
   98OSM   C12S 9773   2.624   0.930   9.562 -0.2633 -0.0328  0.7400
   98OSM   H12S 9774   2.586   0.830   9.532 -1.4785  0.1137  1.7481
   98OSM   H12T 9775   2.734   0.916   9.567 -0.2194  0.0552 -0.0263
   98OSM   C13S 9776   2.603   1.027   9.442 -0.2038  0.0037  0.4014
   98OSM   H13S 9777   2.626   1.131   9.473 -1.1877 -0.0755  1.4089
   98OSM   H13T 9778   2.495   1.038   9.421 -1.1319 -0.5605  4.5616
   98OSM   C14S 9779   2.661   0.979   9.310 -0.0173 -0.6788  0.2990
   98OSM   H14S 9780   2.617   0.881   9.281 -0.0325 -1.0738  1.6014
   98OSM   H14T 9781   2.771   0.972   9.323 -0.0613 -0.6072  0.7030
   98OSM   C15S 9782   2.630   1.076   9.199 -0.1810  0.5005 -0.4554
   98OSM   H15S 9783   2.665   1.180   9.219  2.8001 -0.3622 -1.0131
   98OSM   H15T 9784   2.522   1.099   9.185  0.0039  0.1526 -2.6068
   98OSM   C16S 9785   2.671   1.030   9.063 -0.1775  0.1851  0.7515
   98OSM   H16S 9786   2.625   0.932   9.039 -1.7986  1.2044 -0.4218
   98OSM   H16T 9787   2.780   1.034   9.044 -0.1381  1.4026  1.1607
   98OSM   C17S 9788   2.616   1.127   8.962 -0.0684 -0.3688  0.5798
   98OSM   H17S 9789   2.666   1.226   8.964 -0.3642 -0.2059  0.0564
   98OSM   H17T 9790   2.507   1.143   8.971 -0.6637 -3.9288  0.4212
   98OSM   C18S 9791   2.633   1.080   8.814  0.3441  0.6890  0.1899
   98OSM   H18S 9792   2.564   0.994   8.799 -0.0826  0.8006  1.4519
   98OSM   H18T 9793   2.740   1.054   8.798  0.8435  1.6210  1.8892
   98OSM   H18U 9794   2.597   1.153   8.739  2.6018  1.5441 -0.1097
   98OSM    C1F 9795   2.352   1.444  10.471  0.2438 -0.2017  0.1359
   98OSM     OF 9796   2.378   1.547  10.533  0.1469 -0.3846 -0.0541
   98OSM    C2F 9797   2.248   1.440  10.366  0.2885  0.0216  0.1033
   98OSM    H2F 9798   2.149   1.471  10.405  0.2618  0.0915 -0.0162
   98OSM    H2G 9799   2.240   1.343  10.312 -2.6207  0.9400 -1.2119
   98OSM    C3F 9800   2.263   1.549  10.262 -0.3285 -0.2007  0.9623
   98OSM    H3F 9801   2.370   1.562  10.235 -0.8942 -1.6375 -2.2325
   98OSM    H3G 9802   2.248   1.651  10.305  1.0346  0.4188  0.0320
   98OSM    C4F 9803   2.185   1.539  10.133  0.4945  0.7911 -0.0578
   98OSM    H4F 9804   2.229   1.625  10.078  1.7932  1.1727  1.5178
   98OSM    H4G 9805   2.077   1.559  10.146  0.3605 -0.7838  1.3834
   98OSM    C5F 9806   2.200   1.408  10.055 -0.6377 -0.1524 -0.0843
   98OSM    H5F 9807   2.174   1.315  10.110 -0.9913  0.9047  1.5708
   98OSM    H5G 9808   2.308   1.403  10.028 -1.0466 -1.3082 -1.6024
   98OSM    C6F 9809   2.132   1.412   9.917 -0.2508 -0.5182 -0.4583
   98OSM    H6F 9810   2.132   1.517   9.879  1.6219  0.1480  1.2732
   98OSM    H6G 9811   2.023   1.415   9.940  0.2061 -0.0498  1.7947
   98OSM    C7F 9812   2.190   1.314   9.816  0.1188 -0.2802  0.2591
   98OSM    H7F 9813   2.185   1.209   9.851  1.7510 -0.3270  0.3913
   98OSM    H7G 9814   2.298   1.337   9.808  0.4794 -1.0862  2.3293
   98OSM    C8F 9815   2.111   1.333   9.688 -0.3520 -0.4694 -0.5069
   98OSM    H8F 9816   2.096   1.440   9.661 -0.5017 -0.2839  0.2917
   98OSM    H8G 9817   2.010   1.287   9.682 -2.0834  2.7405  2.2008
   98OSM    C9F 9818   2.191   1.263   9.586 -0.5391 -0.8359 -0.3685
   98OSM    H9F 9819   2.207   1.157   9.611  1.2046 -0.4028  0.4595
   98OSM   C10F 9820   2.240   1.316   9.476  0.4195 -0.0677 -0.2613
   98OSM   H10F 9821   2.289   1.246   9.407  2.0640  0.9015 -0.1171
   98OSM   C11F 9822   2.213   1.448   9.409 -0.3805 -0.0907  0.6306
   98OSM   H11F 9823   2.309   1.493   9.378 -1.1630  0.8769 -0.4113
   98OSM   H11G 9824   2.162   1.520   9.477  2.2261  2.0118  0.4466
   98OSM   C12F 9825   2.134   1.447   9.272  0.2623  0.4774 -0.0321
   98OSM   H12F 9826   2.090   1.548   9.260  0.0570  0.3473 -0.3725
   98OSM   H12G 9827   2.048   1.377   9.277  0.9048 -0.4470 -1.5564
   98OSM   C13F 9828   2.218   1.411   9.151 -0.6616 -0.5067  0.2212
   98OSM   H13F 9829   2.293   1.334   9.179  0.9025  0.5013 -1.1546
   98OSM   H13G 9830   2.283   1.499   9.135 -0.0153 -0.7171  1.6493
   98OSM   C14F 9831   2.140   1.395   9.019 -0.7523 -0.6735  0.1347
   98OSM   H14F 9832   2.102   1.291   9.029 -0.7451 -0.7113 -0.2472
   98OSM   H14G 9833   2.216   1.394   8.937  0.3025  0.9589  1.0693
   98OSM   C15F 9834   2.029   1.502   8.995  0.2429  0.1345  0.2543
   98OSM   H15F 9835   2.086   1.596   9.009 -2.2077  1.4950  1.3933
   98OSM   H15G 9836   1.953   1.496   9.076  0.3031 -0.0284  0.2989
   98OSM   C16F 9837   1.960   1.480   8.854 -0.3874 -0.0303  0.4245
   98OSM   H16F 9838   1.916   1.380   8.835 -2.5710  1.3485 -2.2983
   98OSM   H16G 9839   2.035   1.512   8.779 -4.2254  1.2383 -3.0842
   98OSM   C17F 9840   1.853   1.591   8.833 -0.0321  0.8086  0.2604
   98OSM   H17F 9841   1.841   1.606   8.724  0.5453 -0.0955  0.0676
   98OSM   H17G 9842   1.905   1.684   8.863  2.0488 -0.1608 -0.2387
   98OSM   C18F 9843   1.720   1.576   8.905  1.1527  0.1046 -0.0323
   98OSM   H18F 9844   1.660   1.665   8.876  0.0909 -0.3980  0.5830
   98OSM   H18G 9845   1.738   1.583   9.014 -1.2089 -1.0274  0.4588
   98OSM   H18H 9846   1.668   1.483   8.874 -0.2948  0.7106  0.5214
   99OSM      N 9847   5.363   1.710  10.905 -0.1681 -0.1484  0.0746
   99OSM    C15 9848   5.332   1.860  10.899  0.3437  0.3988  0.2102
   99OSM   H15A 9849   5.231   1.864  10.862  1.0540 -1.0436 -1.9852
   99OSM   H15B 9850   5.400   1.921  10.842  1.1934 -0.5115  0.2254
   99OSM   H15C 9851   5.321   1.913  10.993  2.9942  0.4860  0.5320
   99OSM    C14 9852   5.402   1.660  10.770  0.3410 -1.1130  0.5458
   99OSM   H14A 9853   5.488   1.715  10.736 -1.2076  0.4799 -0.8130
   99OSM   H14B 9854   5.324   1.685  10.700  1.2114 -0.4721 -0.1960
   99OSM   H14C 9855   5.419   1.553  10.778  1.0621 -1.1579 -1.3110
   99OSM    C13 9856   5.482   1.689  10.988  0.2048  0.3193 -0.4692
   99OSM   H13A 9857   5.563   1.740  10.938  1.1965 -1.3475 -0.6001
   99OSM   H13B 9858   5.507   1.584  11.002  0.3346  0.0626 -2.5363
   99OSM   H13C 9859   5.477   1.736  11.085  2.3468  1.2297 -0.7733
   99OSM    C12 9860   5.247   1.638  10.975 -0.9665  0.3149  0.8078
   99OSM   H12A 9861   5.209   1.691  11.061  0.5018  0.3034  1.4828
   99OSM   H12B 9862   5.281   1.543  11.015 -0.4304  0.9794  1.9662
   99OSM    C11 9863   5.133   1.596  10.884  0.7604 -0.1478 -0.1484
   99OSM   H11A 9864   5.077   1.520  10.942 -0.6313  1.9975  1.3960
   99OSM   H11B 9865   5.168   1.539  10.795 -0.5471 -2.1270  0.5942
   99OSM      P 9866   4.907   1.711  10.918 -0.4236 -0.1166 -0.6329
   99OSM    O13 9867   4.930   1.670  11.063  0.0466  0.4998 -0.1366
   99OSM    O14 9868   4.845   1.837  10.890 -0.0881  0.1377  0.3966
   99OSM    O11 9869   4.835   1.585  10.845 -0.5993 -0.6133  0.1828
   99OSM    O12 9870   5.047   1.708  10.844  0.2930  0.1025 -0.0387
   99OSM    C1S 9871   4.755   1.613  10.725 -0.6948 -0.2294  0.0234
   99OSM    H1S 9872   4.716   1.717  10.722  0.6520  0.2746 -0.3122
   99OSM    H1T 9873   4.675   1.536  10.729 -0.0739 -0.9829 -1.6116
   99OSM     NF 9874   4.726   1.596  10.480  0.0002 -0.2219 -0.4066
   99OSM    HNF 9875   4.661   1.522  10.466 -1.2145  0.6967  0.3156
   99OSM    C2S 9876   4.824   1.572  10.589  0.3576 -0.0100 -0.2494
   99OSM    H2S 9877   4.916   1.631  10.576  1.0329 -0.8478  0.6242
   99OSM    C3S 9878   4.866   1.422  10.603  1.1198 -0.3857  0.0249
   99OSM    H3S 9879   4.778   1.360  10.630  1.3444 -1.3767 -1.4237
   99OSM     O3 9880   4.962   1.402  10.704 -0.3365 -0.3886 -0.2742
   99OSM    HO3 9881   4.930   1.471  10.762 -2.2431 -1.8496  0.4470
   99OSM    C4S 9882   4.917   1.365  10.480 -0.2656  0.3876  1.4511
   99OSM    H4S 9883   5.003   1.418  10.437 -1.0048 -1.0967 -1.9548
   99OSM    C5S 9884   4.866   1.266  10.400  0.3337  0.3437  0.5958
   99OSM    H5S 9885   4.767   1.226  10.425  0.1540  0.7340  0.5023
   99OSM    C6S 9886   4.930   1.231  10.267 -0.7867  0.4669 -0.1731
   99OSM    H6S 9887   4.870   1.154  10.215  0.7287 -2.0892  1.7190
   99OSM    H6T 9888   5.026   1.183  10.295 -1.6930 -0.5624  1.2793
   99OSM    C7S 9889   4.951   1.361  10.175 -0.0351 -0.0891 -0.9788
   99OSM    H7S 9890   5.053   1.404  10.181  0.5055 -1.1259 -2.2936
   99OSM    H7T 9891   4.886   1.443  10.213  1.2277 -0.4213  1.9950
   99OSM    C8S 9892   4.924   1.331  10.026 -0.1394  0.4552 -0.3183
   99OSM    H8S 9893   4.819   1.336   9.988  1.3275  1.4464 -4.4002
   99OSM    H8T 9894   4.955   1.226  10.009  4.1153  1.8157 -1.3331
   99OSM    C9S 9895   5.010   1.408   9.931  0.1477  0.1918 -0.9565
   99OSM    H9S 9896   5.113   1.389   9.970 -0.8134  0.2711  1.7042
   99OSM    H9T 9897   4.997   1.518   9.947  0.6161  0.0798  0.3373
   99OSM   C10S 9898   4.988   1.360   9.789 -1.1289 -0.0997  0.1174
   99OSM   H10S 9899   4.884   1.379   9.756 -1.3291 -1.2761  0.0634
   99OSM   H10T 9900   4.995   1.251   9.768 -2.2297  0.0786 -1.2377
   99OSM   C11S 9901   5.076   1.442   9.694  0.2929  0.0652 -0.5437
   99OSM   H11S 9902   5.184   1.418   9.684  0.5024  1.6789 -2.5079
   99OSM   H11T 9903   5.080   1.544   9.738 -0.3824 -0.1394 -0.0012
   99OSM   C12S 9904   5.029   1.443   9.548 -0.4726  0.3095 -0.6345
   99OSM   H12S 9905   5.072   1.347   9.512  2.1182  0.9138  0.7090
   99OSM   H12T 9906   4.918   1.442   9.558 -0.2650  1.2240  2.3226
   99OSM   C13S 9907   5.079   1.567   9.475  0.2668 -0.0286 -0.1962
   99OSM   H13S 9908   5.183   1.590   9.507  0.3096  0.7296 -0.8560
   99OSM   H13T 9909   5.017   1.658   9.493  0.9357  0.6073 -1.0232
   99OSM   C14S 9910   5.094   1.555   9.322 -0.0556  0.1142  0.5015
   99OSM   H14S 9911   5.000   1.516   9.278  0.7502  0.2328 -1.3530
   99OSM   H14T 9912   5.181   1.488   9.301  0.1664  0.3145  0.7712
   99OSM   C15S 9913   5.107   1.690   9.251 -0.6173  0.4315  0.5247
   99OSM   H15S 9914   5.187   1.730   9.317 -0.1319  0.3923 -0.0395
   99OSM   H15T 9915   5.013   1.746   9.268 -1.2954 -0.8819  1.1604
   99OSM   C16S 9916   5.154   1.678   9.102 -0.1847  0.2257 -0.7263
   99OSM   H16S 9917   5.070   1.635   9.044  0.9822 -1.7422 -1.0122
   99OSM   H16T 9918   5.234   1.601   9.096 -0.8678 -0.6321  0.8447
   99OSM   C17S 9919   5.197   1.812   9.052  0.3529 -0.3469 -0.0559
   99OSM   H17S 9920   5.302   1.828   9.086 -0.0811  0.2726  1.0051
   99OSM   H17T 9921   5.135   1.898   9.088 -1.3703 -1.1578 -1.0481
   99OSM   C18S 9922   5.198   1.815   8.899  0.4680 -0.6511 -0.2277
   99OSM   H18S 9923   5.276   1.740   8.878  1.9201 -0.1893  3.1480
   99OSM   H18T 9924   5.212   1.921   8.868  1.2005 -0.9583 -0.9475
   99OSM   H18U 9925   5.098   1.780   8.866  0.3603  1.0752 -1.8452
   99OSM    C1F 9926   4.694   1.715  10.441 -0.1174  0.2492  0.2135
   99OSM     OF 9927   4.765   1.819  10.457  0.4956 -0.0539  0.4318
   99OSM    C2F 9928   4.562   1.717  10.372  0.2363  0.2963 -0.1173
   99OSM    H2F 9929   4.504   1.790  10.432 -0.8996 -1.4036  0.9193
   99OSM    H2G 9930   4.509   1.619  10.379 -1.9811  1.5486  1.1689
   99OSM    C3F 9931   4.576   1.757  10.221 -0.4946  0.2203  0.3510
   99OSM    H3F 9932   4.475   1.755  10.174  0.8892  2.3989 -2.9681
   99OSM    H3G 9933   4.623   1.858  10.223  1.2950 -0.6255  1.4717
   99OSM    C4F 9934   4.656   1.654  10.147 -0.0906 -0.1761  0.0511
   99OSM    H4F 9935   4.603   1.557  10.134 -0.8978 -0.0943  2.4981
   99OSM    H4G 9936   4.759   1.649  10.190 -0.0712 -0.1592  0.0062
   99OSM    C5F 9937   4.687   1.691  10.000 -0.3400  0.3915  0.9628
   99OSM    H5F 9938   4.589   1.683   9.948 -0.1445 -2.2413  0.9719
   99OSM    H5G 9939   4.745   1.605   9.961 -4.1847  0.1835 -4.9596
   99OSM    C6F 9940   4.759   1.824   9.976  0.0141 -0.0716  0.1942
   99OSM    H6F 9941   4.704   1.902  10.033 -2.9531  0.6437 -3.4498
   99OSM    H6G 9942   4.745   1.847   9.868 -0.1414 -1.0547 -0.0005
   99OSM    C7F 9943   4.912   1.825  10.029 -0.0926  0.1601  0.6333
   99OSM    H7F 9944   4.979   1.749   9.983  0.0369 -0.3341  1.6307
   99OSM    H7G 9945   4.902   1.805  10.137  0.8252  0.8057  0.8439
   99OSM    C8F 9946   4.977   1.968  10.024  0.7628  0.2919 -0.1157
   99OSM    H8F 9947   5.003   1.996   9.920  2.3223 -4.5640 -1.1703
   99OSM    H8G 9948   5.080   1.976  10.065  0.4866 -2.1378  1.1639
   99OSM    C9F 9949   4.905   2.078  10.098  0.3611  0.1629  0.6005
   99OSM    H9F 9950   4.909   2.053  10.205 -1.3403  0.6728  0.8090
   99OSM   C10F 9951   4.848   2.188  10.052  0.1279  0.4935 -0.4132
   99OSM   H10F 9952   4.794   2.256  10.119  0.7231  2.7528 -2.1782
   99OSM   C11F 9953   4.840   2.240   9.908  0.2462  0.3663 -0.0627
   99OSM   H11F 9954   4.862   2.152   9.844 -1.2269  0.8110 -1.1993
   99OSM   H11G 9955   4.922   2.313   9.891  0.9604 -1.4559 -5.1361
   99OSM   C12F 9956   4.709   2.307   9.872  0.4494 -0.3725  0.1598
   99OSM   H12F 9957   4.692   2.393   9.940  1.4697  0.1040 -0.1775
   99OSM   H12G 9958   4.617   2.248   9.892  0.1138  0.8678  2.4847
   99OSM   C13F 9959   4.689   2.358   9.731 -0.1554  0.4464  0.0086
   99OSM   H13F 9960   4.750   2.451   9.721 -0.3343  0.3817 -1.8655
   99OSM   H13G 9961   4.581   2.379   9.718  0.0696 -0.5284 -4.0227
   99OSM   C14F 9962   4.715   2.249   9.623  0.6026 -0.4110 -0.3084
   99OSM   H14F 9963   4.641   2.170   9.649 -2.7652  1.7595 -2.7647
   99OSM   H14G 9964   4.814   2.202   9.635 -0.2395 -1.8678  1.1039
   99OSM   C15F 9965   4.695   2.291   9.477  0.1481 -0.2943 -0.4255
   99OSM   H15F 9966   4.723   2.398   9.462  0.0423  0.2645  2.9192
   99OSM   H15G 9967   4.590   2.270   9.446  0.9124 -0.6767 -2.7662
   99OSM   C16F 9968   4.783   2.215   9.371  0.8426 -0.5544 -0.6060
   99OSM   H16F 9969   4.767   2.106   9.385 -0.3244 -0.7099 -2.9810
   99OSM   H16G 9970   4.892   2.230   9.391  0.5240  0.6958  0.2401
   99OSM   C17F 9971   4.742   2.247   9.230 -0.4382  0.7371 -0.1003
   99OSM   H17F 9972   4.753   2.356   9.211  0.0136  0.3968 -1.9503
   99OSM   H17G 9973   4.637   2.216   9.213 -1.2280  2.0350  2.2005
   99OSM   C18F 9974   4.812   2.170   9.114 -0.0163 -0.4278 -0.0070
   99OSM   H18F 9975   4.839   2.237   9.030 -0.0642 -1.9462 -1.2591
   99OSM   H18G 9976   4.761   2.076   9.082 -1.3772 -0.1452  1.2855
   99OSM   H18H 9977   4.899   2.121   9.161  1.6412  1.8131 -0.6610
  100OSM      N 9978   6.642   3.097  11.103  0.2517 -0.3059 -0.4512
  100OSM    C15 9979   6.631   2.973  11.195  0.3606  0.0447  0.4252
  100OSM   H15A 9980   6.673   2.887  11.146  1.8763 -0.0213  1.8094
  100OSM   H15B 9981   6.529   2.960  11.229  0.7253 -0.7195  1.2310
  100OSM   H15C 9982   6.697   3.006  11.274  2.4769 -0.2056 -1.1918
  100OSM    C14 9983   6.531   3.083  11.005  0.8840  0.6846 -0.6661
  100OSM   H14A 9984   6.538   2.984  10.963  2.0446 -0.0210  1.1492
  100OSM   H14B 9985   6.541   3.157  10.927 -0.4928  2.8936  1.1703
  100OSM   H14C 9986   6.433   3.079  11.050  1.7450 -1.0433  1.1157
  100OSM    C13 9987   6.631   3.227  11.178  0.0993 -0.8513 -0.7238
  100OSM   H13A 9988   6.613   3.311  11.112 -2.2079 -0.6880  0.0903
  100OSM   H13B 9989   6.713   3.243  11.247  0.2659 -2.3815 -0.5545
  100OSM   H13C 9990   6.548   3.211  11.244  0.4709  2.1705  0.5660
  100OSM    C12 9991   6.778   3.087  11.033  0.2926 -0.2598  0.1627
  100OSM   H12A 9992   6.860   3.083  11.103  0.2882 -4.9151  0.0282
  100OSM   H12B 9993   6.790   3.179  10.977  0.4671  0.1414  0.8371
  100OSM    C11 9994   6.800   2.967  10.938 -0.7721 -0.0717 -0.1011
  100OSM   H11A 9995   6.869   3.001  10.858 -1.2408 -1.3529 -1.0524
  100OSM   H11B 9996   6.705   2.945  10.886 -1.1022  2.3698 -0.5948
  100OSM      P 9997   6.798   2.705  10.970  0.0126 -0.1850  0.1172
  100OSM    O13 9998   6.900   2.603  11.002 -0.1102 -0.0816  0.3801
  100OSM    O14 9999   6.669   2.685  11.032  0.1928  0.5303  0.6094
  100OSM    O1110000   6.780   2.704  10.819 -0.6425 -0.0761  0.3242
  100OSM    O1210001   6.851   2.849  11.004  0.7431 -0.3760 -0.3070
  100OSM    C1S10002   6.887   2.702  10.719  0.2674 -0.3373 -0.8386
  100OSM    H1S10003   6.965   2.625  10.739 -0.4118 -1.2048 -1.4491
  100OSM    H1T10004   6.937   2.800  10.713 -1.9352  0.7714 -1.6571
  100OSM     NF10005   6.903   2.644  10.476 -0.0502  0.2934 -0.0883
  100OSM    HNF10006   6.917   2.698  10.393 -1.0621 -0.9309 -1.0721
  100OSM    C2S10007   6.815   2.682  10.579  0.7962 -0.4705 -0.5201
  100OSM    H2S10008   6.745   2.596  10.586  0.3598 -0.0292  0.6847
  100OSM    C3S10009   6.731   2.805  10.535  0.5972  0.1643 -0.0140
  100OSM    H3S10010   6.802   2.879  10.493  1.8184 -0.2388  1.2968
  100OSM     O310011   6.651   2.863  10.634  0.2138 -0.3742  0.4454
  100OSM    HO310012   6.675   2.817  10.715 -1.0438 -0.4037  0.8122
  100OSM    C4S10013   6.646   2.766  10.417 -0.0473 -0.0930  0.3122
  100OSM    H4S10014   6.705   2.769  10.324 -1.0801 -1.9367 -0.4330
  100OSM    C5S10015   6.511   2.735  10.421 -0.0507 -0.2429 -0.2016
  100OSM    H5S10016   6.454   2.743  10.515 -0.3890 -2.2139 -0.2262
  100OSM    C6S10017   6.431   2.703  10.300 -0.2120 -0.5802 -0.2607
  100OSM    H6S10018   6.349   2.778  10.292  1.6190  1.5794  0.7259
  100OSM    H6T10019   6.383   2.603  10.301  1.6120 -1.4686  0.6033
  100OSM    C7S10020   6.499   2.698  10.160 -0.6179 -0.5122 -0.0578
  100OSM    H7S10021   6.598   2.649  10.163 -0.7683 -0.7431  2.3266
  100OSM    H7T10022   6.523   2.803  10.132  2.1919 -0.6886  1.5152
  100OSM    C8S10023   6.418   2.628  10.050 -0.3157  0.0108 -0.1230
  100OSM    H8S10024   6.341   2.704  10.023  0.0623  0.0276 -1.2007
  100OSM    H8T10025   6.357   2.544  10.090 -0.5070  0.7251  1.0853
  100OSM    C9S10026   6.497   2.587   9.926 -0.2646  0.9307 -0.3466
  100OSM    H9S10027   6.557   2.497   9.953  0.5267  1.7295  0.5938
  100OSM    H9T10028   6.569   2.667   9.898 -0.1823  0.7413 -0.6711
  100OSM   C10S10029   6.410   2.553   9.802 -0.1382 -0.2581  0.2749
  100OSM   H10S10030   6.351   2.646   9.789  1.2924  0.8420  1.4947
  100OSM   H10T10031   6.333   2.477   9.826 -2.4588  0.9466 -3.0377
  100OSM   C11S10032   6.494   2.517   9.678  0.5072  0.1867 -0.2826
  100OSM   H11S10033   6.547   2.420   9.693  0.8321  0.4058  0.0184
  100OSM   H11T10034   6.566   2.601   9.666  0.3337  0.3935  0.1189
  100OSM   C12S10035   6.421   2.503   9.551  0.7898 -0.1364  0.0027
  100OSM   H12S10036   6.390   2.604   9.515 -2.7896 -1.0196  0.4308
  100OSM   H12T10037   6.333   2.437   9.552  0.5189  0.2286  0.4288
  100OSM   C13S10038   6.513   2.453   9.443 -1.2804 -0.5204  0.2957
  100OSM   H13S10039   6.514   2.342   9.449  1.5031 -0.5911 -0.8026
  100OSM   H13T10040   6.616   2.492   9.455 -0.7667 -1.2668 -1.4792
  100OSM   C14S10041   6.466   2.497   9.300  0.0672  0.5588 -0.6644
  100OSM   H14S10042   6.510   2.598   9.285  0.6957  0.4422  0.3633
  100OSM   H14T10043   6.355   2.504   9.295  0.0661  2.4222  1.0567
  100OSM   C15S10044   6.506   2.385   9.205 -0.7561 -0.2891 -0.0251
  100OSM   H15S10045   6.452   2.293   9.238 -1.5160  0.1019 -0.1754
  100OSM   H15T10046   6.616   2.369   9.204 -0.7725 -0.3874 -0.2973
  100OSM   C16S10047   6.448   2.407   9.065  0.0403 -0.5255 -0.2822
  100OSM   H16S10048   6.364   2.480   9.071  0.4628 -0.0537 -0.0997
  100OSM   H16T10049   6.411   2.305   9.041  0.3094 -1.1668  1.9672
  100OSM   C17S10050   6.563   2.442   8.963 -0.3538 -0.1366 -0.6332
  100OSM   H17S10051   6.509   2.450   8.866 -0.8562 -1.4904 -0.4888
  100OSM   H17T10052   6.628   2.352   8.949 -0.1798  0.0402 -0.9802
  100OSM   C18S10053   6.649   2.564   8.991  0.1994 -0.2907  0.8605
  100OSM   H18S10054   6.584   2.652   8.975 -1.4358 -1.5769  0.2322
  100OSM   H18T10055   6.739   2.565   8.926 -1.0621 -0.8870 -0.9383
  100OSM   H18U10056   6.673   2.564   9.099 -0.1240  1.0680  0.9343
  100OSM    C1F10057   6.967   2.531  10.472  0.4378 -0.6253 -0.2423
  100OSM     OF10058   6.948   2.445  10.559  0.1612  0.4622  0.2956
  100OSM    C2F10059   7.064   2.510  10.365 -0.6707 -0.4699  0.3188
  100OSM    H2F10060   7.169   2.522  10.400 -1.0162 -1.6530  1.8541
  100OSM    H2G10061   7.042   2.584  10.285  2.2908 -0.4316 -0.5169
  100OSM    C3F10062   7.045   2.367  10.302  0.3035 -0.6346  0.0647
  100OSM    H3F10063   7.063   2.278  10.366 -2.5227 -1.8902 -0.7837
  100OSM    H3G10064   7.115   2.354  10.216 -1.2958  1.7084 -1.6418
  100OSM    C4F10065   6.906   2.337  10.252  0.5115 -0.0685  0.1099
  100OSM    H4F10066   6.867   2.428  10.200  1.9321  0.0543 -0.7632
  100OSM    H4G10067   6.845   2.318  10.343  0.0988  0.6603 -0.0082
  100OSM    C5F10068   6.912   2.214  10.164  0.0095 -0.2990 -0.5364
  100OSM    H5F10069   6.966   2.130  10.212  1.3553  0.1647 -1.2229
  100OSM    H5G10070   6.966   2.249  10.073 -3.3699 -0.4535 -2.7210
  100OSM    C6F10071   6.771   2.174  10.118 -0.5532  0.0630  0.0562
  100OSM    H6F10072   6.703   2.155  10.204  0.8426 -1.8745  0.7658
  100OSM    H6G10073   6.766   2.072  10.074 -1.8991 -0.6902  1.8524
  100OSM    C7F10074   6.715   2.268  10.011  0.5472  0.0246 -0.7282
  100OSM    H7F10075   6.717   2.371  10.054 -1.5917 -0.0903 -0.2789
  100OSM    H7G10076   6.606   2.246  10.001  0.2118  1.7370 -1.0009
  100OSM    C8F10077   6.785   2.249   9.883 -0.2678  0.6320 -0.9520
  100OSM    H8F10078   6.884   2.298   9.882 -0.1357  0.5989  2.7725
  100OSM    H8G10079   6.723   2.308   9.811  0.3425  2.3740 -0.0818
  100OSM    C9F10080   6.798   2.109   9.831  0.3738 -0.1448 -0.4806
  100OSM    H9F10081   6.859   2.047   9.899 -0.0921  1.2810  1.2695
  100OSM   C10F10082   6.775   2.061   9.708 -0.5067 -0.3098 -0.6558
  100OSM   H10F10083   6.797   1.955   9.686 -2.0139 -0.7159 -0.2672
  100OSM   C11F10084   6.722   2.133   9.590  0.4407  0.8030  0.9950
  100OSM   H11F10085   6.689   2.236   9.614  0.2545  1.4135 -1.7820
  100OSM   H11G10086   6.627   2.087   9.557  1.1556  1.3017 -1.8721
  100OSM   C12F10087   6.830   2.144   9.483 -0.0777 -0.2740  0.1232
  100OSM   H12F10088   6.858   2.040   9.456  1.6460  0.0529  0.6015
  100OSM   H12G10089   6.923   2.186   9.528 -0.4808  1.4058 -0.5649
  100OSM   C13F10090   6.785   2.218   9.353 -0.6362  0.4111  0.9990
  100OSM   H13F10091   6.750   2.320   9.379 -0.2350  0.9379 -0.4555
  100OSM   H13G10092   6.699   2.165   9.308  0.5067 -1.7673  1.3226
  100OSM   C14F10093   6.898   2.220   9.250  0.0404 -0.7909 -0.0275
  100OSM   H14F10094   6.922   2.112   9.244 -0.2360 -0.8900  0.6350
  100OSM   H14G10095   6.982   2.278   9.295  0.6604 -1.7229  0.0266
  100OSM   C15F10096   6.858   2.261   9.107 -0.1773  0.1843  0.7101
  100OSM   H15F10097   6.819   2.364   9.119 -1.0398 -0.3157  2.4516
  100OSM   H15G10098   6.767   2.200   9.084  1.5808 -1.5484 -1.9352
  100OSM   C16F10099   6.956   2.240   8.997  0.4267  0.1054  0.5493
  100OSM   H16F10100   6.898   2.249   8.903  4.0276  1.2822 -1.6485
  100OSM   H16G10101   6.994   2.136   9.005 -1.5285 -0.3905  4.9243
  100OSM   C17F10102   7.069   2.343   9.002  0.9113  1.2448  0.1289
  100OSM   H17F10103   7.125   2.320   9.096  0.2691 -0.8856  0.0138
  100OSM   H17G10104   7.011   2.438   9.011  0.5305  1.0746 -0.5329
  100OSM   C18F10105   7.166   2.340   8.884 -0.5051 -0.0502 -0.3572
  100OSM   H18F10106   7.103   2.337   8.793 -2.1708 -0.6716  0.7829
  100OSM   H18G10107   7.231   2.250   8.897 -3.3785 -2.1342  0.1200
  100OSM   H18H10108   7.233   2.428   8.881  0.9290 -1.1674 -2.8064
  101OSM      N10109   2.281   2.581  11.063 -0.5771 -0.2445  0.1697
  101OSM    C1510110   2.431   2.585  11.097 -0.0818  0.5172  0.6753
  101OSM   H15A10111   2.463   2.511  11.168  3.6017  0.0581 -1.3192
  101OSM   H15B10112   2.464   2.680  11.137 -0.1538  0.5938  0.5528
  101OSM   H15C10113   2.482   2.561  11.005 -0.6702  0.1824  0.4358
  101OSM    C1410114   2.238   2.439  11.031 -0.1055  0.1472  0.6771
  101OSM   H14A10115   2.272   2.370  11.107  1.6131 -1.8724 -1.8653
  101OSM   H14B10116   2.268   2.403  10.934 -1.5614 -0.7285  0.5448
  101OSM   H14C10117   2.131   2.435  11.030 -0.0666 -1.3020  1.3151
  101OSM    C1310118   2.213   2.627  11.191 -0.3276 -0.3519  0.2357
  101OSM   H13A10119   2.107   2.623  11.175 -0.2428 -0.4177 -0.3237
  101OSM   H13B10120   2.245   2.726  11.220 -2.8725 -0.1276  2.4794
  101OSM   H13C10121   2.244   2.562  11.272  1.8303  1.2309  0.7306
  101OSM    C1210122   2.254   2.670  10.945 -0.6801  0.1341  0.4105
  101OSM   H12A10123   2.274   2.775  10.963 -2.4895  0.4041  0.8555
  101OSM   H12B10124   2.148   2.665  10.930 -0.4591  0.2249 -1.3131
  101OSM    C1110125   2.325   2.623  10.816  0.6594  0.5938 -0.0614
  101OSM   H11A10126   2.284   2.690  10.737  1.1066 -0.0051 -0.8185
  101OSM   H11B10127   2.302   2.516  10.798 -1.1568  1.1758 -1.2537
  101OSM      P10128   2.532   2.785  10.811  0.1832  0.0223 -0.1387
  101OSM    O1310129   2.421   2.884  10.811  0.2181 -0.6285 -0.0754
  101OSM    O1410130   2.624   2.786  10.926  0.0175  0.1809  0.3167
  101OSM    O1110131   2.604   2.779  10.669  0.4969 -0.2998 -0.3550
  101OSM    O1210132   2.469   2.633  10.801 -0.1174 -0.0942  0.2554
  101OSM    C1S10133   2.651   2.908  10.625 -0.0154  0.7152 -0.1506
  101OSM    H1S10134   2.717   2.946  10.705  0.2224 -2.1587  1.0613
  101OSM    H1T10135   2.568   2.980  10.606 -0.1544  0.5354 -0.2286
  101OSM     NF10136   2.808   3.013  10.475  0.0005 -0.3277 -0.1866
  101OSM    HNF10137   2.773   3.083  10.413  1.1173  1.1370  0.8073
  101OSM    C2S10138   2.726   2.892  10.495  0.7067  0.1796 -0.1842
  101OSM    H2S10139   2.785   2.799  10.512 -2.4244 -1.0192  4.9581
  101OSM    C3S10140   2.622   2.867  10.385 -0.1128 -0.1652  0.6544
  101OSM    H3S10141   2.548   2.950  10.384 -2.4339 -2.1748 -0.3750
  101OSM     O310142   2.534   2.756  10.414 -0.0410 -0.3768  0.4976
  101OSM    HO310143   2.560   2.743  10.506  2.8224  4.8716  0.6596
  101OSM    C4S10144   2.683   2.855  10.241  1.0603 -0.6780 -0.5215
  101OSM    H4S10145   2.777   2.799  10.246  0.2243 -1.9932  1.1465
  101OSM    C5S10146   2.626   2.896  10.129  0.0954 -0.5992  0.1275
  101OSM    H5S10147   2.530   2.948  10.142 -0.0980 -1.2898  1.5325
  101OSM    C6S10148   2.680   2.873   9.992 -0.2699  0.2951  0.4630
  101OSM    H6S10149   2.720   2.967   9.948  0.0771  0.0424  0.2377
  101OSM    H6T10150   2.597   2.842   9.925  0.0070 -0.1710  0.3308
  101OSM    C7S10151   2.789   2.760   9.989 -0.0253  0.0825  0.9719
  101OSM    H7S10152   2.743   2.665  10.023 -0.5352 -0.6601 -1.6533
  101OSM    H7T10153   2.871   2.782  10.061  1.3274 -1.0322 -0.1996
  101OSM    C8S10154   2.846   2.732   9.855 -0.3030  0.5885  0.3391
  101OSM    H8S10155   2.895   2.826   9.821 -0.2484  0.3491 -0.2348
  101OSM    H8T10156   2.763   2.726   9.782  0.6903  1.3531 -0.8738
  101OSM    C9S10157   2.948   2.615   9.856 -0.3262 -0.0870  0.3251
  101OSM    H9S10158   2.912   2.511   9.870 -1.2965  0.1159 -0.5683
  101OSM    H9T10159   3.016   2.652   9.936  0.0318 -0.2174  0.0850
  101OSM   C10S10160   3.026   2.603   9.725  0.2217 -0.4017  0.3951
  101OSM   H10S10161   3.098   2.519   9.726  0.6910 -0.0115 -0.3944
  101OSM   H10T10162   3.082   2.697   9.706 -1.8258  0.7905  0.0817
  101OSM   C11S10163   2.935   2.564   9.599 -0.1808  0.0134 -0.0604
  101OSM   H11S10164   2.893   2.656   9.555 -0.5491  0.1257  0.5232
  101OSM   H11T10165   2.854   2.496   9.633 -0.8296  1.4640  1.3264
  101OSM   C12S10166   3.021   2.495   9.491 -0.6572 -0.8466  0.8365
  101OSM   H12S10167   3.070   2.406   9.537  0.9807 -0.3001  0.2098
  101OSM   H12T10168   3.109   2.555   9.460  0.5620 -3.2907 -0.5985
  101OSM   C13S10169   2.939   2.446   9.373  0.1231 -0.5922  0.3228
  101OSM   H13S10170   2.878   2.526   9.325 -0.0537 -0.8955  0.0381
  101OSM   H13T10171   2.874   2.364   9.409  1.1858 -2.4554 -1.8702
  101OSM   C14S10172   3.037   2.375   9.272  0.5010 -0.2946 -1.0193
  101OSM   H14S10173   3.123   2.443   9.257  1.0378 -0.3670  1.4099
  101OSM   H14T10174   2.995   2.365   9.170 -0.2119 -3.1562 -0.5110
  101OSM   C15S10175   3.079   2.235   9.312  0.1181 -0.0163 -0.0989
  101OSM   H15S10176   2.988   2.191   9.359  0.1849  1.1972  1.2104
  101OSM   H15T10177   3.164   2.247   9.383 -1.0246  0.5765  1.1922
  101OSM   C16S10178   3.130   2.153   9.207 -0.5943  0.6095  0.6311
  101OSM   H16S10179   3.052   2.161   9.128  1.2290 -0.7137 -1.3371
  101OSM   H16T10180   3.137   2.044   9.229  0.4794  0.2762 -1.2819
  101OSM   C17S10181   3.277   2.184   9.144  0.4390  0.1158 -0.2611
  101OSM   H17S10182   3.355   2.193   9.222  0.7253 -0.5033 -0.4704
  101OSM   H17T10183   3.281   2.286   9.101  0.4200  0.4087  0.4265
  101OSM   C18S10184   3.318   2.085   9.040  0.2747 -0.2496  0.1029
  101OSM   H18S10185   3.364   1.994   9.085 -2.7158 -2.2284 -0.6804
  101OSM   H18T10186   3.397   2.128   8.976 -0.3833  3.1537  1.4755
  101OSM   H18U10187   3.237   2.071   8.966  1.6171 -1.8728 -1.0969
  101OSM    C1F10188   2.908   3.042  10.548  0.0835 -0.4417 -0.6079
  101OSM     OF10189   2.946   2.967  10.638 -0.2525  0.4446 -0.3615
  101OSM    C2F10190   2.988   3.167  10.523 -0.3907 -0.2735  0.1406
  101OSM    H2F10191   2.992   3.221  10.620  0.9509  0.7177 -0.4597
  101OSM    H2G10192   2.933   3.235  10.454  1.2766  0.7394 -0.2103
  101OSM    C3F10193   3.136   3.143  10.478 -0.1977 -0.1083  0.1126
  101OSM    H3F10194   3.201   3.110  10.561 -2.0407  0.6128  1.8707
  101OSM    H3G10195   3.170   3.245  10.449  0.2136  0.3193  2.0463
  101OSM    C4F10196   3.150   3.040  10.360  0.1593  0.3589 -0.1040
  101OSM    H4F10197   3.115   2.940  10.393 -1.3523  0.7272 -0.5439
  101OSM    H4G10198   3.257   3.009  10.355 -1.1008 -4.6853  1.3149
  101OSM    C5F10199   3.107   3.079  10.226  0.7606 -0.0114 -0.1470
  101OSM    H5F10200   3.113   3.188  10.209 -0.8696  0.2115  0.5952
  101OSM    H5G10201   3.000   3.051  10.211  0.7449  0.7776 -1.5256
  101OSM    C6F10202   3.178   3.002  10.118  0.3791 -0.5180 -1.1252
  101OSM    H6F10203   3.288   3.015  10.108  0.7030 -1.9590  0.3966
  101OSM    H6G10204   3.164   2.896  10.148  0.1052 -0.2930 -0.4623
  101OSM    C7F10205   3.110   3.028   9.985 -0.0402  0.4580 -0.1471
  101OSM    H7F10206   3.114   3.137   9.962 -1.3656  0.6689  0.5567
  101OSM    H7G10207   3.004   2.999   9.999  0.0944  0.6170  1.3311
  101OSM    C8F10208   3.173   2.957   9.862  0.1394 -0.3130  0.5169
  101OSM    H8F10209   3.096   2.964   9.782 -0.2370  3.5831  1.0795
  101OSM    H8G10210   3.209   2.860   9.900  0.4863 -1.2567 -2.1127
  101OSM    C9F10211   3.296   3.030   9.819 -0.3497  0.6810 -0.3745
  101OSM    H9F10212   3.354   3.074   9.902 -0.8465  0.4020  0.1234
  101OSM   C10F10213   3.336   3.049   9.691  0.2336  0.0938  0.2958
  101OSM   H10F10214   3.419   3.117   9.669  1.7930 -2.2162 -1.2461
  101OSM   C11F10215   3.255   2.991   9.576  0.2080 -0.6701 -0.1484
  101OSM   H11F10216   3.258   3.082   9.511 -0.9666  0.1968  0.9806
  101OSM   H11G10217   3.147   2.976   9.593  0.5530 -1.3153  1.5552
  101OSM   C12F10218   3.311   2.875   9.498 -0.0907  1.1496 -0.0342
  101OSM   H12F10219   3.305   2.788   9.567  0.2359  1.2532  0.1309
  101OSM   H12G10220   3.418   2.900   9.480 -0.3185  1.1232 -1.4776
  101OSM   C13F10221   3.232   2.840   9.374  0.2462 -0.3715  0.0833
  101OSM   H13F10222   3.204   2.937   9.326 -1.4723 -0.2251  1.3126
  101OSM   H13G10223   3.134   2.797   9.406  0.5933 -0.0067  1.7043
  101OSM   C14F10224   3.302   2.752   9.269  0.2286  0.7332  0.5339
  101OSM   H14F10225   3.335   2.653   9.306  0.2024  0.3893 -0.3427
  101OSM   H14G10226   3.390   2.801   9.221  0.4450  1.6717  1.8628
  101OSM   C15F10227   3.201   2.736   9.157  0.0446 -0.0164  0.2208
  101OSM   H15F10228   3.171   2.835   9.116 -1.7718 -0.3762  0.6313
  101OSM   H15G10229   3.109   2.692   9.201 -0.3636 -1.4204 -1.9785
  101OSM   C16F10230   3.254   2.643   9.046 -0.4021 -0.4511  0.2225
  101OSM   H16F10231   3.226   2.537   9.066  1.1185 -0.3662  2.9371
  101OSM   H16G10232   3.363   2.658   9.037 -0.5923 -0.4186 -2.7448
  101OSM   C17F10233   3.193   2.680   8.910  0.5715  0.2102  0.0287
  101OSM   H17F10234   3.083   2.668   8.920  0.7454 -0.8089  0.8194
  101OSM   H17G10235   3.234   2.608   8.835 -0.5937 -1.2487  0.7678
  101OSM   C18F10236   3.228   2.819   8.852  0.3579  0.6102  0.2639
  101OSM   H18F10237   3.337   2.840   8.856  0.1060  1.8715  0.6258
  101OSM   H18G10238   3.183   2.900   8.914 -0.3348 -2.1748  3.5647
  101OSM   H18H10239   3.198   2.833   8.746 -0.4126  3.1590  0.7975
  102OSM      N10240   4.848   5.068  10.497  0.2357  0.9064 -0.1097
  102OSM    C1510241   4.991   5.077  10.443 -0.1282 -0.0634  0.3686
  102OSM   H15A10242   5.055   5.067  10.529  0.5274  0.8905 -0.0056
  102OSM   H15B10243   5.004   5.173  10.395 -0.5835 -0.6490 -0.9596
  102OSM   H15C10244   5.011   4.995  10.375  0.8830  1.2876 -0.9873
  102OSM    C1410245   4.746   5.080  10.390  0.4325  0.1918  0.3801
  102OSM   H14A10246   4.759   5.180  10.351  1.9602  1.2343  3.3738
  102OSM   H14B10247   4.644   5.070  10.424  0.9734 -3.0121  1.1793
  102OSM   H14C10248   4.762   5.007  10.312 -1.6801  0.5515 -0.4190
  102OSM    C1310249   4.837   4.924  10.551 -0.1781 -0.2580  0.1887
  102OSM   H13A10250   4.882   4.910  10.648  0.9621  1.4116 -0.0798
  102OSM   H13B10251   4.867   4.849  10.478  0.9832 -1.7370  2.1325
  102OSM   H13C10252   4.739   4.891  10.581 -0.5195  2.2383  1.9304
  102OSM    C1210253   4.845   5.170  10.610  0.2553  0.2731  0.0527
  102OSM   H12A10254   4.742   5.183  10.638 -0.2674 -2.0778 -0.6713
  102OSM   H12B10255   4.875   5.267  10.571  0.7016  0.4182  0.7489
  102OSM    C1110256   4.940   5.140  10.734  0.3321  0.2156 -0.4880
  102OSM   H11A10257   4.913   5.048  10.791 -1.0662  1.8317  1.5696
  102OSM   H11B10258   4.916   5.220  10.808 -0.1663 -0.3653 -0.0118
  102OSM      P10259   5.196   5.230  10.763 -0.1062 -0.0369  0.0371
  102OSM    O1310260   5.143   5.362  10.806 -0.4691 -0.5824 -0.3516
  102OSM    O1410261   5.256   5.151  10.868 -0.0276 -0.1905 -0.4346
  102OSM    O1110262   5.291   5.235  10.635  0.1531 -0.7453  0.0221
  102OSM    O1210263   5.079   5.140  10.707 -0.0395 -0.6027  0.2657
  102OSM    C1S10264   5.349   5.114  10.585 -0.3773 -0.8605  0.6794
  102OSM    H1S10265   5.290   5.024  10.613 -0.9253 -0.7235 -0.0366
  102OSM    H1T10266   5.450   5.097  10.628 -0.0524 -2.5724 -0.6848
  102OSM     NF10267   5.416   4.996  10.372  0.2625 -1.0128 -0.1933
  102OSM    HNF10268   5.513   5.014  10.358  0.0798 -0.4407 -0.7335
  102OSM    C2S10269   5.365   5.119  10.429  0.6605 -0.5208 -0.0861
  102OSM    H2S10270   5.268   5.149  10.384  0.4914  2.6924  2.3189
  102OSM    C3S10271   5.472   5.237  10.393 -0.0350 -0.3379 -0.0251
  102OSM    H3S10272   5.577   5.216  10.423 -0.1677 -0.4987  0.3204
  102OSM     O310273   5.457   5.357  10.457  0.6045  0.2949  0.1156
  102OSM    HO310274   5.389   5.339  10.522 -2.0018  0.8121 -2.3440
  102OSM    C4S10275   5.475   5.255  10.239  0.0018  0.2928  0.1591
  102OSM    H4S10276   5.536   5.184  10.181 -0.6362  0.9101 -1.2975
  102OSM    C5S10277   5.394   5.345  10.179  0.0258  0.4745 -0.0948
  102OSM    H5S10278   5.313   5.399  10.230 -0.4847 -0.2482 -0.1346
  102OSM    C6S10279   5.385   5.355  10.035  0.1581  0.2124 -0.2024
  102OSM    H6S10280   5.483   5.344   9.983  0.8771  1.0576  0.9450
  102OSM    H6T10281   5.340   5.448   9.994  3.3145  1.4815 -0.9327
  102OSM    C7S10282   5.305   5.246   9.955  0.3056 -0.2238 -0.0887
  102OSM    H7S10283   5.219   5.213  10.018  0.5410  0.4454  0.5985
  102OSM    H7T10284   5.369   5.158   9.977  0.1011 -0.2963  0.2367
  102OSM    C8S10285   5.272   5.266   9.812 -0.6924 -0.4681 -0.1177
  102OSM    H8S10286   5.192   5.343   9.803 -0.1621  0.1257  0.1373
  102OSM    H8T10287   5.244   5.171   9.763  0.6082  0.1379 -2.0925
  102OSM    C9S10288   5.388   5.310   9.722  0.3235  0.4640  0.2796
  102OSM    H9S10289   5.476   5.244   9.737 -0.1078  0.5109  3.1909
  102OSM    H9T10290   5.427   5.410   9.751 -1.1377  0.9015  0.7576
  102OSM   C10S10291   5.369   5.311   9.571  0.9119  0.6502  0.4490
  102OSM   H10S10292   5.316   5.405   9.542  1.8536  1.9849  2.8838
  102OSM   H10T10293   5.297   5.229   9.555  3.0905 -1.3068  0.5026
  102OSM   C11S10294   5.502   5.291   9.489 -0.0025 -0.0046  0.4768
  102OSM   H11S10295   5.529   5.184   9.497 -0.2924 -0.2017 -1.0203
  102OSM   H11T10296   5.588   5.352   9.526 -0.3286  0.9346 -0.2880
  102OSM   C12S10297   5.483   5.324   9.345 -0.0282 -0.1210 -0.1252
  102OSM   H12S10298   5.435   5.424   9.336  2.3696  1.1736  0.9243
  102OSM   H12T10299   5.419   5.255   9.286  0.7037 -1.3711  0.5352
  102OSM   C13S10300   5.614   5.319   9.263 -0.8653  0.4772 -0.2598
  102OSM   H13S10301   5.662   5.220   9.273 -1.5839  0.3211  2.1198
  102OSM   H13T10302   5.680   5.405   9.291  0.4167 -0.0178 -1.7042
  102OSM   C14S10303   5.580   5.356   9.119 -0.1508 -0.3877 -0.7123
  102OSM   H14S10304   5.549   5.462   9.114  1.4515  0.1790  0.9417
  102OSM   H14T10305   5.504   5.292   9.069  0.2313 -1.2277 -0.2273
  102OSM   C15S10306   5.702   5.349   9.020  0.4092 -0.2758 -0.3892
  102OSM   H15S10307   5.707   5.241   8.997 -1.6742 -0.5188  0.2001
  102OSM   H15T10308   5.792   5.381   9.078 -0.9196  1.3270  0.8165
  102OSM   C16S10309   5.684   5.426   8.892  0.0702 -0.3836  0.5173
  102OSM   H16S10310   5.696   5.535   8.905 -0.7561 -0.2044 -0.1816
  102OSM   H16T10311   5.582   5.392   8.863  0.9445 -1.5246 -1.3654
  102OSM   C17S10312   5.773   5.378   8.778  0.1312  0.7016  0.5683
  102OSM   H17S10313   5.737   5.279   8.741 -3.1992  1.8495  0.5209
  102OSM   H17T10314   5.879   5.372   8.809  0.2805  1.0386  0.1246
  102OSM   C18S10315   5.768   5.481   8.667 -0.7982 -0.8346 -0.0433
  102OSM   H18S10316   5.842   5.438   8.596  0.2841 -0.7175  1.0031
  102OSM   H18T10317   5.799   5.581   8.703 -1.1695 -1.0094  0.7846
  102OSM   H18U10318   5.673   5.509   8.617  0.2904  0.4348 -1.4385
  102OSM    C1F10319   5.358   4.873  10.365  0.0179 -0.0927  0.4282
  102OSM     OF10320   5.239   4.854  10.395 -0.6160 -0.5051  0.3770
  102OSM    C2F10321   5.444   4.764  10.316 -0.5070  0.2284  0.2965
  102OSM    H2F10322   5.468   4.701  10.405  0.9205 -0.2749 -0.4308
  102OSM    H2G10323   5.547   4.798  10.292  0.6655 -0.4544  3.9945
  102OSM    C3F10324   5.382   4.704  10.189 -0.4447 -0.3591 -0.4089
  102OSM    H3F10325   5.288   4.653  10.220  1.1481 -1.3594  3.0621
  102OSM    H3G10326   5.460   4.635  10.150  2.4820  1.7726  1.4587
  102OSM    C4F10327   5.363   4.804  10.065  0.1384 -0.2416 -1.3660
  102OSM    H4F10328   5.295   4.888  10.093 -1.3130 -1.5643 -0.8084
  102OSM    H4G10329   5.312   4.744   9.986 -1.0739 -2.4394  0.9753
  102OSM    C5F10330   5.504   4.842  10.006  0.3190 -0.0697  0.5866
  102OSM    H5F10331   5.581   4.771  10.042  0.0727 -0.8724 -0.4516
  102OSM    H5G10332   5.535   4.944  10.035 -1.1462  0.3215  0.8149
  102OSM    C6F10333   5.498   4.830   9.856  0.2681  0.1904  0.1935
  102OSM    H6F10334   5.426   4.910   9.827  0.5007 -0.2132 -1.5447
  102OSM    H6G10335   5.469   4.732   9.813  1.0452 -0.0242  0.1473
  102OSM    C7F10336   5.640   4.856   9.799 -0.2629 -0.0993 -0.0715
  102OSM    H7F10337   5.696   4.761   9.796 -1.9465 -1.1029 -0.2415
  102OSM    H7G10338   5.683   4.930   9.870  2.0775 -1.3046 -0.2072
  102OSM    C8F10339   5.641   4.928   9.660 -0.6363 -0.0595 -0.7926
  102OSM    H8F10340   5.741   4.970   9.637  0.2765 -0.6468  1.8965
  102OSM    H8G10341   5.578   5.018   9.676  1.7694  1.4803  0.2569
  102OSM    C9F10342   5.582   4.839   9.555 -0.2964 -0.2571 -0.2890
  102OSM    H9F10343   5.513   4.762   9.593  1.5306 -1.6971  0.1487
  102OSM   C10F10344   5.610   4.833   9.420  0.0150  0.3519  0.4689
  102OSM   H10F10345   5.557   4.754   9.364 -0.9229  0.9676  0.4677
  102OSM   C11F10346   5.719   4.905   9.344 -0.2091  0.1155  0.1631
  102OSM   H11F10347   5.809   4.847   9.316  0.1582  1.6684 -1.9570
  102OSM   H11G10348   5.752   4.994   9.402  0.8223 -0.2213  0.0935
  102OSM   C12F10349   5.680   4.948   9.205 -0.3254 -0.9638 -0.4178
  102OSM   H12F10350   5.754   5.018   9.161  0.5288 -2.6302 -1.6545
  102OSM   H12G10351   5.583   4.999   9.221  0.4540 -0.1816  2.1145
  102OSM   C13F10352   5.662   4.834   9.109 -0.3745 -0.2317  0.3910
  102OSM   H13F10353   5.583   4.765   9.146  0.7441 -2.5935 -1.4871
  102OSM   H13G10354   5.753   4.772   9.114 -0.0814  0.2060  0.5259
  102OSM   C14F10355   5.645   4.897   8.970  0.4297  0.2042 -0.8405
  102OSM   H14F10356   5.653   4.811   8.899 -1.2230 -0.4899 -0.2007
  102OSM   H14G10357   5.723   4.970   8.940  0.8235  0.5765  1.0717
  102OSM   C15F10358   5.506   4.962   8.950  0.4748 -0.7208  0.0986
  102OSM   H15F10359   5.496   5.040   9.029 -1.7275 -0.9321  0.0540
  102OSM   H15G10360   5.427   4.886   8.967 -0.2546  0.2826  1.3417
  102OSM   C16F10361   5.487   5.021   8.809 -0.6079  0.0334 -0.6108
  102OSM   H16F10362   5.514   4.944   8.733  2.0138 -0.1438  0.4600
  102OSM   H16G10363   5.561   5.103   8.798 -0.9351  0.2364 -1.3917
  102OSM   C17F10364   5.345   5.070   8.784  0.8688 -0.0642  0.0679
  102OSM   H17F10365   5.292   5.104   8.876 -1.1915  3.1079 -2.1887
  102OSM   H17G10366   5.282   4.987   8.746  0.3280  0.1513  0.4965
  102OSM   C18F10367   5.333   5.193   8.686  0.0970  0.0299  0.1414
  102OSM   H18F10368   5.362   5.180   8.579 -0.6577 -0.8513  0.0402
  102OSM   H18G10369   5.401   5.271   8.727 -1.4728  0.9512  1.0415
  102OSM   H18H10370   5.233   5.240   8.688  1.0626  2.1202  0.8429
  103OSM      N10371   4.553   1.085  10.808  0.1802 -0.0889 -0.7249
  103OSM    C1510372   4.580   1.061  10.952  0.2095 -0.3013  0.3366
  103OSM   H15A10373   4.526   1.128  11.017  1.0008 -0.1584  0.8515
  103OSM   H15B10374   4.686   1.064  10.973  0.7339 -1.1935 -2.0574
  103OSM   H15C10375   4.549   0.965  10.991  2.6505 -0.8487  1.0203
  103OSM    C1410376   4.643   1.189  10.777  0.6150 -1.0055 -0.0044
  103OSM   H14A10377   4.633   1.210  10.671 -1.0939 -1.0962  0.1391
  103OSM   H14B10378   4.746   1.157  10.785  1.5030  1.5380 -0.6150
  103OSM   H14C10379   4.625   1.284  10.824 -2.1523 -1.8566  0.6988
  103OSM    C1310380   4.596   0.963  10.732  0.6299 -0.1653 -0.7202
  103OSM   H13A10381   4.530   0.878  10.741 -0.2312  0.3434 -2.0849
  103OSM   H13B10382   4.692   0.925  10.762  0.5083 -0.6798 -0.9781
  103OSM   H13C10383   4.609   0.973  10.625  0.0980  0.1718 -0.7585
  103OSM    C1210384   4.411   1.111  10.762 -0.1515  0.2064 -0.3988
  103OSM   H12A10385   4.355   1.169  10.833  0.6872  0.2313  0.2430
  103OSM   H12B10386   4.355   1.019  10.764 -0.6890  0.5414 -0.0072
  103OSM    C1110387   4.392   1.202  10.634 -0.0749 -0.0269 -0.0305
  103OSM   H11A10388   4.286   1.191  10.603 -0.2288  0.6250  0.2513
  103OSM   H11B10389   4.448   1.169  10.544 -0.3922  0.1913 -0.3066
  103OSM      P10390   4.331   1.425  10.766  0.0748 -0.0912 -0.1962
  103OSM    O1310391   4.290   1.351  10.889 -0.0291  0.2851  0.4151
  103OSM    O1410392   4.409   1.552  10.787  0.2937  0.4040 -0.2957
  103OSM    O1110393   4.204   1.454  10.681 -0.4521 -0.0083 -0.2705
  103OSM    O1210394   4.415   1.336  10.672 -0.4540 -0.2322 -0.3920
  103OSM    C1S10395   4.212   1.507  10.551 -0.0942  0.6462  0.2972
  103OSM    H1S10396   4.310   1.490  10.502  1.1451  0.2242  2.8361
  103OSM    H1T10397   4.207   1.618  10.549 -1.0069  0.7867  4.9012
  103OSM     NF10398   4.114   1.520  10.323 -0.0337 -0.4233  0.2113
  103OSM    HNF10399   4.041   1.583  10.300  0.2447  0.4836  1.6992
  103OSM    C2S10400   4.102   1.457  10.456  0.7362  0.4314 -0.4982
  103OSM    H2S10401   4.127   1.348  10.456  0.9337  0.4711 -1.6440
  103OSM    C3S10402   3.960   1.460  10.520 -0.0355 -0.0527 -0.0829
  103OSM    H3S10403   3.928   1.566  10.528  0.7139  0.1070  0.8450
  103OSM     O310404   3.944   1.399  10.644 -0.6067  0.4137  1.2757
  103OSM    HO310405   4.035   1.403  10.675 -0.1783  1.3529 -0.0624
  103OSM    C4S10406   3.861   1.392  10.432  1.0157  0.2572  0.0752
  103OSM    H4S10407   3.880   1.286  10.409 -1.2584 -0.2165  0.2972
  103OSM    C5S10408   3.734   1.442  10.400  0.3342 -0.5487  0.3659
  103OSM    H5S10409   3.693   1.528  10.455  0.3886  1.2624 -2.3461
  103OSM    C6S10410   3.628   1.377  10.313 -0.4749 -0.0642  0.6332
  103OSM    H6S10411   3.532   1.355  10.364 -0.4004 -1.1547  0.3212
  103OSM    H6T10412   3.667   1.285  10.265  0.7091  0.6044  0.3111
  103OSM    C7S10413   3.588   1.461  10.194  0.0334 -0.1946  0.2432
  103OSM    H7S10414   3.507   1.536  10.209  1.8032  2.4530 -2.8597
  103OSM    H7T10415   3.535   1.390  10.127 -2.3342  1.4845  0.2931
  103OSM    C8S10416   3.700   1.513  10.103 -0.3550  0.3014  0.5808
  103OSM    H8S10417   3.768   1.427  10.082 -0.4030  0.3786  0.1142
  103OSM    H8T10418   3.762   1.583  10.163 -0.2410 -0.3207  1.1934
  103OSM    C9S10419   3.655   1.568   9.971 -0.6176  0.3163 -0.3462
  103OSM    H9S10420   3.595   1.661   9.983 -0.1891  0.2750  2.4860
  103OSM    H9T10421   3.584   1.494   9.927 -0.4507  1.5245 -2.6743
  103OSM   C10S10422   3.775   1.608   9.883 -0.1755  0.1121  0.4734
  103OSM   H10S10423   3.763   1.557   9.785  0.0563  1.1304 -0.0873
  103OSM   H10T10424   3.872   1.577   9.927  1.0430  0.4444 -1.9539
  103OSM   C11S10425   3.778   1.760   9.868 -0.0886 -0.6889 -0.8987
  103OSM   H11S10426   3.810   1.812   9.961 -2.1616 -1.8268  0.5087
  103OSM   H11T10427   3.674   1.800   9.859  0.1511  0.2725  0.4573
  103OSM   C12S10428   3.872   1.803   9.758  0.9745  0.2276  0.6087
  103OSM   H12S10429   3.813   1.778   9.667 -1.1555  1.3808  1.6351
  103OSM   H12T10430   3.971   1.752   9.755  1.2333  0.7144  0.7531
  103OSM   C13S10431   3.910   1.949   9.761  0.0814 -1.1563  0.0970
  103OSM   H13S10432   3.990   1.962   9.837 -0.1295 -0.7136  0.2478
  103OSM   H13T10433   3.819   2.004   9.794 -0.0873 -1.5407  0.2648
  103OSM   C14S10434   3.977   2.005   9.632  0.1782  0.6708 -0.0674
  103OSM   H14S10435   3.899   2.061   9.577  0.0797 -1.0487 -1.7240
  103OSM   H14T10436   4.015   1.914   9.580 -0.7557 -0.5310  1.3094
  103OSM   C15S10437   4.097   2.095   9.659  0.5522  0.2031 -0.2469
  103OSM   H15S10438   4.063   2.171   9.732  0.9899 -1.3798  1.6721
  103OSM   H15T10439   4.127   2.149   9.567 -2.4085  0.2785 -1.1989
  103OSM   C16S10440   4.221   2.009   9.691  0.0490  0.2626  0.0503
  103OSM   H16S10441   4.268   1.968   9.599  2.0931 -0.4054  1.3614
  103OSM   H16T10442   4.188   1.921   9.749  0.8301  0.2387  0.4607
  103OSM   C17S10443   4.332   2.079   9.766  0.2348  0.2447 -0.2294
  103OSM   H17S10444   4.286   2.117   9.860 -0.5213  0.2275 -0.5883
  103OSM   H17T10445   4.358   2.174   9.714 -0.6827  0.4231 -0.3700
  103OSM   C18S10446   4.447   1.988   9.801 -0.0355  0.7354 -0.6571
  103OSM   H18S10447   4.527   2.043   9.856  0.2735  2.1231 -2.4506
  103OSM   H18T10448   4.487   1.935   9.712 -0.4978 -2.2180  0.8398
  103OSM   H18U10449   4.410   1.910   9.870 -0.0306 -1.1081 -2.6984
  103OSM    C1F10450   4.215   1.508  10.238  0.4218  0.4354 -0.0232
  103OSM     OF10451   4.320   1.449  10.263  0.4727  0.2792 -0.0480
  103OSM    C2F10452   4.182   1.558  10.098 -0.2036 -0.2545  0.7103
  103OSM    H2F10453   4.137   1.659  10.110  0.0416  0.2217 -2.1582
  103OSM    H2G10454   4.111   1.489  10.047  0.1314 -0.8707  1.0723
  103OSM    C3F10455   4.316   1.554  10.015  0.8688 -0.2356  0.1679
  103OSM    H3F10456   4.363   1.453  10.018  2.2880  0.2887 -2.7768
  103OSM    H3G10457   4.393   1.620  10.060  1.5448 -0.0399 -1.2574
  103OSM    C4F10458   4.292   1.608   9.868  0.4252 -0.1333 -0.6350
  103OSM    H4F10459   4.392   1.609   9.819  0.1198 -0.3229 -1.2700
  103OSM    H4G10460   4.274   1.717   9.871 -1.6655 -0.4508 -0.8437
  103OSM    C5F10461   4.192   1.536   9.776  0.2749 -0.2091 -0.0840
  103OSM    H5F10462   4.088   1.541   9.815  0.2173  0.2656 -0.2933
  103OSM    H5G10463   4.233   1.433   9.775 -1.3742 -0.8888  0.2381
  103OSM    C6F10464   4.200   1.581   9.628  0.0133 -0.2075 -0.0958
  103OSM    H6F10465   4.291   1.540   9.580  0.0139 -0.6063  0.2480
  103OSM    H6G10466   4.207   1.692   9.618 -0.3850 -0.3230 -1.7384
  103OSM    C7F10467   4.068   1.546   9.557 -1.1524  0.0077 -0.1631
  103OSM    H7F10468   4.052   1.610   9.467 -1.9310 -0.1695 -0.1558
  103OSM    H7G10469   3.981   1.582   9.616 -1.4132 -1.0899  0.1395
  103OSM    C8F10470   4.061   1.395   9.518  0.6971  0.3103 -0.1584
  103OSM    H8F10471   4.094   1.337   9.606 -0.4144 -1.7596 -1.0666
  103OSM    H8G10472   4.137   1.384   9.437  1.2988 -0.2306  0.4837
  103OSM    C9F10473   3.928   1.337   9.483  0.3617 -0.2325  0.2184
  103OSM    H9F10474   3.888   1.274   9.564  0.4490 -1.0876 -0.3989
  103OSM   C10F10475   3.871   1.353   9.365  0.8494 -0.1977 -1.1466
  103OSM   H10F10476   3.777   1.299   9.348 -0.9392  2.1885  0.9124
  103OSM   C11F10477   3.920   1.430   9.243 -0.0864 -0.3779  0.5784
  103OSM   H11F10478   3.917   1.365   9.153 -0.8351 -1.8557  1.6502
  103OSM   H11G10479   4.025   1.465   9.247  0.5250 -2.2136  0.8410
  103OSM   C12F10480   3.815   1.543   9.214  0.4482 -0.0956 -1.1690
  103OSM   H12F10481   3.719   1.494   9.186 -0.9835  1.7604  0.3583
  103OSM   H12G10482   3.854   1.592   9.123 -1.8392  1.3447 -1.4113
  103OSM   C13F10483   3.798   1.645   9.326  0.1695 -0.0156 -0.0257
  103OSM   H13F10484   3.892   1.671   9.380 -0.1298 -3.3883  2.3263
  103OSM   H13G10485   3.730   1.594   9.398  0.9670 -0.6513  0.2881
  103OSM   C14F10486   3.722   1.766   9.281 -0.4998  0.0623 -0.1221
  103OSM   H14F10487   3.625   1.742   9.231  0.4385  1.5160 -2.7009
  103OSM   H14G10488   3.776   1.825   9.205 -0.4583  0.8880  0.5385
  103OSM   C15F10489   3.678   1.859   9.406  0.2346 -0.0839  0.0488
  103OSM   H15F10490   3.768   1.888   9.463 -0.2230  0.7347  0.3673
  103OSM   H15G10491   3.620   1.788   9.469  2.3371 -1.7814  0.1354
  103OSM   C16F10492   3.589   1.980   9.381 -0.5488 -0.3685 -0.2324
  103OSM   H16F10493   3.488   1.942   9.354 -0.2696  0.0650 -1.9635
  103OSM   H16G10494   3.620   2.047   9.297 -1.3409 -1.6450 -1.5820
  103OSM   C17F10495   3.592   2.068   9.502 -0.4148  0.3919 -0.2141
  103OSM   H17F10496   3.532   2.160   9.487 -1.1936 -0.2914 -1.3000
  103OSM   H17G10497   3.697   2.103   9.515  0.3367 -1.4421 -1.1919
  103OSM   C18F10498   3.549   1.995   9.638  0.3164  0.4609  0.2959
  103OSM   H18F10499   3.578   2.062   9.722  1.1628 -1.4168  1.5313
  103OSM   H18G10500   3.611   1.904   9.650 -1.3219 -0.7854 -0.6303
  103OSM   H18H10501   3.442   1.967   9.640  0.3994  0.1801  2.3860
  104OSM      N10502   4.932   0.193  10.914  0.2537 -0.4576 -0.3358
  104OSM    C1510503   4.918   0.273  11.039  0.1668 -0.7453 -0.1659
  104OSM   H15A10504   4.995   0.270  11.114 -0.8598  0.6692  0.9781
  104OSM   H15B10505   4.825   0.241  11.083  0.5934 -2.5667 -0.5521
  104OSM   H15C10506   4.913   0.379  11.018  0.2588 -0.8895 -0.9390
  104OSM    C1410507   4.923   0.045  10.940  0.2662  0.5891 -0.0776
  104OSM   H14A10508   4.974   0.009  11.028 -2.4956 -1.7323  0.6329
  104OSM   H14B10509   4.953  -0.018  10.858  0.0304  0.1131  0.1997
  104OSM   H14C10510   4.823   0.008  10.958  0.5029 -0.9306 -1.7647
  104OSM    C1310511   4.813   0.234  10.836  0.1016  0.3483  0.1596
  104OSM   H13A10512   4.803   0.198  10.735 -0.1594  0.4953  0.1341
  104OSM   H13B10513   4.813   0.342  10.836  0.7395  0.3534  0.8909
  104OSM   H13C10514   4.731   0.199  10.896  0.1400  0.2555  0.1597
  104OSM    C1210515   5.062   0.225  10.847  0.4378  0.1125  0.2968
  104OSM   H12A10516   5.094   0.134  10.797 -1.3358  0.4337 -1.4421
  104OSM   H12B10517   5.130   0.260  10.924 -0.3818  0.4011  0.8986
  104OSM    C1110518   5.057   0.329  10.729 -0.5090 -0.2247 -0.0937
  104OSM   H11A10519   4.987   0.292  10.651  1.2017  0.3513 -1.9283
  104OSM   H11B10520   5.158   0.319  10.686 -1.6087 -1.9184 -2.3358
  104OSM      P10521   5.123   0.551  10.873  0.3881  0.2949  0.1372
  104OSM    O1310522   5.039   0.651  10.944  0.0089 -0.2247 -0.6660
  104OSM    O1410523   5.199   0.462  10.964  0.1254  0.5427  0.0754
  104OSM    O1110524   5.221   0.634  10.773  0.5466  0.8365  0.0708
  104OSM    O1210525   5.034   0.465  10.774 -0.6043 -0.2240 -0.2534
  104OSM    C1S10526   5.179   0.652  10.634 -0.5472 -0.0639 -0.5434
  104OSM    H1S10527   5.091   0.719  10.633 -1.1071 -0.7942 -2.2084
  104OSM    H1T10528   5.142   0.554  10.598 -1.0529  0.1470 -0.6020
  104OSM     NF10529   5.253   0.721  10.419  0.5719  0.7775 -0.1664
  104OSM    HNF10530   5.275   0.656  10.346 -0.5273 -2.2099  2.0666
  104OSM    C2S10531   5.301   0.700  10.556 -0.5852  0.1973  0.1770
  104OSM    H2S10532   5.332   0.804  10.578 -2.7038  1.3088 -1.8808
  104OSM    C3S10533   5.422   0.612  10.565 -0.2057  0.1071  0.5524
  104OSM    H3S10534   5.398   0.505  10.547  3.3136 -0.2180 -2.9767
  104OSM     O310535   5.477   0.619  10.697  0.1497  0.0440  0.2008
  104OSM    HO310536   5.398   0.627  10.751 -0.3704  0.8900 -0.6760
  104OSM    C4S10537   5.541   0.650  10.482  0.0051 -0.6518  0.1955
  104OSM    H4S10538   5.596   0.733  10.528 -0.5116 -0.6385  0.7950
  104OSM    C5S10539   5.604   0.580  10.386  0.2226  0.0348  0.5517
  104OSM    H5S10540   5.565   0.486  10.344  1.2972 -0.9488  1.7001
  104OSM    C6S10541   5.736   0.626  10.324 -0.4172 -0.2105  0.3571
  104OSM    H6S10542   5.819   0.552  10.331  0.3339  0.5779 -0.1508
  104OSM    H6T10543   5.782   0.710  10.380  0.6969 -1.2738  1.0396
  104OSM    C7S10544   5.727   0.671  10.177 -0.0565  0.4108  0.1057
  104OSM    H7S10545   5.658   0.757  10.163 -1.1752 -0.3526  0.7976
  104OSM    H7T10546   5.698   0.577  10.125  2.3233 -1.7635  2.5600
  104OSM    C8S10547   5.861   0.706  10.110 -0.2006 -1.1677 -0.4187
  104OSM    H8S10548   5.932   0.621  10.104  1.7039  0.3730 -0.0889
  104OSM    H8T10549   5.917   0.768  10.183 -0.3724 -2.0778  0.5089
  104OSM    C9S10550   5.856   0.768   9.965  0.4102  0.2771 -0.9361
  104OSM    H9S10551   5.790   0.856   9.954  0.3420  0.3413 -0.0187
  104OSM    H9T10552   5.808   0.684   9.910  3.1775 -1.8593 -0.1839
  104OSM   C10S10553   5.995   0.785   9.914  0.4223 -1.0980  0.1096
  104OSM   H10S10554   6.054   0.692   9.917  0.1637 -1.3622 -2.1019
  104OSM   H10T10555   6.044   0.857   9.984  1.4646 -0.7574 -0.9565
  104OSM   C11S10556   6.000   0.830   9.766 -0.3738  0.1701 -0.4841
  104OSM   H11S10557   5.914   0.900   9.756 -0.2400  0.1618 -1.7654
  104OSM   H11T10558   5.966   0.734   9.722 -1.8633  0.3849  0.1455
  104OSM   C12S10559   6.134   0.886   9.730  0.1237 -0.2223 -0.2279
  104OSM   H12S10560   6.216   0.816   9.758 -1.2971 -0.5684  3.3179
  104OSM   H12T10561   6.164   0.982   9.776 -0.9174 -0.4075  0.8475
  104OSM   C13S10562   6.149   0.913   9.578 -0.2533 -1.0261  0.0483
  104OSM   H13S10563   6.252   0.949   9.561 -0.0991 -0.5197  1.8968
  104OSM   H13T10564   6.082   1.002   9.570  1.6962  0.6752  2.0365
  104OSM   C14S10565   6.129   0.792   9.491  0.2972 -0.6684 -0.8671
  104OSM   H14S10566   6.058   0.720   9.538  0.0535 -0.3897 -0.8046
  104OSM   H14T10567   6.225   0.737   9.492 -0.1877 -1.5345  2.1134
  104OSM   C15S10568   6.105   0.827   9.347  0.1977  0.1118 -0.1843
  104OSM   H15S10569   6.189   0.890   9.311 -0.5357  2.1264  1.5303
  104OSM   H15T10570   6.013   0.888   9.334  1.3298  1.9368  0.1676
  104OSM   C16S10571   6.101   0.695   9.270  0.0400  0.3023  0.5333
  104OSM   H16S10572   6.028   0.616   9.298 -0.4244 -1.1161 -4.2931
  104OSM   H16T10573   6.198   0.645   9.289 -0.5103 -1.4323 -1.0685
  104OSM   C17S10574   6.104   0.719   9.114 -0.6401  0.1157  0.3141
  104OSM   H17S10575   6.152   0.626   9.075 -0.9954 -0.8889  2.2314
  104OSM   H17T10576   6.167   0.809   9.098  0.0002  0.0043  2.0593
  104OSM   C18S10577   5.976   0.731   9.034 -0.4438 -0.1603  0.2140
  104OSM   H18S10578   5.946   0.838   9.036  1.0394  0.2758  0.0001
  104OSM   H18T10579   5.902   0.658   9.072 -0.5102 -0.4156 -0.4002
  104OSM   H18U10580   5.993   0.704   8.927  2.5077  0.3181  0.5101
  104OSM    C1F10581   5.171   0.813  10.375 -0.1307  0.9705  0.0406
  104OSM     OF10582   5.136   0.909  10.448  0.3452 -0.0263 -0.6588
  104OSM    C2F10583   5.124   0.795  10.235 -0.5020 -0.3441  0.0815
  104OSM    H2F10584   5.145   0.698  10.185  0.7064  1.2146 -2.6091
  104OSM    H2G10585   5.169   0.874  10.170 -1.1056  0.1564  0.2695
  104OSM    C3F10586   4.969   0.827  10.232  0.1742 -0.4546  0.1357
  104OSM    H3F10587   4.952   0.933  10.263  2.7999  0.1674 -0.3972
  104OSM    H3G10588   4.905   0.768  10.301 -1.6224  0.5175 -0.6760
  104OSM    C4F10589   4.920   0.804  10.088 -0.3369  0.5080  0.5538
  104OSM    H4F10590   4.810   0.794  10.089 -0.2426 -1.0797 -1.8580
  104OSM    H4G10591   4.948   0.703  10.052 -0.4079  1.0300 -1.0041
  104OSM    C5F10592   4.989   0.888   9.981  0.9020  0.3039 -0.6764
  104OSM    H5F10593   5.094   0.850   9.979  0.3238 -1.7301  2.5432
  104OSM    H5G10594   4.981   0.994  10.014  1.2784 -0.0829  0.6883
  104OSM    C6F10595   4.905   0.875   9.855  0.4408  0.0390  1.0607
  104OSM    H6F10596   4.801   0.910   9.871 -0.2959 -1.2675 -0.6931
  104OSM    H6G10597   4.893   0.768   9.829  0.2399  0.7331 -1.9046
  104OSM    C7F10598   4.959   0.955   9.735 -0.3027 -0.6741 -0.1693
  104OSM    H7F10599   5.040   0.900   9.683  0.3806  1.6215 -1.6581
  104OSM    H7G10600   4.997   1.055   9.766 -2.3665 -0.2929  1.2642
  104OSM    C8F10601   4.848   0.992   9.630 -0.0500  0.4921  0.3221
  104OSM    H8F10602   4.758   1.030   9.682 -2.1931 -1.3344 -1.9246
  104OSM    H8G10603   4.823   0.893   9.586  2.0729  0.7926 -1.6864
  104OSM    C9F10604   4.903   1.085   9.523  0.0850 -0.5383 -1.0514
  104OSM    H9F10605   4.919   1.184   9.567 -0.9164 -0.3153 -1.1826
  104OSM   C10F10606   4.932   1.052   9.393 -0.1014  0.0862  0.0560
  104OSM   H10F10607   4.971   1.136   9.333 -0.4180  0.1510 -0.0596
  104OSM   C11F10608   4.925   0.919   9.324  0.1073 -0.2058 -0.4321
  104OSM   H11F10609   4.895   0.839   9.395 -1.7158  1.1049  0.3390
  104OSM   H11G10610   5.026   0.889   9.290  0.5146  0.3795  0.2526
  104OSM   C12F10611   4.835   0.940   9.194  0.0472  0.1215  0.0708
  104OSM   H12F10612   4.872   1.030   9.140 -1.5492  0.2345 -0.8712
  104OSM   H12G10613   4.728   0.946   9.226  0.1981 -1.2396  0.8964
  104OSM   C13F10614   4.857   0.838   9.079 -0.3015 -0.5674 -0.0096
  104OSM   H13F10615   4.790   0.750   9.095 -2.7313  0.6082 -3.1096
  104OSM   H13G10616   4.961   0.818   9.047 -0.2289  1.1737 -0.9168
  104OSM   C14F10617   4.788   0.893   8.946 -0.8458  0.1055  0.3564
  104OSM   H14F10618   4.847   0.984   8.921 -0.7610 -0.1332 -0.3217
  104OSM   H14G10619   4.685   0.925   8.971 -1.0923  0.5049 -1.1689
  104OSM   C15F10620   4.781   0.791   8.832 -0.0686 -0.5488 -0.0156
  104OSM   H15F10621   4.737   0.846   8.746  1.7208  0.0445 -0.5812
  104OSM   H15G10622   4.712   0.710   8.864  0.1420 -0.0996  1.5984
  104OSM   C16F10623   4.911   0.716   8.791  0.2259 -0.0426  0.3889
  104OSM   H16F10624   4.946   0.662   8.881  0.3697 -1.2600 -0.3912
  104OSM   H16G10625   4.993   0.782   8.756 -1.4143  1.6002 -0.4844
  104OSM   C17F10626   4.886   0.623   8.669  0.4119 -0.1420  0.2147
  104OSM   H17F10627   4.978   0.612   8.607 -2.3457  0.5874 -4.2058
  104OSM   H17G10628   4.823   0.667   8.589 -0.0120 -1.2942 -0.0827
  104OSM   C18F10629   4.827   0.479   8.702  0.3336  0.5810  0.2454
  104OSM   H18F10630   4.915   0.426   8.744  0.1338 -0.9412 -1.1814
  104OSM   H18G10631   4.799   0.427   8.607 -0.8903  1.2335  0.2441
  104OSM   H18H10632   4.743   0.486   8.773  1.8258  0.9179  2.0170
  105OSM      N10633   2.426   3.955  10.986  0.0950  0.3366 -0.0239
  105OSM    C1510634   2.491   3.823  10.991 -0.6702 -0.2549 -0.1047
  105OSM   H15A10635   2.598   3.835  10.979 -0.9026  2.8962  0.6017
  105OSM   H15B10636   2.442   3.766  10.914 -1.0171 -1.0537  0.6946
  105OSM   H15C10637   2.468   3.774  11.084 -2.7996  2.0111  0.5998
  105OSM    C1410638   2.461   4.021  11.108 -0.1761 -0.6039 -0.5574
  105OSM   H14A10639   2.396   4.101  11.140  0.2999 -0.0731 -0.9130
  105OSM   H14B10640   2.560   4.064  11.096 -1.4992  2.8458  0.2330
  105OSM   H14C10641   2.471   3.949  11.189  0.1558  2.0993  1.8929
  105OSM    C1310642   2.487   4.036  10.875 -0.5713  0.4886 -0.5027
  105OSM   H13A10643   2.594   4.050  10.882 -0.7529  0.6693  2.5276
  105OSM   H13B10644   2.455   4.139  10.878  1.8365  1.2573 -0.1799
  105OSM   H13C10645   2.466   3.986  10.782  0.5784 -1.1234  0.0649
  105OSM    C1210646   2.275   3.944  10.981 -0.4266 -0.1213 -0.0424
  105OSM   H12A10647   2.235   4.044  10.987  0.8647  0.2726  3.4538
  105OSM   H12B10648   2.246   3.895  11.073 -0.8880  1.0831  0.4636
  105OSM    C1110649   2.210   3.860  10.868 -0.5163 -0.1693 -0.3409
  105OSM   H11A10650   2.227   3.916  10.773 -0.6068  2.5921  1.2397
  105OSM   H11B10651   2.102   3.871  10.890 -0.2466  0.5858  0.6195
  105OSM      P10652   2.191   3.619  10.975  0.0282 -0.3980 -0.1979
  105OSM    O1310653   2.287   3.505  10.983  0.3115 -0.2272  0.2855
  105OSM    O1410654   2.170   3.698  11.104 -0.2897 -0.5681 -0.6493
  105OSM    O1110655   2.050   3.571  10.924  0.6541 -0.0125 -0.1711
  105OSM    O1210656   2.258   3.724  10.872  0.3156  0.0421  0.1233
  105OSM    C1S10657   2.002   3.592  10.794  0.5474 -0.2590  0.8232
  105OSM    H1S10658   2.055   3.670  10.735 -1.0574 -0.6402 -1.1872
  105OSM    H1T10659   1.896   3.622  10.810 -0.2178 -1.9565 -0.9144
  105OSM     NF10660   1.947   3.486  10.573  0.1811 -0.3034  0.1217
  105OSM    HNF10661   1.865   3.442  10.539 -2.5599  2.8646  2.3458
  105OSM    C2S10662   1.998   3.456  10.704 -0.0400 -0.0117  0.2589
  105OSM    H2S10663   2.103   3.427  10.683 -0.0851  0.5715 -0.8278
  105OSM    C3S10664   1.922   3.339  10.778  0.1878  0.5790 -0.1928
  105OSM    H3S10665   1.820   3.375  10.802 -0.5118 -1.8916  0.7299
  105OSM     O310666   1.987   3.294  10.894  0.1560  0.0156  0.0052
  105OSM    HO310667   2.034   3.371  10.926  0.7552 -0.3625  0.0288
  105OSM    C4S10668   1.917   3.215  10.692 -0.0973  0.3561  1.2803
  105OSM    H4S10669   2.008   3.152  10.683 -1.0403 -0.8004 -0.4570
  105OSM    C5S10670   1.810   3.164  10.628 -0.0768 -0.3612 -0.1717
  105OSM    H5S10671   1.708   3.199  10.649 -0.3931 -1.5715  0.4015
  105OSM    C6S10672   1.809   3.043  10.536  0.3951  0.0973 -0.1578
  105OSM    H6S10673   1.770   2.958  10.595 -0.1805  0.0439 -0.6182
  105OSM    H6T10674   1.911   3.003  10.517  0.6558  0.6697  0.0140
  105OSM    C7S10675   1.705   3.065  10.424  0.0588 -0.0122 -0.8545
  105OSM    H7S10676   1.607   3.099  10.464  0.9103  1.3777  0.0778
  105OSM    H7T10677   1.695   2.967  10.372  1.2520  0.1762 -1.4509
  105OSM    C8S10678   1.746   3.168  10.325 -0.3713  0.8794  0.5963
  105OSM    H8S10679   1.844   3.140  10.280 -1.3824 -0.8133 -0.6297
  105OSM    H8T10680   1.744   3.266  10.376 -0.0993  0.4020  1.5353
  105OSM    C9S10681   1.645   3.175  10.205 -0.4107  0.2617  0.1528
  105OSM    H9S10682   1.550   3.205  10.254  0.7274 -0.4303  2.8504
  105OSM    H9T10683   1.627   3.073  10.165  0.6668 -0.6828  2.0242
  105OSM   C10S10684   1.687   3.272  10.099  0.1463 -0.0258  0.1843
  105OSM   H10S10685   1.702   3.369  10.151  0.6681 -0.5474  1.0298
  105OSM   H10T10686   1.610   3.284  10.020  0.1535  2.9770  0.5743
  105OSM   C11S10687   1.816   3.225  10.018 -0.1892 -0.9564  1.2609
  105OSM   H11S10688   1.868   3.153  10.084  3.4616 -0.6773 -1.1311
  105OSM   H11T10689   1.885   3.313  10.013 -1.6124  0.0812 -1.1436
  105OSM   C12S10690   1.789   3.181   9.874 -0.0327  0.4512 -0.3635
  105OSM   H12S10691   1.755   3.267   9.814  2.7015  1.0079 -1.1748
  105OSM   H12T10692   1.704   3.110   9.884 -0.0551  0.3685 -1.1409
  105OSM   C13S10693   1.910   3.126   9.812 -0.5356  0.1814  0.4900
  105OSM   H13S10694   1.965   3.055   9.877  2.4170 -0.3433 -2.4492
  105OSM   H13T10695   1.977   3.213   9.797 -1.2753  0.7896  0.6483
  105OSM   C14S10696   1.877   3.050   9.684 -0.0515  0.0272 -0.1949
  105OSM   H14S10697   1.797   3.106   9.631 -0.8004 -0.9678 -0.1088
  105OSM   H14T10698   1.846   2.945   9.702  2.2692 -0.6390  0.1941
  105OSM   C15S10699   1.989   3.025   9.581 -0.1662 -0.6810 -0.2722
  105OSM   H15S10700   2.087   3.002   9.627  0.4047 -3.3327 -2.6672
  105OSM   H15T10701   2.000   3.119   9.523  1.3395  0.8480  2.3536
  105OSM   C16S10702   1.951   2.909   9.495  0.1755  0.4388 -0.0704
  105OSM   H16S10703   1.911   2.828   9.560 -0.2934  0.7391  0.0163
  105OSM   H16T10704   2.046   2.873   9.449 -1.1123 -0.7182 -1.9214
  105OSM   C17S10705   1.836   2.941   9.399 -0.4058 -0.5018 -0.3043
  105OSM   H17S10706   1.875   3.022   9.334  0.7856 -0.9237 -0.1169
  105OSM   H17T10707   1.747   2.979   9.456 -1.0555 -1.0284 -0.9604
  105OSM   C18S10708   1.808   2.828   9.308 -0.2809 -0.4260 -0.3978
  105OSM   H18S10709   1.724   2.857   9.241 -1.5450 -2.4804  0.2487
  105OSM   H18T10710   1.766   2.741   9.361 -0.7060  0.3716  0.5897
  105OSM   H18U10711   1.891   2.800   9.240  0.5118  0.4319  0.2074
  105OSM    C1F10712   2.006   3.550  10.474  0.2575  0.6348 -0.2441
  105OSM     OF10713   2.112   3.603  10.494 -0.1332  0.9209 -0.4572
  105OSM    C2F10714   1.933   3.551  10.347  0.2923  0.6378  0.0922
  105OSM    H2F10715   1.839   3.604  10.372 -0.2402  0.6087 -1.7662
  105OSM    H2G10716   1.904   3.445  10.329 -0.9418  0.6750  1.7903
  105OSM    C3F10717   2.015   3.622  10.237  0.2238 -0.4509  0.1002
  105OSM    H3F10718   2.114   3.573  10.223  1.1343  1.4220 -0.2615
  105OSM    H3G10719   2.035   3.728  10.266  0.1511  0.0155 -1.5219
  105OSM    C4F10720   1.941   3.613  10.103  0.5799 -0.4677  0.2087
  105OSM    H4F10721   1.835   3.637  10.128  0.4934 -2.3400  1.7197
  105OSM    H4G10722   1.934   3.510  10.061 -2.9633  0.7078 -2.3613
  105OSM    C5F10723   1.995   3.711   9.997  0.5965  1.1128  0.4635
  105OSM    H5F10724   2.103   3.691   9.979 -0.2798 -1.8998 -1.8185
  105OSM    H5G10725   1.997   3.814  10.039  0.7097  1.3459 -0.1088
  105OSM    C6F10726   1.934   3.693   9.853  0.6038  0.0270  0.0704
  105OSM    H6F10727   1.969   3.788   9.806 -1.7795 -0.5768 -3.1025
  105OSM    H6G10728   1.823   3.694   9.857  0.6773  0.5814  2.4714
  105OSM    C7F10729   1.984   3.569   9.782  1.2068  0.1418 -0.0331
  105OSM    H7F10730   1.944   3.480   9.835 -1.0977  1.2894  0.2409
  105OSM    H7G10731   2.095   3.560   9.790  1.0860  0.2010  2.0492
  105OSM    C8F10732   1.936   3.571   9.631  0.2591  0.4141 -0.3760
  105OSM    H8F10733   1.987   3.653   9.577 -0.4711  2.4351  1.9355
  105OSM    H8G10734   1.828   3.593   9.624  0.3729  0.4273 -2.2828
  105OSM    C9F10735   1.974   3.444   9.559 -0.1042  0.0164 -0.0653
  105OSM    H9F10736   1.951   3.351   9.613 -2.8027 -0.2112 -1.4751
  105OSM   C10F10737   2.035   3.432   9.438 -0.2355  0.2461  0.0784
  105OSM   H10F10738   2.042   3.333   9.389 -0.0563  0.0693  0.4606
  105OSM   C11F10739   2.078   3.543   9.346  0.6782  0.1177  0.3817
  105OSM   H11F10740   2.185   3.523   9.325  0.7324  1.7943 -1.0440
  105OSM   H11G10741   2.064   3.644   9.392  1.4155 -0.1933  1.3143
  105OSM   C12F10742   1.986   3.557   9.218  0.0139 -0.0518  0.6443
  105OSM   H12F10743   2.022   3.649   9.167  0.3892 -1.7073 -2.1625
  105OSM   H12G10744   1.884   3.580   9.257 -0.5746  0.3180 -1.1012
  105OSM   C13F10745   1.991   3.438   9.121  0.2046  0.8956  0.3591
  105OSM   H13F10746   1.948   3.348   9.171  0.2975  0.8376  0.3328
  105OSM   H13G10747   2.096   3.413   9.097 -0.2630  1.5336 -2.5321
  105OSM   C14F10748   1.923   3.469   8.986 -0.2492  0.3172 -0.4257
  105OSM   H14F10749   1.983   3.544   8.929 -2.0112  1.8198 -0.3510
  105OSM   H14G10750   1.819   3.507   8.993 -0.2663  0.0048  1.1279
  105OSM   C15F10751   1.916   3.349   8.887  0.1305  0.2285 -0.1466
  105OSM   H15F10752   1.869   3.261   8.935  0.4843 -0.0278 -0.2662
  105OSM   H15G10753   2.014   3.312   8.849  0.4654  1.4831 -0.5427
  105OSM   C16F10754   1.838   3.387   8.758 -0.4343 -0.0399  0.2182
  105OSM   H16F10755   1.905   3.458   8.706 -0.6959  0.5135  0.6334
  105OSM   H16G10756   1.749   3.446   8.788  0.1681  1.7672 -1.4404
  105OSM   C17F10757   1.810   3.270   8.661 -0.3086 -0.5008 -0.0417
  105OSM   H17F10758   1.741   3.304   8.580 -0.6869 -0.9515  0.0885
  105OSM   H17G10759   1.759   3.194   8.723 -0.1000 -2.0477 -1.7478
  105OSM   C18F10760   1.929   3.223   8.582  0.6523  0.6151  0.1822
  105OSM   H18F10761   1.910   3.169   8.486  0.3197  3.5708 -1.4760
  105OSM   H18G10762   2.003   3.170   8.645  0.1668  1.1922  1.2387
  105OSM   H18H10763   1.985   3.313   8.547  0.6035  0.9665  1.0116
  106OSM      N10764   0.354   2.381  10.973  0.5392 -0.1994  0.0639
  106OSM    C1510765   0.414   2.270  10.886  0.5220 -0.0464 -0.1345
  106OSM   H15A10766   0.360   2.265  10.793  0.6968  1.7368 -0.3366
  106OSM   H15B10767   0.429   2.175  10.936 -2.5757 -1.0685 -0.9988
  106OSM   H15C10768   0.516   2.292  10.860  0.9589 -0.4341  1.1808
  106OSM    C1410769   0.227   2.329  11.027  0.2794 -0.0120 -0.9553
  106OSM   H14A10770   0.245   2.250  11.098  2.6334  0.3807 -1.0555
  106OSM   H14B10771   0.163   2.289  10.950 -2.0743 -1.4530  1.6744
  106OSM   H14C10772   0.184   2.403  11.091 -0.3910  1.2866 -2.8592
  106OSM    C1310773   0.434   2.420  11.088 -0.5047 -0.2665  0.1000
  106OSM   H13A10774   0.525   2.464  11.051  0.6879 -0.3091  2.8503
  106OSM   H13B10775   0.445   2.349  11.168  0.7648  2.6274  2.6078
  106OSM   H13C10776   0.391   2.503  11.143  2.0666  1.2485 -0.0996
  106OSM    C1210777   0.321   2.507  10.883  0.0671  0.8503 -0.3690
  106OSM   H12A10778   0.286   2.594  10.936 -0.8563  0.2280  0.0485
  106OSM   H12B10779   0.232   2.495  10.824  0.4706  2.3445 -1.3149
  106OSM    C1110780   0.424   2.549  10.778  0.0065  0.3455 -0.3383
  106OSM   H11A10781   0.387   2.633  10.715 -0.6609 -1.3560 -2.2882
  106OSM   H11B10782   0.441   2.474  10.698  1.2190 -0.6513  0.8185
  106OSM      P10783   0.567   2.714  10.917 -0.1384 -0.2387  0.1171
  106OSM    O1310784   0.445   2.760  10.992 -0.6700  0.2239  0.6166
  106OSM    O1410785   0.694   2.711  10.996  0.3605 -0.7225  0.5239
  106OSM    O1110786   0.595   2.818  10.802 -0.4265 -0.0658  0.4693
  106OSM    O1210787   0.552   2.578  10.839 -0.0142  0.0028  0.2627
  106OSM    C1S10788   0.680   2.783  10.693  0.0470 -1.1113 -0.1504
  106OSM    H1S10789   0.625   2.706  10.635 -1.2752  0.8439 -1.5778
  106OSM    H1T10790   0.776   2.736  10.723  0.8791  0.2341 -0.6645
  106OSM     NF10791   0.756   2.846  10.473 -0.0188  0.3363 -0.2746
  106OSM    HNF10792   0.855   2.835  10.471  0.2567  1.7110  2.6260
  106OSM    C2S10793   0.711   2.908  10.601 -0.4683  0.3831  0.4210
  106OSM    H2S10794   0.626   2.975  10.578 -0.4959 -0.0537 -0.7864
  106OSM    C3S10795   0.814   3.000  10.671 -0.1062 -0.4690 -0.2414
  106OSM    H3S10796   0.907   2.944  10.694 -0.1911 -0.0183  1.2731
  106OSM     O310797   0.772   3.030  10.806 -0.1000 -0.1394  0.6105
  106OSM    HO310798   0.684   2.994  10.814 -1.2206  2.3982  0.1012
  106OSM    C4S10799   0.861   3.110  10.585  0.1157  0.3040 -0.2397
  106OSM    H4S10800   0.948   3.083  10.524 -0.4373 -0.9643 -0.4870
  106OSM    C5S10801   0.840   3.244  10.597 -0.1048 -0.1139  0.1760
  106OSM    H5S10802   0.783   3.276  10.686 -3.2368 -0.8124 -1.4877
  106OSM    C6S10803   0.911   3.346  10.506  0.0257 -0.2985  0.3897
  106OSM    H6S10804   1.006   3.356  10.563  0.5526 -1.7334 -0.2087
  106OSM    H6T10805   0.858   3.444  10.509  1.3349  0.4395 -0.3356
  106OSM    C7S10806   0.937   3.297  10.364 -0.4240  0.0616  0.0047
  106OSM    H7S10807   0.984   3.196  10.362  2.6520  1.4228  1.4243
  106OSM    H7T10808   1.009   3.369  10.320  0.0678 -0.1137  0.5218
  106OSM    C8S10809   0.803   3.314  10.284 -0.5387 -0.7217  0.7228
  106OSM    H8S10810   0.774   3.420  10.271 -1.0335 -1.1292 -1.7417
  106OSM    H8T10811   0.722   3.265  10.341 -0.1384 -0.5114  1.4706
  106OSM    C9S10812   0.811   3.244  10.141 -0.3427  0.1322 -0.0174
  106OSM    H9S10813   0.711   3.239  10.094  0.5739  1.1931 -2.2094
  106OSM    H9T10814   0.846   3.140  10.157  0.7173  0.3695 -0.7249
  106OSM   C10S10815   0.905   3.315  10.044 -0.4539 -0.1616 -0.3827
  106OSM   H10S10816   1.012   3.316  10.074 -0.8548  0.7728  1.0311
  106OSM   H10T10817   0.868   3.419  10.047 -1.0591 -0.4017  1.0686
  106OSM   C11S10818   0.880   3.258   9.907  0.1251 -0.8469  0.1410
  106OSM   H11S10819   0.777   3.282   9.873  0.4437  0.8904  0.3374
  106OSM   H11T10820   0.894   3.148   9.906 -0.5599 -0.9382  0.1355
  106OSM   C12S10821   0.971   3.315   9.794 -0.2083  0.4257 -0.2925
  106OSM   H12S10822   1.077   3.295   9.818 -0.2703  0.6108  0.1350
  106OSM   H12T10823   0.959   3.425   9.800 -0.2892  0.2964  2.4116
  106OSM   C13S10824   0.932   3.267   9.652  0.1733 -0.2810  0.3382
  106OSM   H13S10825   0.829   3.304   9.632  0.0676 -0.1321  1.1369
  106OSM   H13T10826   0.926   3.156   9.656  0.9990 -0.3156  0.8465
  106OSM   C14S10827   1.032   3.310   9.541  0.4893 -0.4065 -0.9993
  106OSM   H14S10828   1.130   3.267   9.569  0.0937 -0.1465  0.8550
  106OSM   H14T10829   1.034   3.420   9.529 -0.7374 -0.1295  1.0540
  106OSM   C15S10830   0.991   3.253   9.404 -0.2510  0.0187 -0.0772
  106OSM   H15S10831   0.888   3.278   9.373 -0.4389 -0.4784  0.1376
  106OSM   H15T10832   0.994   3.141   9.404 -0.6942  0.0026 -2.1886
  106OSM   C16S10833   1.088   3.305   9.300  0.6289 -0.0813 -0.7161
  106OSM   H16S10834   1.190   3.267   9.324  0.6682  0.2125 -0.4141
  106OSM   H16T10835   1.099   3.416   9.296  1.0467  0.0305  2.3629
  106OSM   C17S10836   1.044   3.253   9.160 -0.0849 -0.2063  1.0419
  106OSM   H17S10837   0.946   3.298   9.134 -0.5433 -1.9969 -0.4996
  106OSM   H17T10838   1.013   3.147   9.172  4.1116 -1.5162  1.2083
  106OSM   C18S10839   1.154   3.270   9.064  0.0559 -0.6266  0.1376
  106OSM   H18S10840   1.234   3.199   9.096 -0.4379 -0.4100  1.9348
  106OSM   H18T10841   1.201   3.370   9.069  0.5219 -0.8123 -0.4182
  106OSM   H18U10842   1.129   3.236   8.961  0.1456  1.4476 -0.5812
  106OSM    C1F10843   0.685   2.784  10.381  0.5804 -1.0085 -0.1486
  106OSM     OF10844   0.572   2.747  10.411 -0.4796  0.5812  0.5461
  106OSM    C2F10845   0.759   2.738  10.256  0.4966  0.7317  0.2833
  106OSM    H2F10846   0.760   2.628  10.263 -1.2707  0.7086  0.3791
  106OSM    H2G10847   0.864   2.774  10.260  0.5468  0.6920 -0.5437
  106OSM    C3F10848   0.694   2.779  10.120  0.3494  0.3978 -1.0478
  106OSM    H3F10849   0.704   2.889  10.113  0.4212  0.4474 -0.2075
  106OSM    H3G10850   0.588   2.744  10.116  0.9929 -1.7714  0.1007
  106OSM    C4F10851   0.764   2.717   9.997 -0.2813  0.0167 -0.2436
  106OSM    H4F10852   0.772   2.607  10.005  0.3200  0.1126  0.5502
  106OSM    H4G10853   0.867   2.760   9.993 -0.4035  0.3636  0.3166
  106OSM    C5F10854   0.698   2.768   9.867 -0.3578 -0.6153 -1.1167
  106OSM    H5F10855   0.674   2.874   9.889 -2.6717 -1.7234  2.0643
  106OSM    H5G10856   0.599   2.720   9.855  0.6026 -2.5153 -1.6267
  106OSM    C6F10857   0.774   2.731   9.742  0.1568 -0.4188  0.1473
  106OSM    H6F10858   0.794   2.622   9.735 -1.2038 -0.5919 -1.3576
  106OSM    H6G10859   0.874   2.779   9.754  0.7164 -1.6916  0.6534
  106OSM    C7F10860   0.692   2.769   9.617  0.3431  0.0490 -0.0564
  106OSM    H7F10861   0.650   2.871   9.631  0.1659 -0.2073  1.3617
  106OSM    H7G10862   0.598   2.712   9.603  0.0872  0.0329  1.6183
  106OSM    C8F10863   0.781   2.769   9.490 -0.4301 -0.3995 -0.2452
  106OSM    H8F10864   0.865   2.842   9.498 -2.1162  1.5362  0.3901
  106OSM    H8G10865   0.729   2.820   9.406  0.8495  0.2187 -0.6922
  106OSM    C9F10866   0.846   2.638   9.463  0.1548  0.5490 -0.6051
  106OSM    H9F10867   0.915   2.604   9.542 -2.0339 -1.0473  0.6959
  106OSM   C10F10868   0.812   2.555   9.363 -0.1766  0.4783  0.0592
  106OSM   H10F10869   0.870   2.464   9.339  0.5815  1.0481 -0.3150
  106OSM   C11F10870   0.706   2.578   9.256 -0.8919 -0.2026  0.4161
  106OSM   H11F10871   0.615   2.620   9.304 -0.7173  0.1051  0.4753
  106OSM   H11G10872   0.674   2.476   9.224  0.4203 -0.5190  0.0848
  106OSM   C12F10873   0.744   2.655   9.126 -0.2152  0.1864 -0.3462
  106OSM   H12F10874   0.795   2.750   9.156 -1.9102  0.9998  0.0317
  106OSM   H12G10875   0.650   2.688   9.077  0.2119  0.7463 -0.8016
  106OSM   C13F10876   0.850   2.589   9.035 -0.1033 -0.0314  0.6696
  106OSM   H13F10877   0.943   2.574   9.093  1.8806 -0.6457 -2.5684
  106OSM   H13G10878   0.870   2.654   8.947  1.3482 -1.3002  0.0504
  106OSM   C14F10879   0.813   2.444   8.996  0.2306  0.4216  0.1252
  106OSM   H14F10880   0.708   2.447   8.960  0.3546  0.0010 -0.2783
  106OSM   H14G10881   0.826   2.384   9.088 -2.6589 -1.0186 -0.3414
  106OSM   C15F10882   0.891   2.398   8.873  0.3243  0.5371 -0.1916
  106OSM   H15F10883   0.995   2.436   8.881  0.3495  0.3738  0.2959
  106OSM   H15G10884   0.849   2.438   8.779 -0.9612  0.2596  0.2632
  106OSM   C16F10885   0.896   2.247   8.860 -0.3493  0.3395  0.0658
  106OSM   H16F10886   0.797   2.200   8.844 -0.5743  0.5173  0.9044
  106OSM   H16G10887   0.927   2.203   8.957 -0.0010 -1.1403 -0.6928
  106OSM   C17F10888   0.998   2.199   8.759  0.8778  0.0698 -0.0735
  106OSM   H17F10889   0.983   2.088   8.757 -0.8010  0.2871 -0.7056
  106OSM   H17G10890   1.104   2.218   8.787  2.2620 -2.0156 -3.5204
  106OSM   C18F10891   0.984   2.244   8.617 -0.4098  0.2587  0.1932
  106OSM   H18F10892   0.875   2.245   8.598 -0.0983  2.2966 -1.5701
  106OSM   H18G10893   1.035   2.176   8.545  0.4030  0.4639  0.5703
  106OSM   H18H10894   1.013   2.349   8.595 -0.8569  0.4400  0.4751
  107OSM      N10895   3.576   0.704  11.197  0.5383  0.2075 -0.0561
  107OSM    C1510896   3.607   0.853  11.175  0.1369  0.1200 -0.0728
  107OSM   H15A10897   3.521   0.917  11.184 -0.2273 -0.1770 -1.3900
  107OSM   H15B10898   3.661   0.871  11.084  1.1750 -1.9679  0.1096
  107OSM   H15C10899   3.678   0.879  11.252 -0.8639  1.6066  0.3689
  107OSM    C1410900   3.707   0.625  11.203 -0.0712  0.8686 -0.2111
  107OSM   H14A10901   3.684   0.541  11.266 -0.6687  0.8784 -0.4090
  107OSM   H14B10902   3.795   0.681  11.232 -1.2327  2.5743  0.0954
  107OSM   H14C10903   3.742   0.605  11.103  0.0816 -2.9142  0.5423
  107OSM    C1310904   3.493   0.706  11.322 -0.4403  0.0618 -0.2052
  107OSM   H13A10905   3.499   0.612  11.375 -0.5218  0.4656  0.5185
  107OSM   H13B10906   3.388   0.721  11.302 -0.3408  0.8622 -0.1530
  107OSM   H13C10907   3.522   0.792  11.380 -0.9653  0.0286  0.1034
  107OSM    C1210908   3.502   0.654  11.073 -0.1386 -0.3757 -0.2419
  107OSM   H12A10909   3.554   0.684  10.984  0.9492 -0.4202  0.3786
  107OSM   H12B10910   3.401   0.692  11.064 -0.3004 -0.7929 -0.2153
  107OSM    C1110911   3.481   0.504  11.063  0.0325 -0.7119  0.3519
  107OSM   H11A10912   3.436   0.473  11.159  1.1463  1.3187  1.5862
  107OSM   H11B10913   3.576   0.448  11.046 -0.0153 -0.6304 -0.1976
  107OSM      P10914   3.249   0.526  10.929  0.1568  0.3443  0.4365
  107OSM    O1310915   3.187   0.415  10.865  0.0461  0.5777 -0.4770
  107OSM    O1410916   3.201   0.564  11.064  0.0581  0.6361 -0.0335
  107OSM    O1110917   3.237   0.656  10.838  0.0089  0.2379 -0.7558
  107OSM    O1210918   3.398   0.480  10.944  0.1895 -0.6544 -0.5569
  107OSM    C1S10919   3.328   0.681  10.731 -0.6931  1.2143  0.3376
  107OSM    H1S10920   3.430   0.642  10.748 -1.0512  0.6599  1.2591
  107OSM    H1T10921   3.336   0.792  10.723  0.4021  1.1942  1.0679
  107OSM     NF10922   3.382   0.643  10.490 -0.0062 -0.5867  0.7625
  107OSM    HNF10923   3.374   0.711  10.417  0.5323 -0.3571  0.9184
  107OSM    C2S10924   3.273   0.633  10.596 -0.3865 -0.6408  0.8630
  107OSM    H2S10925   3.242   0.527  10.584  0.4184 -0.5246 -2.9319
  107OSM    C3S10926   3.138   0.713  10.572 -0.0438 -0.1594  0.5669
  107OSM    H3S10927   3.156   0.819  10.603 -1.0244 -0.3461  1.8074
  107OSM     O310928   3.043   0.690  10.672 -0.0291 -0.4031 -0.6704
  107OSM    HO310929   3.099   0.661  10.743  0.3147  0.0136 -0.7663
  107OSM    C4S10930   3.090   0.702  10.431  0.7652 -0.3789  0.3902
  107OSM    H4S10931   3.115   0.783  10.360  1.2155 -1.2856 -0.4845
  107OSM    C5S10932   2.996   0.618  10.396 -0.0022 -0.1593  0.0982
  107OSM    H5S10933   2.956   0.554  10.476 -1.1164  0.2791 -0.0958
  107OSM    C6S10934   2.932   0.611  10.256 -0.4740  0.0637 -0.5852
  107OSM    H6S10935   2.837   0.667  10.255  0.2630  1.4104  1.5707
  107OSM    H6T10936   2.907   0.507  10.226  2.4228 -0.1645 -2.4452
  107OSM    C7S10937   3.017   0.668  10.138  0.1807 -0.2917 -0.0770
  107OSM    H7S10938   3.108   0.604  10.127  0.4926  0.2899 -0.8996
  107OSM    H7T10939   3.057   0.768  10.167 -0.7644  0.5820 -1.7098
  107OSM    C8S10940   2.931   0.677  10.006 -0.0937 -0.2241 -0.7318
  107OSM    H8S10941   2.846   0.748  10.012 -0.3495 -0.6815  1.4487
  107OSM    H8T10942   2.882   0.578   9.997 -1.6498  0.7198 -2.8561
  107OSM    C9S10943   3.019   0.698   9.880  0.0835  0.3193 -0.3324
  107OSM    H9S10944   3.107   0.632   9.892 -1.0409 -1.4046 -1.3834
  107OSM    H9T10945   3.063   0.800   9.874  0.0629  0.5843  3.1686
  107OSM   C10S10946   2.937   0.663   9.758  0.1378 -0.1906 -0.3182
  107OSM   H10S10947   2.844   0.721   9.738  1.1288  1.2912 -0.7128
  107OSM   H10T10948   2.895   0.560   9.752  2.3019 -1.1169  0.1927
  107OSM   C11S10949   3.011   0.690   9.628 -0.2603  0.4064 -0.5137
  107OSM   H11S10950   3.112   0.647   9.648 -0.2094  0.8146  0.1587
  107OSM   H11T10951   3.013   0.798   9.600  0.2125 -0.1039 -2.4747
  107OSM   C12S10952   2.948   0.616   9.507  0.7038  0.2015 -0.7696
  107OSM   H12S10953   2.839   0.637   9.506  1.0858  2.2263 -1.3316
  107OSM   H12T10954   2.972   0.507   9.505  2.9257  0.6409  0.8209
  107OSM   C13S10955   2.993   0.673   9.366 -0.1991  0.1898 -0.0131
  107OSM   H13S10956   3.103   0.684   9.355  0.3659 -1.8213  3.0157
  107OSM   H13T10957   2.959   0.779   9.366 -0.8762 -0.0249  0.8054
  107OSM   C14S10958   2.941   0.613   9.241  0.0827 -0.3774  0.1710
  107OSM   H14S10959   2.843   0.563   9.261 -0.5919  1.3280  1.2907
  107OSM   H14T10960   3.012   0.544   9.192  2.2139  0.9783  1.2818
  107OSM   C15S10961   2.922   0.720   9.137  0.6294  0.5212  0.0155
  107OSM   H15S10962   3.005   0.792   9.120  4.3673 -3.9734 -1.8920
  107OSM   H15T10963   2.835   0.782   9.167 -1.4325 -2.5709  0.6565
  107OSM   C16S10964   2.905   0.656   8.996  0.4789 -0.5337 -0.3762
  107OSM   H16S10965   2.817   0.590   9.006  0.4509 -0.0839  2.7839
  107OSM   H16T10966   2.995   0.591   8.988  0.5370 -0.5625  0.5020
  107OSM   C17S10967   2.913   0.765   8.890  0.2594 -0.2028  0.0697
  107OSM   H17S10968   3.012   0.817   8.883 -0.3275  0.7055 -1.7404
  107OSM   H17T10969   2.846   0.851   8.910  1.0701 -0.0922  2.5437
  107OSM   C18S10970   2.877   0.693   8.758 -0.4152 -0.2464 -0.7508
  107OSM   H18S10971   2.776   0.648   8.770 -0.6696  0.1257 -1.5092
  107OSM   H18T10972   2.949   0.609   8.747 -0.7586 -0.9427  1.8828
  107OSM   H18U10973   2.878   0.761   8.670 -0.2433  0.1248 -0.4641
  107OSM    C1F10974   3.495   0.572  10.500  0.4029  0.3550  0.7045
  107OSM     OF10975   3.499   0.468  10.561 -0.2188 -0.2567 -0.0562
  107OSM    C2F10976   3.617   0.623  10.424  0.5837  0.2416 -0.0594
  107OSM    H2F10977   3.663   0.712  10.472 -2.0775  1.4082  0.4202
  107OSM    H2G10978   3.566   0.657  10.331  0.5172 -0.3355 -0.2354
  107OSM    C3F10979   3.729   0.524  10.406  0.4476  0.1374 -0.0366
  107OSM    H3F10980   3.693   0.443  10.340 -1.1408 -1.9803  3.3034
  107OSM    H3G10981   3.751   0.466  10.498  1.2204  0.8574  0.2403
  107OSM    C4F10982   3.866   0.596  10.368 -0.3589 -0.4391  0.1316
  107OSM    H4F10983   3.951   0.529  10.393  1.1287  0.8615 -1.3222
  107OSM    H4G10984   3.887   0.679  10.439 -0.2553 -0.3489 -0.0019
  107OSM    C5F10985   3.879   0.643  10.222 -0.1311 -0.1600 -0.1014
  107OSM    H5F10986   3.978   0.694  10.224 -0.3118  0.1612  1.4639
  107OSM    H5G10987   3.808   0.725  10.196  0.2789  0.1572 -0.2345
  107OSM    C6F10988   3.869   0.534  10.121  0.6571 -0.2816 -0.7749
  107OSM    H6F10989   3.774   0.476  10.133 -1.4249  3.2108  0.3453
  107OSM    H6G10990   3.952   0.460  10.124  1.2450  0.3067 -2.0464
  107OSM    C7F10991   3.865   0.598   9.973 -0.9324 -0.6117 -0.5037
  107OSM    H7F10992   3.970   0.634   9.967  0.0485 -3.1573  0.7031
  107OSM    H7G10993   3.795   0.684   9.970  0.1616  0.3042 -0.2801
  107OSM    C8F10994   3.841   0.490   9.871 -0.1941  0.0347  0.3361
  107OSM    H8F10995   3.814   0.557   9.785  2.9704  2.1672  0.9312
  107OSM    H8G10996   3.760   0.416   9.890  0.6405 -0.7894  0.6724
  107OSM    C9F10997   3.975   0.424   9.844  0.3207  0.0861  0.1463
  107OSM    H9F10998   4.011   0.360   9.926  3.3453 -0.2982 -1.4433
  107OSM   C10F10999   4.047   0.437   9.732  0.1789 -0.2873 -0.9759
  107OSM   H10F11000   4.146   0.387   9.732  1.2776  1.7985  0.2670
  107OSM   C11F11001   4.023   0.533   9.614  0.6330 -0.0129 -0.1797
  107OSM   H11F11002   4.101   0.610   9.598  1.2027 -0.5314  0.0733
  107OSM   H11G11003   3.926   0.588   9.622  0.8562  0.2610  0.6497
  107OSM   C12F11004   4.009   0.453   9.486  0.2817 -0.3160 -0.2513
  107OSM   H12F11005   3.955   0.357   9.500 -2.8657  1.1634 -1.7497
  107OSM   H12G11006   4.112   0.434   9.451 -0.1374  0.3861 -1.9115
  107OSM   C13F11007   3.935   0.525   9.368 -0.1665 -0.0997 -0.1985
  107OSM   H13F11008   4.001   0.589   9.307 -0.7127  1.3744  0.7333
  107OSM   H13G11009   3.850   0.591   9.396 -0.8135 -1.5599  1.4189
  107OSM   C14F11010   3.884   0.422   9.266  0.6989  0.2801  0.3838
  107OSM   H14F11011   3.776   0.434   9.247  0.2177 -1.3137  2.0018
  107OSM   H14G11012   3.910   0.319   9.299 -1.1454 -0.0264  0.9171
  107OSM   C15F11013   3.966   0.440   9.133 -0.2635  0.2107  0.3053
  107OSM   H15F11014   4.069   0.418   9.168 -1.0062  0.3603  2.6838
  107OSM   H15G11015   3.953   0.544   9.097 -1.2539 -0.2901 -0.8046
  107OSM   C16F11016   3.926   0.340   9.030 -0.1603  0.1163  0.5344
  107OSM   H16F11017   3.877   0.407   8.956  1.7168  2.1780  1.1079
  107OSM   H16G11018   3.845   0.272   9.063  1.1683 -0.7961  1.9768
  107OSM   C17F11019   4.035   0.257   8.957  0.8051 -0.4182 -0.4167
  107OSM   H17F11020   4.102   0.326   8.901 -0.4608  1.4184  0.2687
  107OSM   H17G11021   3.959   0.205   8.894  1.1094  1.7018 -2.5960
  107OSM   C18F11022   4.125   0.165   9.043  0.3514  0.1280 -1.4094
  107OSM   H18F11023   4.222   0.212   9.072 -0.5988  2.2015 -1.5048
  107OSM   H18G11024   4.150   0.074   8.984  1.7732  0.6897 -1.7068
  107OSM   H18H11025   4.064   0.143   9.133  0.2810 -0.7863 -1.6763
  108OSM      N11026   0.757   1.136  10.668 -0.1064  0.2919 -0.3772
  108OSM    C1511027   0.834   1.119  10.800  0.2669 -0.3580  0.2998
  108OSM   H15A11028   0.806   1.205  10.859 -1.0870 -1.5770  1.4788
  108OSM   H15B11029   0.941   1.112  10.790  0.3477  0.4615  0.5427
  108OSM   H15C11030   0.795   1.028  10.843 -2.7729  0.5414 -0.3736
  108OSM    C1411031   0.775   1.014  10.585  0.0834  0.5374  0.6685
  108OSM   H14A11032   0.881   1.002  10.568 -0.3082 -0.5066 -1.1119
  108OSM   H14B11033   0.723   1.024  10.491  3.0903 -0.2736 -1.1153
  108OSM   H14C11034   0.749   0.917  10.626 -0.0065  0.6144  0.7971
  108OSM    C1311035   0.614   1.155  10.698  0.2371 -0.4007 -0.0494
  108OSM   H13A11036   0.588   1.074  10.764  1.6069 -0.7576  0.0553
  108OSM   H13B11037   0.540   1.143  10.620 -0.8440 -2.1586  1.2034
  108OSM   H13C11038   0.596   1.250  10.746  3.3879  0.3890 -0.3127
  108OSM    C1211039   0.809   1.259  10.594  0.1249  0.6655 -0.7633
  108OSM   H12A11040   0.762   1.280  10.499  1.1005  0.6611 -1.2433
  108OSM   H12B11041   0.910   1.235  10.567  0.2235  2.4061 -2.0186
  108OSM    C1111042   0.812   1.394  10.670  0.1056 -0.0453  0.3178
  108OSM   H11A11043   0.889   1.385  10.749  1.5422  0.3985 -1.0236
  108OSM   H11B11044   0.713   1.413  10.718  0.5111  0.0021  1.1318
  108OSM      P11045   0.759   1.577  10.503 -0.2763  0.1213 -0.2202
  108OSM    O1311046   0.676   1.640  10.610  0.2318 -0.1160  0.6870
  108OSM    O1411047   0.842   1.672  10.433  0.4982 -0.8985  0.4794
  108OSM    O1111048   0.682   1.484  10.410 -0.6224 -0.1825  0.1210
  108OSM    O1211049   0.861   1.486  10.573  0.2046 -0.8080  0.0022
  108OSM    C1S11050   0.549   1.525  10.359  0.2226  0.6594 -0.7109
  108OSM    H1S11051   0.527   1.629  10.393  1.7304  0.5552  0.6732
  108OSM    H1T11052   0.462   1.469  10.401  0.4824  1.4610  0.9762
  108OSM     NF11053   0.438   1.599  10.157 -0.1091  1.0913  0.5374
  108OSM    HNF11054   0.353   1.551  10.135  0.6955  1.5256 -4.0187
  108OSM    C2S11055   0.548   1.515  10.207  0.5076 -0.1589 -0.3437
  108OSM    H2S11056   0.639   1.562  10.165 -0.3407  0.7923 -1.1215
  108OSM    C3S11057   0.546   1.360  10.172 -0.1229  0.2001 -0.2349
  108OSM    H3S11058   0.470   1.315  10.239  0.7069 -0.5485  0.2255
  108OSM     O311059   0.673   1.297  10.203  0.4831  0.4354 -0.3640
  108OSM    HO311060   0.719   1.364  10.255 -0.5606  0.8068  0.0978
  108OSM    C4S11061   0.516   1.343  10.024  0.6969 -0.2658  0.3433
  108OSM    H4S11062   0.600   1.374   9.959  0.1456 -0.6118 -0.5344
  108OSM    C5S11063   0.399   1.300   9.969  0.6703  0.0167  0.5622
  108OSM    H5S11064   0.308   1.298  10.029 -0.9866  2.2946 -1.7675
  108OSM    C6S11065   0.381   1.279   9.818 -0.2919 -0.2688  0.4337
  108OSM    H6S11066   0.331   1.181   9.801 -0.2644 -0.3568  0.8635
  108OSM    H6T11067   0.479   1.273   9.766  0.7873  1.0309  2.2567
  108OSM    C7S11068   0.292   1.386   9.766 -0.4937  0.4670 -0.2843
  108OSM    H7S11069   0.354   1.479   9.768  0.3672 -0.1002 -0.4391
  108OSM    H7T11070   0.203   1.393   9.832 -2.3000  2.3455 -2.7815
  108OSM    C8S11071   0.246   1.347   9.623  0.1659  0.4985  0.8580
  108OSM    H8S11072   0.328   1.301   9.564 -1.3953 -0.5397 -0.5500
  108OSM    H8T11073   0.208   1.438   9.569  1.7392  0.2133 -0.7680
  108OSM    C9S11074   0.126   1.255   9.629  0.8825  0.5682 -0.3103
  108OSM    H9S11075   0.048   1.313   9.683  0.3335 -0.5952  0.1492
  108OSM    H9T11076   0.157   1.168   9.689 -0.6695  0.8541  0.9531
  108OSM   C10S11077   0.061   1.232   9.497 -0.3716  0.2849 -0.6603
  108OSM   H10S11078   0.009   1.322   9.458  1.3312  0.8761 -1.6014
  108OSM   H10T11079  -0.014   1.149   9.495 -0.6516  0.5511 -2.0335
  108OSM   C11S11080   0.158   1.185   9.387  0.0648  1.0734 -0.1828
  108OSM   H11S11081   0.189   1.080   9.407 -0.3931  0.9472 -0.1238
  108OSM   H11T11082   0.248   1.248   9.374  0.1621  1.3392  1.5555
  108OSM   C12S11083   0.087   1.173   9.241 -0.2569 -0.0381 -0.5706
  108OSM   H12S11084  -0.016   1.132   9.251 -0.9506  1.3989 -1.6058
  108OSM   H12T11085   0.151   1.106   9.180 -0.5691  0.3173 -1.2884
  108OSM   C13S11086   0.062   1.304   9.170 -0.0858  0.5488 -0.3441
  108OSM   H13S11087   0.161   1.347   9.145  0.1439 -0.8845 -2.0162
  108OSM   H13T11088   0.016   1.375   9.241 -1.9028 -2.2204  1.3381
  108OSM   C14S11089  -0.023   1.279   9.046  0.9061  0.6107 -0.8212
  108OSM   H14S11090  -0.099   1.205   9.080  1.4973 -0.3863 -1.6789
  108OSM   H14T11091   0.044   1.222   8.979  3.4845 -0.2880  2.3934
  108OSM   C15S11092  -0.078   1.400   8.977  0.0469 -0.4901  0.4514
  108OSM   H15S11093   0.006   1.465   8.942 -0.3844 -0.2996 -0.2463
  108OSM   H15T11094  -0.135   1.466   9.046 -3.0247 -2.3173 -0.2359
  108OSM   C16S11095  -0.178   1.370   8.859 -0.1390  0.3892 -0.0089
  108OSM   H16S11096  -0.274   1.328   8.895  0.0627 -0.3560 -0.3465
  108OSM   H16T11097  -0.110   1.305   8.801  0.4488  0.6477  0.3822
  108OSM   C17S11098  -0.219   1.494   8.783 -0.7078  0.7933  0.2807
  108OSM   H17S11099  -0.244   1.575   8.856  0.8405  0.9562  0.6372
  108OSM   H17T11100  -0.307   1.454   8.728 -0.5292 -0.0319  0.5899
  108OSM   C18S11101  -0.112   1.542   8.686 -0.3853  0.8293 -0.6301
  108OSM   H18S11102  -0.035   1.600   8.741  0.0006  0.8993 -1.2374
  108OSM   H18T11103  -0.155   1.606   8.606 -1.1517  0.9149 -0.1496
  108OSM   H18U11104  -0.060   1.461   8.631  1.2982  0.8513  0.8934
  108OSM    C1F11105   0.443   1.731  10.151  0.2338 -0.1257 -0.6675
  108OSM     OF11106   0.546   1.792  10.162  0.1120 -0.0175  0.2970
  108OSM    C2F11107   0.315   1.795  10.125  0.3720 -0.0178 -0.7076
  108OSM    H2F11108   0.299   1.882  10.193 -0.9357  0.0896 -1.1424
  108OSM    H2G11109   0.232   1.721  10.132  0.4804 -0.1461 -0.7766
  108OSM    C3F11110   0.310   1.865   9.988 -0.2902  0.2328  0.2029
  108OSM    H3F11111   0.395   1.936   9.985 -0.6423  0.6493 -0.0094
  108OSM    H3G11112   0.210   1.914   9.985 -0.2534  0.2844 -0.1701
  108OSM    C4F11113   0.321   1.765   9.870 -0.1439  0.0217 -0.0086
  108OSM    H4F11114   0.264   1.672   9.890 -0.4151  0.4575  1.2820
  108OSM    H4G11115   0.429   1.743   9.854  0.2917  0.0359  2.7981
  108OSM    C5F11116   0.245   1.826   9.746  0.7756  0.0449  0.3266
  108OSM    H5F11117   0.298   1.923   9.736  0.9459 -0.0826 -0.0357
  108OSM    H5G11118   0.137   1.841   9.766  1.2299  1.7149  1.6162
  108OSM    C6F11119   0.261   1.743   9.621 -0.2450 -0.1530 -0.2604
  108OSM    H6F11120   0.200   1.655   9.648  0.7528 -0.4287  1.1427
  108OSM    H6G11121   0.366   1.714   9.599 -0.3121 -1.2357  0.8195
  108OSM    C7F11122   0.203   1.833   9.507 -0.2431 -0.1385 -0.0945
  108OSM    H7F11123   0.256   1.931   9.514  0.4533 -0.4965 -0.3248
  108OSM    H7G11124   0.093   1.845   9.520 -0.3625 -0.5846 -0.6937
  108OSM    C8F11125   0.236   1.769   9.371 -0.4402  0.4570 -1.1242
  108OSM    H8F11126   0.342   1.737   9.375 -0.9512 -1.4050 -2.0318
  108OSM    H8G11127   0.234   1.848   9.292  0.4809  1.7193  0.0896
  108OSM    C9F11128   0.158   1.648   9.338 -0.3993  0.3195 -0.3290
  108OSM    H9F11129   0.180   1.554   9.392 -0.5471 -0.2504 -1.2557
  108OSM   C10F11130   0.060   1.638   9.244 -0.4079 -0.3783  0.2778
  108OSM   H10F11131  -0.004   1.550   9.230 -2.0510  1.1857 -2.6324
  108OSM   C11F11132   0.005   1.745   9.157 -0.1261 -0.3801  0.1133
  108OSM   H11F11133  -0.016   1.704   9.056  2.2007  0.6981 -0.8427
  108OSM   H11G11134   0.085   1.818   9.131 -0.4184 -0.5621 -1.3419
  108OSM   C12F11135  -0.120   1.805   9.214 -0.2501  0.4082  0.2109
  108OSM   H12F11136  -0.099   1.840   9.317  2.4326  1.4262 -0.6349
  108OSM   H12G11137  -0.212   1.744   9.221 -0.2409  0.1957 -1.2234
  108OSM   C13F11138  -0.154   1.926   9.122 -0.7732 -0.5188  0.2107
  108OSM   H13F11139  -0.060   1.982   9.107 -0.3205 -1.1892  0.5110
  108OSM   H13G11140  -0.229   1.996   9.163 -0.9860 -0.0005 -1.0611
  108OSM   C14F11141  -0.215   1.890   8.983  0.3212  0.2365 -0.1578
  108OSM   H14F11142  -0.317   1.851   9.002 -1.9932  3.3465 -5.1876
  108OSM   H14G11143  -0.160   1.810   8.928  0.3597 -0.5857  1.0577
  108OSM   C15F11144  -0.224   2.009   8.889  0.0584  0.1654  0.0267
  108OSM   H15F11145  -0.131   2.070   8.890  0.3093 -0.1650 -1.6857
  108OSM   H15G11146  -0.310   2.072   8.919  0.4168  0.3943  0.5631
  108OSM   C16F11147  -0.231   1.971   8.739 -0.3150 -1.0079  0.2951
  108OSM   H16F11148  -0.320   1.912   8.710  0.8380 -1.8372 -1.6461
  108OSM   H16G11149  -0.134   1.927   8.707  1.0161  2.4695 -0.7671
  108OSM   C17F11150  -0.238   2.095   8.648  0.1085  0.5794  0.4437
  108OSM   H17F11151  -0.245   2.054   8.545  1.3149 -0.4537  0.7570
  108OSM   H17G11152  -0.143   2.149   8.668  0.7786 -0.3473 -0.2249
  108OSM   C18F11153  -0.360   2.184   8.664  0.3098  0.3186  0.0565
  108OSM   H18F11154  -0.362   2.246   8.756 -1.6927  1.6316 -0.8308
  108OSM   H18G11155  -0.459   2.134   8.664  1.3311 -1.7411  0.2743
  108OSM   H18H11156  -0.375   2.268   8.592 -0.4266  0.3838  0.2831
  109OSM      N11157   5.771   0.614  10.922 -0.5067  0.3696 -0.1820
  109OSM    C1511158   5.711   0.737  10.990 -0.3357 -0.6837  0.0142
  109OSM   H15A11159   5.756   0.828  10.953 -0.0061 -1.1560 -0.7633
  109OSM   H15B11160   5.717   0.735  11.098 -1.6754  2.4698  0.2028
  109OSM   H15C11161   5.605   0.743  10.971 -0.1158 -1.0182 -1.3401
  109OSM    C1411162   5.764   0.625  10.770 -0.1841 -0.4554 -0.0130
  109OSM   H14A11163   5.840   0.691  10.730 -0.4901 -0.7161 -1.0414
  109OSM   H14B11164   5.661   0.648  10.752 -0.4859 -0.1566  1.9696
  109OSM   H14C11165   5.782   0.535  10.713 -1.8179  0.3952 -1.8901
  109OSM    C1311166   5.924   0.609  10.943 -0.0713 -0.5758 -0.7022
  109OSM   H13A11167   5.935   0.630  11.048 -0.3912 -0.1421 -0.7540
  109OSM   H13B11168   5.981   0.675  10.879  2.5470  0.2556  2.3697
  109OSM   H13C11169   5.957   0.510  10.916 -0.4997 -1.1923  0.9982
  109OSM    C1211170   5.707   0.488  10.976  0.0450  0.4221 -0.6919
  109OSM   H12A11171   5.601   0.496  10.953  0.5588  0.4215 -3.2921
  109OSM   H12B11172   5.706   0.487  11.084  0.8890 -0.0741 -0.6881
  109OSM    C1111173   5.764   0.353  10.927 -0.3626 -0.2599 -0.0800
  109OSM   H11A11174   5.774   0.358  10.817 -2.4052 -3.5934 -0.5048
  109OSM   H11B11175   5.692   0.269  10.937 -1.1872  0.8931  4.7235
  109OSM      P11176   5.965   0.197  10.957 -0.0118 -0.1560  0.3544
  109OSM    O1311177   6.105   0.215  10.988 -0.1242 -0.1278 -0.1896
  109OSM    O1411178   5.898   0.087  11.025  0.0022  0.1696  0.1376
  109OSM    O1111179   5.946   0.182  10.796  0.0131  0.0345 -0.3641
  109OSM    O1211180   5.891   0.332  10.996  0.9682 -0.8558 -0.1858
  109OSM    C1S11181   6.052   0.202  10.708  0.1581 -0.2402 -0.2574
  109OSM    H1S11182   6.136   0.133  10.729  0.1127 -0.4015 -0.6000
  109OSM    H1T11183   6.099   0.303  10.704  0.2140 -0.3391 -3.0456
  109OSM     NF11184   6.118   0.193  10.466 -0.2429 -0.2268 -0.5916
  109OSM    HNF11185   6.117   0.269  10.401  1.2005 -0.0448 -0.4252
  109OSM    C2S11186   6.007   0.179  10.560 -0.2296  0.4093  0.2455
  109OSM    H2S11187   5.959   0.080  10.551 -1.0534  1.0047 -2.4731
  109OSM    C3S11188   5.888   0.271  10.521 -0.4067  0.0374  0.2470
  109OSM    H3S11189   5.916   0.377  10.538  1.1175 -0.7574  2.9420
  109OSM     O311190   5.767   0.248  10.591 -0.0019  0.1201  0.2521
  109OSM    HO311191   5.802   0.208  10.671 -0.1254 -0.1618  0.1684
  109OSM    C4S11192   5.863   0.262  10.370  0.1189 -0.0358 -0.4582
  109OSM    H4S11193   5.908   0.345  10.315  0.6542 -0.3661 -0.5197
  109OSM    C5S11194   5.792   0.166  10.305 -0.5838  0.1296  1.0321
  109OSM    H5S11195   5.737   0.095  10.369 -1.6391  2.0844  2.3246
  109OSM    C6S11196   5.765   0.152  10.160 -0.4658  0.2744  0.6687
  109OSM    H6S11197   5.657   0.134  10.144  0.2343 -2.8083 -0.8935
  109OSM    H6T11198   5.796   0.053  10.121  3.1294  1.9430 -0.9070
  109OSM    C7S11199   5.815   0.271  10.073 -0.4133 -0.1955  0.1576
  109OSM    H7S11200   5.925   0.261  10.059 -0.4782  3.2845 -3.4635
  109OSM    H7T11201   5.787   0.368  10.120 -1.7240 -1.4323  1.9974
  109OSM    C8S11202   5.758   0.262   9.933 -0.0515 -0.8396 -0.3621
  109OSM    H8S11203   5.657   0.304   9.953  1.5876  1.8883  2.6227
  109OSM    H8T11204   5.749   0.159   9.893  1.0986 -0.5849 -1.3291
  109OSM    C9S11205   5.837   0.336   9.830 -0.1219  0.1654 -0.0515
  109OSM    H9S11206   5.944   0.333   9.859 -0.5094 -2.2767  1.2949
  109OSM    H9T11207   5.803   0.442   9.834 -0.0491  0.1937 -0.1656
  109OSM   C10S11208   5.817   0.291   9.689 -0.0439 -0.6440 -0.4606
  109OSM   H10S11209   5.721   0.330   9.647 -0.7369  0.4498  2.0558
  109OSM   H10T11210   5.807   0.180   9.680 -0.1900 -0.9095  2.6211
  109OSM   C11S11211   5.936   0.332   9.592 -0.8234  0.7422  0.3241
  109OSM   H11S11212   6.019   0.271   9.631 -2.0870 -0.8868  0.5236
  109OSM   H11T11213   5.956   0.442   9.595  1.0358  0.4365 -0.4929
  109OSM   C12S11214   5.895   0.302   9.451 -0.1393  0.1992 -0.1482
  109OSM   H12S11215   5.819   0.370   9.407 -1.0597  0.1908  1.3987
  109OSM   H12T11216   5.855   0.199   9.441 -0.8209  0.2545  1.8620
  109OSM   C13S11217   6.017   0.306   9.365  0.2948  0.2755 -0.0156
  109OSM   H13S11218   6.086   0.237   9.417 -0.1287  1.3901  2.1072
  109OSM   H13T11219   6.063   0.407   9.359 -1.3962  1.0393 -0.5167
  109OSM   C14S11220   5.989   0.256   9.223 -0.1800  0.3677  0.2479
  109OSM   H14S11221   5.978   0.146   9.224  0.5485  0.2891 -0.2518
  109OSM   H14T11222   6.088   0.276   9.178 -0.8144 -0.2714 -1.4647
  109OSM   C15S11223   5.883   0.330   9.152  0.2073  0.2977 -0.1655
  109OSM   H15S11224   5.907   0.438   9.157  0.7373  0.1163  1.3392
  109OSM   H15T11225   5.787   0.306   9.202  0.2587  0.6954  0.1230
  109OSM   C16S11226   5.874   0.292   9.007 -0.7205 -0.7165 -0.3380
  109OSM   H16S11227   5.788   0.346   8.962  0.4325  1.7846  0.4105
  109OSM   H16T11228   5.847   0.186   8.985 -0.2205 -0.7996 -0.5791
  109OSM   C17S11229   6.005   0.317   8.932  0.1129 -0.8570  0.6184
  109OSM   H17S11230   6.062   0.222   8.928  0.6861 -0.4910 -0.1117
  109OSM   H17T11231   6.064   0.393   8.987 -0.7465  0.5302 -0.3187
  109OSM   C18S11232   5.977   0.356   8.791 -0.5203  0.4421 -0.1708
  109OSM   H18S11233   6.070   0.363   8.731  0.1971  1.0935  0.9981
  109OSM   H18T11234   5.923   0.454   8.786  2.1579  1.9413 -0.6041
  109OSM   H18U11235   5.908   0.283   8.744 -1.5795  0.1464  1.7540
  109OSM    C1F11236   6.213   0.101  10.463  1.2435  0.0164  0.1588
  109OSM     OF11237   6.200  -0.003  10.523 -0.2566  0.0893  0.3418
  109OSM    C2F11238   6.328   0.129  10.381 -0.5546 -0.0347  0.2703
  109OSM    H2F11239   6.379   0.220  10.420  2.1731 -0.8864 -1.1501
  109OSM    H2G11240   6.282   0.155  10.283  2.5899 -1.9810 -1.8457
  109OSM    C3F11241   6.418   0.010  10.359  0.0072  0.5015 -0.5849
  109OSM    H3F11242   6.359  -0.073  10.313 -1.0687  1.6339 -1.2734
  109OSM    H3G11243   6.462  -0.024  10.455  1.3022  1.6933 -0.7429
  109OSM    C4F11244   6.530   0.053  10.266 -0.1902 -0.5239  0.7390
  109OSM    H4F11245   6.593   0.131  10.313  0.6564 -0.4625 -0.4802
  109OSM    H4G11246   6.479   0.092  10.175  0.3637 -1.3468  0.0758
  109OSM    C5F11247   6.609  -0.063  10.199  0.6471  0.3249 -0.8345
  109OSM    H5F11248   6.543  -0.150  10.179  0.1783  0.3871  0.3465
  109OSM    H5G11249   6.669  -0.112  10.279 -0.8131 -1.0354 -0.5354
  109OSM    C6F11250   6.689  -0.009  10.087  0.5860  0.0384  0.3250
  109OSM    H6F11251   6.761  -0.084  10.047 -0.1127 -0.8642  0.7277
  109OSM    H6G11252   6.750   0.080  10.112  2.4613 -1.5820  1.7092
  109OSM    C7F11253   6.615   0.021   9.957  0.2618 -1.0552 -0.2548
  109OSM    H7F11254   6.560   0.116   9.975 -1.7550 -2.6997  2.8487
  109OSM    H7G11255   6.543  -0.059   9.929 -1.2362  0.9210 -2.1705
  109OSM    C8F11256   6.697   0.039   9.837  0.2151  0.1875 -0.4986
  109OSM    H8F11257   6.757  -0.052   9.815  2.5669  1.4908  0.3489
  109OSM    H8G11258   6.776   0.117   9.848  0.9858 -0.7497  0.8486
  109OSM    C9F11259   6.609   0.080   9.716 -0.9609 -0.1892  0.0307
  109OSM    H9F11260   6.566   0.181   9.714  2.0697  1.2099  1.8142
  109OSM   C10F11261   6.577   0.010   9.600  0.2927  0.2559 -0.6351
  109OSM   H10F11262   6.520   0.065   9.523  0.8597 -1.8750 -2.6485
  109OSM   C11F11263   6.626  -0.134   9.568 -0.1558 -0.5462  0.2870
  109OSM   H11F11264   6.534  -0.197   9.564 -0.1118 -0.5914  0.0096
  109OSM   H11G11265   6.692  -0.170   9.650 -0.9663 -0.5127  0.9674
  109OSM   C12F11266   6.689  -0.171   9.438  0.0771  0.4887  0.5338
  109OSM   H12F11267   6.736  -0.271   9.441  0.4248  0.6108 -0.5056
  109OSM   H12G11268   6.774  -0.101   9.418 -0.0527  1.0536  1.8780
  109OSM   C13F11269   6.595  -0.172   9.316  0.0127 -0.6344  0.1702
  109OSM   H13F11270   6.556  -0.072   9.289  1.3659 -0.0104  0.4861
  109OSM   H13G11271   6.508  -0.233   9.348 -0.8654  0.6977  0.3681
  109OSM   C14F11272   6.655  -0.243   9.192  0.2108 -0.4944  0.1390
  109OSM   H14F11273   6.563  -0.277   9.139 -1.0327  1.9230  0.6906
  109OSM   H14G11274   6.707  -0.338   9.216 -0.8013 -1.6214 -2.0187
  109OSM   C15F11275   6.733  -0.142   9.104  0.5283  0.1068  0.1764
  109OSM   H15F11276   6.828  -0.121   9.159  0.1177  1.9570  0.1893
  109OSM   H15G11277   6.670  -0.051   9.094 -2.4801 -1.7454  1.6631
  109OSM   C16F11278   6.775  -0.201   8.964  0.3386 -0.0659  0.3815
  109OSM   H16F11279   6.821  -0.301   8.976  0.7010 -0.3562 -2.9415
  109OSM   H16G11280   6.849  -0.131   8.920  0.5571  0.0053  0.8558
  109OSM   C17F11281   6.659  -0.211   8.869 -0.2062 -0.2655 -0.4215
  109OSM   H17F11282   6.602  -0.116   8.866 -0.7665 -0.5436  1.4164
  109OSM   H17G11283   6.590  -0.285   8.914 -1.9547  1.3734 -0.3458
  109OSM   C18F11284   6.698  -0.247   8.719 -0.5456 -0.3893 -0.0133
  109OSM   H18F11285   6.605  -0.263   8.659 -0.2842 -0.2862 -0.4482
  109OSM   H18G11286   6.749  -0.346   8.714  1.9992  0.9793 -2.0255
  109OSM   H18H11287   6.772  -0.178   8.673 -2.5643  2.1346  0.4353
  110OSM      N11288   6.622   4.818  11.259  0.0933  1.0277  0.4277
  110OSM    C1511289   6.695   4.862  11.387  1.1657 -0.1784  0.2189
  110OSM   H15A11290   6.663   4.964  11.400 -0.3887 -0.4403 -1.3843
  110OSM   H15B11291   6.803   4.859  11.381  1.1928  0.1715  0.4855
  110OSM   H15C11292   6.664   4.812  11.478  1.9050  1.4578  1.3956
  110OSM    C1411293   6.600   4.673  11.250 -0.2738 -0.0162  0.2574
  110OSM   H14A11294   6.561   4.649  11.152 -1.4690 -0.1455  0.7570
  110OSM   H14B11295   6.526   4.653  11.326  0.7091  1.2658  1.5857
  110OSM   H14C11296   6.684   4.609  11.272  0.4254  0.9648  0.5007
  110OSM    C1311297   6.478   4.876  11.252 -0.2872  0.2438  0.2126
  110OSM   H13A11298   6.441   4.851  11.153 -2.4211 -0.8972  1.2674
  110OSM   H13B11299   6.483   4.980  11.280 -3.8641  0.0211  1.9327
  110OSM   H13C11300   6.408   4.827  11.317  0.1350  0.8861  1.1597
  110OSM    C1211301   6.712   4.863  11.142  0.3511 -0.0960  0.2176
  110OSM   H12A11302   6.668   4.835  11.047  0.0858  0.6705  0.1168
  110OSM   H12B11303   6.808   4.813  11.152  0.4288 -0.3074 -1.4699
  110OSM    C1111304   6.720   5.015  11.114 -0.3820  0.0087  0.4272
  110OSM   H11A11305   6.738   5.080  11.202 -2.0573  1.3995 -0.2294
  110OSM   H11B11306   6.621   5.040  11.070  0.6187  0.9150 -1.3793
  110OSM      P11307   6.962   5.026  11.014 -0.2052  0.3754  0.3816
  110OSM    O1311308   7.007   5.086  11.147  0.4069 -0.5348 -0.1742
  110OSM    O1411309   6.995   4.887  10.993  0.2184 -0.4143 -0.4093
  110OSM    O1111310   7.021   5.111  10.899  0.1280 -0.4911 -0.5760
  110OSM    O1211311   6.803   5.037  11.005  0.1047 -0.6667  0.0726
  110OSM    C1S11312   7.018   5.068  10.763 -0.2877  0.4416  0.1880
  110OSM    H1S11313   6.923   5.022  10.729  0.0047  0.9785 -1.3989
  110OSM    H1T11314   7.091   4.984  10.763 -0.6093  0.1580  0.8711
  110OSM     NF11315   7.048   5.122  10.522 -0.0378 -0.0869  0.7686
  110OSM    HNF11316   7.130   5.100  10.470 -0.4673  1.0688 -0.4117
  110OSM    C2S11317   7.061   5.179  10.655  0.6040 -0.2018  0.1452
  110OSM    H2S11318   6.992   5.265  10.663  2.3742  1.1159  2.0243
  110OSM    C3S11319   7.202   5.232  10.697  0.5399 -0.3497 -0.2852
  110OSM    H3S11320   7.271   5.145  10.704  1.3165  0.4073  2.3461
  110OSM     O311321   7.213   5.287  10.829 -0.1348  0.0072  0.0211
  110OSM    HO311322   7.139   5.253  10.880 -0.9657  3.0354  0.9051
  110OSM    C4S11323   7.249   5.339  10.608  0.6365 -0.2342  0.4824
  110OSM    H4S11324   7.187   5.429  10.609 -0.2924 -0.8662  1.6372
  110OSM    C5S11325   7.363   5.334  10.540  0.1090  0.4555 -1.1402
  110OSM    H5S11326   7.429   5.246  10.541  0.4157  0.6662  2.0192
  110OSM    C6S11327   7.423   5.449  10.465 -0.1206  0.0767 -0.3242
  110OSM    H6S11328   7.430   5.436  10.355  3.9892  3.5779 -0.5820
  110OSM    H6T11329   7.530   5.457  10.491  0.1968 -3.1908 -0.3648
  110OSM    C7S11330   7.371   5.578  10.514 -0.2063  0.5911 -0.2586
  110OSM    H7S11331   7.396   5.595  10.621 -0.2684 -1.1560  0.0468
  110OSM    H7T11332   7.261   5.587  10.501 -0.4755  1.8578  2.4955
  110OSM    C8S11333   7.427   5.703  10.431  0.0173  0.3352 -0.0883
  110OSM    H8S11334   7.538   5.712  10.432 -0.0373  1.0262  0.4174
  110OSM    H8T11335   7.390   5.785  10.497 -1.2436 -1.0870  1.0277
  110OSM    C9S11336   7.374   5.700  10.286 -0.4115 -0.2943  0.2563
  110OSM    H9S11337   7.334   5.800  10.259 -1.2009 -0.7384 -0.2567
  110OSM    H9T11338   7.278   5.643  10.285 -0.8290  0.4134 -1.8392
  110OSM   C10S11339   7.486   5.658  10.185  0.2799  0.2329 -0.7586
  110OSM   H10S11340   7.545   5.567  10.207 -0.4885 -0.5689 -1.9644
  110OSM   H10T11341   7.562   5.740  10.187 -1.8775  2.2903 -0.1853
  110OSM   C11S11342   7.440   5.658  10.042 -0.3815  0.3376  0.2518
  110OSM   H11S11343   7.414   5.762  10.012  1.5922  0.6607 -0.4543
  110OSM   H11T11344   7.357   5.585  10.033  2.4495 -2.8806 -1.1121
  110OSM   C12S11345   7.548   5.598   9.946 -0.2735  0.4950 -0.0611
  110OSM   H12S11346   7.587   5.502   9.987 -1.2793 -0.3716 -1.1133
  110OSM   H12T11347   7.636   5.666   9.937 -0.2753  0.2991 -1.7129
  110OSM   C13S11348   7.507   5.584   9.799  0.0029 -0.6108 -0.0358
  110OSM   H13S11349   7.402   5.548   9.792  0.5308 -1.8549 -2.0197
  110OSM   H13T11350   7.569   5.509   9.745 -1.0959 -0.7334 -1.1677
  110OSM   C14S11351   7.530   5.719   9.729  0.2991 -0.2254  0.0606
  110OSM   H14S11352   7.638   5.738   9.711  0.5238 -1.9361 -0.4185
  110OSM   H14T11353   7.497   5.795   9.804  1.6543  0.4188  0.0373
  110OSM   C15S11354   7.444   5.727   9.598  0.1093  0.0505 -0.7995
  110OSM   H15S11355   7.432   5.837   9.583 -0.8934  0.1693  0.7966
  110OSM   H15T11356   7.343   5.683   9.611  0.1127 -0.9433 -3.7299
  110OSM   C16S11357   7.511   5.661   9.473 -0.2823  0.0520 -0.0305
  110OSM   H16S11358   7.530   5.556   9.506  1.8523  0.0529 -1.1601
  110OSM   H16T11359   7.618   5.689   9.463 -0.3117 -0.6975 -3.0689
  110OSM   C17S11360   7.438   5.669   9.341  0.5596  0.4494  0.3914
  110OSM   H17S11361   7.337   5.623   9.353  0.6956 -0.1787 -0.8040
  110OSM   H17T11362   7.493   5.607   9.267 -0.0915  0.5912 -0.2209
  110OSM   C18S11363   7.434   5.816   9.288 -0.6572  0.3454  0.0834
  110OSM   H18S11364   7.357   5.869   9.347 -1.2903  0.3649 -0.7647
  110OSM   H18T11365   7.423   5.821   9.178  1.3036 -2.3461 -0.2957
  110OSM   H18U11366   7.532   5.862   9.313 -1.2775  0.7073  1.8838
  110OSM    C1F11367   6.924   5.107  10.464  0.0222 -0.3532  0.4523
  110OSM     OF11368   6.823   5.132  10.525  0.2652 -0.3730 -0.1826
  110OSM    C2F11369   6.916   5.048  10.329 -0.6797 -0.1325 -0.2938
  110OSM    H2F11370   6.810   5.029  10.304 -0.9306  1.2283 -0.3073
  110OSM    H2G11371   6.973   4.954  10.313 -0.2413  0.2861 -1.1745
  110OSM    C3F11372   6.964   5.139  10.214 -0.2012  0.6786  0.7293
  110OSM    H3F11373   7.074   5.152  10.219  0.1620 -0.9670 -2.0940
  110OSM    H3G11374   6.916   5.235  10.241  2.4592  1.8680  1.3263
  110OSM    C4F11375   6.919   5.095  10.071 -0.3917  0.9100 -0.1012
  110OSM    H4F11376   6.925   5.186  10.008 -1.0713 -0.0414 -1.5678
  110OSM    H4G11377   6.812   5.067  10.082 -0.8950  2.2441 -1.4178
  110OSM    C5F11378   6.987   4.977   9.995  0.1929 -0.1538 -0.2272
  110OSM    H5F11379   6.934   4.884  10.025  0.6089 -0.8360 -1.5564
  110OSM    H5G11380   7.093   4.970  10.029 -0.2006 -0.0929  1.0549
  110OSM    C6F11381   6.985   4.991   9.847  0.3409  0.0430 -0.2067
  110OSM    H6F11382   7.058   4.921   9.801  1.3577  0.3370  0.9105
  110OSM    H6G11383   7.034   5.084   9.810  1.1842  0.1247  1.0555
  110OSM    C7F11384   6.846   4.969   9.789  0.0379  0.4240  0.4179
  110OSM    H7F11385   6.782   5.054   9.823 -0.2275  0.0894  0.7615
  110OSM    H7G11386   6.802   4.880   9.839  0.0596  1.6999  2.7840
  110OSM    C8F11387   6.839   4.969   9.632 -0.0488  0.4563  0.2251
  110OSM    H8F11388   6.896   5.061   9.607  1.2395  0.5926  3.4320
  110OSM    H8G11389   6.734   4.984   9.599 -0.8393 -2.0169  1.4816
  110OSM    C9F11390   6.890   4.850   9.553 -0.6263  0.5100  0.3602
  110OSM    H9F11391   6.880   4.755   9.607  2.9250 -1.2825 -1.9745
  110OSM   C10F11392   6.965   4.854   9.438  0.2468 -0.7947  0.2944
  110OSM   H10F11393   6.991   4.764   9.380  1.4519 -0.3537  0.1316
  110OSM   C11F11394   7.000   4.972   9.360  0.8708 -0.5416  0.9653
  110OSM   H11F11395   7.099   5.021   9.379 -0.1399  0.4162  4.0082
  110OSM   H11G11396   6.928   5.048   9.397  0.2859 -2.3201  3.5642
  110OSM   C12F11397   6.955   4.954   9.210 -0.2568 -0.4277  0.2737
  110OSM   H12F11398   7.034   4.885   9.174  0.5968  1.1721 -0.9536
  110OSM   H12G11399   6.966   5.045   9.147  0.3136 -2.3831 -2.5311
  110OSM   C13F11400   6.831   4.878   9.176  0.1746 -0.0864  0.4183
  110OSM   H13F11401   6.749   4.939   9.219 -1.4513 -0.1367 -2.5123
  110OSM   H13G11402   6.832   4.781   9.230 -0.7161  0.3772  1.2769
  110OSM   C14F11403   6.799   4.867   9.023 -0.5316  0.1584  0.5114
  110OSM   H14F11404   6.757   4.963   8.988 -1.1610 -0.9475 -1.8745
  110OSM   H14G11405   6.718   4.792   9.009  1.3535 -1.6729 -0.9652
  110OSM   C15F11406   6.919   4.813   8.941 -0.4765 -0.2037 -0.0068
  110OSM   H15F11407   6.963   4.716   8.973  1.6025  0.5041 -0.6286
  110OSM   H15G11408   6.991   4.897   8.951 -1.1424  0.4212 -0.4711
  110OSM   C16F11409   6.883   4.789   8.791  0.3419 -0.2254 -0.2318
  110OSM   H16F11410   6.982   4.778   8.743  0.2681  0.1498 -0.4762
  110OSM   H16G11411   6.851   4.887   8.748 -0.7483 -1.0183 -1.2604
  110OSM   C17F11412   6.779   4.688   8.761  0.4572 -0.3390 -0.6558
  110OSM   H17F11413   6.672   4.714   8.779  0.5147 -0.4769 -0.1157
  110OSM   H17G11414   6.805   4.592   8.812  1.3910 -0.2930 -1.0316
  110OSM   C18F11415   6.784   4.653   8.611  0.2647  1.1670 -0.1189
  110OSM   H18F11416   6.731   4.557   8.598  2.4191 -0.1863  0.8877
  110OSM   H18G11417   6.885   4.627   8.573 -0.7789  0.5224 -2.5918
  110OSM   H18H11418   6.737   4.729   8.545  0.4925 -0.6258 -2.4081
  111OSM      N11419   1.114   2.848  10.944 -0.1480  0.1085  0.2929
  111OSM    C1511420   1.201   2.861  11.062  0.6419  0.1194  0.2736
  111OSM   H15A11421   1.279   2.930  11.036  1.0380 -0.0550  0.9822
  111OSM   H15B11422   1.246   2.774  11.108 -1.8678 -2.0126 -1.1823
  111OSM   H15C11423   1.146   2.916  11.136  0.7492  0.9432 -0.2554
  111OSM    C1411424   1.183   2.770  10.840  0.0192 -0.5569 -0.2658
  111OSM   H14A11425   1.218   2.674  10.876 -1.8254 -0.9171  0.6314
  111OSM   H14B11426   1.270   2.819  10.801  1.1765 -1.0759  1.6035
  111OSM   H14C11427   1.120   2.748  10.755 -0.6935 -1.0358  0.3734
  111OSM    C1311428   0.992   2.768  10.983 -0.1972  0.5821  0.0487
  111OSM   H13A11429   1.031   2.679  11.029  1.8054  0.9134 -0.9318
  111OSM   H13B11430   0.932   2.738  10.899 -0.1696 -1.6605  0.8132
  111OSM   H13C11431   0.939   2.823  11.060 -1.0150  2.4061 -1.7817
  111OSM    C1211432   1.081   2.988  10.894  0.3886  0.3944 -0.1636
  111OSM   H12A11433   1.065   3.057  10.975 -2.1091  0.0458 -0.3031
  111OSM   H12B11434   0.985   2.978  10.844 -0.6138 -0.7123  1.8929
  111OSM    C1111435   1.174   3.075  10.801 -0.7259  0.2314  0.1094
  111OSM   H11A11436   1.133   3.178  10.799 -0.3646  0.4042  1.3564
  111OSM   H11B11437   1.179   3.036  10.697 -0.7593 -0.8902  0.5121
  111OSM      P11438   1.442   3.069  10.790  0.0782  0.3458  0.6235
  111OSM    O1311439   1.550   3.127  10.872 -0.0120  1.1214  0.0537
  111OSM    O1411440   1.443   2.932  10.747  0.5005  0.0876  0.1943
  111OSM    O1111441   1.418   3.164  10.667  0.3163  0.2331  0.8320
  111OSM    O1211442   1.298   3.099  10.863 -0.4767  0.1008  0.2941
  111OSM    C1S11443   1.407   3.299  10.678  0.1899  0.1641 -0.3562
  111OSM    H1S11444   1.480   3.340  10.751  1.1481 -2.7783  0.4098
  111OSM    H1T11445   1.314   3.320  10.735  1.2203 -1.5295  2.0655
  111OSM     NF11446   1.421   3.515  10.554 -0.5710 -0.0390 -0.3556
  111OSM    HNF11447   1.347   3.570  10.516 -0.0328  2.7419  2.3966
  111OSM    C2S11448   1.411   3.370  10.544  0.1646  0.4927  0.4169
  111OSM    H2S11449   1.499   3.323  10.494 -0.2004  1.7898 -1.4740
  111OSM    C3S11450   1.295   3.318  10.437 -0.2754  0.1006  0.8974
  111OSM    H3S11451   1.196   3.341  10.482 -0.3208  0.8402  0.4121
  111OSM     O311452   1.304   3.179  10.420  0.1704  0.1792  0.1886
  111OSM    HO311453   1.360   3.150  10.493  0.3548  1.4843  0.5811
  111OSM    C4S11454   1.316   3.383  10.305 -0.4495  0.3257 -1.0940
  111OSM    H4S11455   1.395   3.339  10.243 -0.0040 -1.2391  0.5544
  111OSM    C5S11456   1.256   3.500  10.263  0.1366  0.7715  0.4915
  111OSM    H5S11457   1.181   3.552  10.325 -1.4943 -0.1246 -0.6668
  111OSM    C6S11458   1.279   3.575  10.128  0.0677 -1.1872 -0.3844
  111OSM    H6S11459   1.321   3.676  10.145  0.3962 -1.0597 -1.9400
  111OSM    H6T11460   1.183   3.595  10.076 -0.7019 -1.5204  0.8742
  111OSM    C7S11461   1.356   3.492  10.021  0.0451  0.0357 -0.8011
  111OSM    H7S11462   1.316   3.389  10.032  3.0772 -1.2059 -0.9754
  111OSM    H7T11463   1.466   3.485  10.030 -0.1208 -0.6746  0.7447
  111OSM    C8S11464   1.335   3.540   9.875 -0.0284  0.1777 -0.8966
  111OSM    H8S11465   1.333   3.651   9.868 -1.0100  0.3088  0.9406
  111OSM    H8T11466   1.229   3.519   9.849 -0.1554  0.4648 -0.6056
  111OSM    C9S11467   1.419   3.462   9.776  0.2005  0.4239 -0.8216
  111OSM    H9S11468   1.429   3.354   9.800  2.5866  1.0403  1.2694
  111OSM    H9T11469   1.517   3.515   9.782  0.2309  0.1523  1.6313
  111OSM   C10S11470   1.354   3.471   9.641 -0.4993 -0.2611  0.0937
  111OSM   H10S11471   1.359   3.575   9.601 -2.7401 -1.7519 -4.4384
  111OSM   H10T11472   1.246   3.456   9.659 -0.5069  1.8151  2.0040
  111OSM   C11S11473   1.411   3.368   9.549  0.0515 -0.0435 -0.0302
  111OSM   H11S11474   1.356   3.373   9.452 -2.1017  1.0644  1.2110
  111OSM   H11T11475   1.386   3.272   9.598  0.1640 -0.9248 -1.6736
  111OSM   C12S11476   1.566   3.378   9.527  0.6840 -0.5664 -0.0897
  111OSM   H12S11477   1.621   3.350   9.620  1.0380 -1.9036 -0.6769
  111OSM   H12T11478   1.583   3.486   9.508  0.7868 -0.2507  1.7039
  111OSM   C13S11479   1.624   3.282   9.420  0.1716  0.6536 -1.0688
  111OSM   H13S11480   1.578   3.186   9.451  3.8112 -0.4815  1.1563
  111OSM   H13T11481   1.734   3.287   9.428  0.2221 -3.3143  1.9198
  111OSM   C14S11482   1.574   3.318   9.280  0.5126 -0.1628 -0.0118
  111OSM   H14S11483   1.649   3.390   9.240  2.3890 -1.7913  0.4793
  111OSM   H14T11484   1.478   3.374   9.284  1.6090  1.8053 -0.1561
  111OSM   C15S11485   1.582   3.196   9.186  0.0556  0.4196  0.4030
  111OSM   H15S11486   1.486   3.145   9.210  0.3266  1.3737  3.7659
  111OSM   H15T11487   1.669   3.132   9.211  0.0415  0.3593  0.2935
  111OSM   C16S11488   1.586   3.235   9.039 -0.7002 -0.4229  0.2171
  111OSM   H16S11489   1.669   3.308   9.036 -1.4906  0.4558 -0.9705
  111OSM   H16T11490   1.487   3.278   9.012 -0.6494 -0.8900 -0.7674
  111OSM   C17S11491   1.626   3.111   8.948 -0.0554 -0.5168  0.3428
  111OSM   H17S11492   1.725   3.067   8.969  0.3440  0.2932  0.1750
  111OSM   H17T11493   1.616   3.147   8.843 -0.3867 -1.4327  0.0579
  111OSM   C18S11494   1.513   3.007   8.965 -0.4571  0.4287  0.0295
  111OSM   H18S11495   1.412   3.053   8.969  0.0052  1.6105 -1.3245
  111OSM   H18T11496   1.525   2.948   9.058  2.1165  0.9551  0.0658
  111OSM   H18U11497   1.528   2.940   8.878 -0.2473 -0.2230  0.5625
  111OSM    C1F11498   1.534   3.575  10.596 -0.2623 -0.5027  0.8019
  111OSM     OF11499   1.635   3.507  10.617 -0.5339  0.3516 -0.3170
  111OSM    C2F11500   1.538   3.728  10.619 -0.3058  0.1294  0.2466
  111OSM    H2F11501   1.527   3.737  10.729 -1.3390  0.9380  0.0824
  111OSM    H2G11502   1.442   3.772  10.584 -0.0247  0.6176  0.0938
  111OSM    C3F11503   1.668   3.778  10.550  0.3289 -0.6997  0.4941
  111OSM    H3F11504   1.759   3.718  10.574  0.9752 -0.2079 -0.7041
  111OSM    H3G11505   1.681   3.880  10.592  0.9412  1.3430 -4.3270
  111OSM    C4F11506   1.652   3.787  10.397 -0.0468 -0.1931  0.1527
  111OSM    H4F11507   1.658   3.688  10.348  1.6049  0.6679 -1.4824
  111OSM    H4G11508   1.738   3.844  10.355  0.0090 -0.7553 -0.4901
  111OSM    C5F11509   1.534   3.868  10.343  0.4440  0.1489 -0.1443
  111OSM    H5F11510   1.514   3.954  10.411 -2.5390 -1.5806  1.2487
  111OSM    H5G11511   1.433   3.823  10.341  2.1894 -4.0054 -0.3374
  111OSM    C6F11512   1.555   3.919  10.200  0.2332  0.0701 -0.2805
  111OSM    H6F11513   1.627   4.002  10.185 -1.3728  1.1573 -2.2222
  111OSM    H6G11514   1.464   3.973  10.168 -0.0001 -0.0927  0.1007
  111OSM    C7F11515   1.591   3.805  10.103 -0.9618 -0.3285  0.7688
  111OSM    H7F11516   1.552   3.712  10.148 -1.3526 -0.0629  0.9785
  111OSM    H7G11517   1.701   3.789  10.091 -0.8193 -0.9566  2.8351
  111OSM    C8F11518   1.536   3.841   9.965 -0.2156  0.5582 -0.0972
  111OSM    H8F11519   1.425   3.850   9.960 -0.0837  1.6829 -1.1817
  111OSM    H8G11520   1.571   3.755   9.905 -0.3251 -1.3509  2.4714
  111OSM    C9F11521   1.591   3.956   9.888  0.8542  0.2745  0.1203
  111OSM    H9F11522   1.621   4.045   9.944  0.0954  0.3456  0.4163
  111OSM   C10F11523   1.606   3.968   9.753 -0.8725 -0.3159  0.6589
  111OSM   H10F11524   1.645   4.061   9.709 -1.3403 -0.1641  0.5549
  111OSM   C11F11525   1.577   3.862   9.650  0.5121  0.3285 -0.3368
  111OSM   H11F11526   1.471   3.864   9.616  0.9347  4.0426 -1.6738
  111OSM   H11G11527   1.584   3.763   9.700  1.4572  0.4879 -0.1419
  111OSM   C12F11528   1.672   3.858   9.530  0.2813 -0.6228  0.6546
  111OSM   H12F11529   1.639   3.774   9.466  0.9672  1.8874 -3.1462
  111OSM   H12G11530   1.778   3.838   9.558  0.0848 -3.5832 -0.5905
  111OSM   C13F11531   1.669   3.984   9.444 -0.8722  0.5166  0.0025
  111OSM   H13F11532   1.718   4.064   9.505  0.3512 -0.3359  0.1673
  111OSM   H13G11533   1.565   4.014   9.422 -0.7757 -0.1493 -1.3877
  111OSM   C14F11534   1.734   3.960   9.305 -0.3054  0.3603  0.2738
  111OSM   H14F11535   1.691   3.869   9.256  3.0995  0.5567 -3.3793
  111OSM   H14G11536   1.840   3.929   9.319 -1.5409 -3.9156  0.8573
  111OSM   C15F11537   1.714   4.080   9.214  0.0937 -0.6682 -0.3521
  111OSM   H15F11538   1.817   4.120   9.219 -0.4625  0.7001  0.5673
  111OSM   H15G11539   1.652   4.159   9.262  2.6607  1.6571 -0.7047
  111OSM   C16F11540   1.667   4.061   9.071 -0.1662  0.8790  0.6904
  111OSM   H16F11541   1.568   4.010   9.063  0.7313 -0.8542  0.4087
  111OSM   H16G11542   1.734   3.994   9.012 -1.4785 -1.3505  1.6858
  111OSM   C17F11543   1.654   4.202   9.001  0.1829  0.1324  0.4503
  111OSM   H17F11544   1.749   4.258   9.013  0.9823 -0.6413 -2.0121
  111OSM   H17G11545   1.575   4.269   9.039 -0.1664  0.4537 -0.8368
  111OSM   C18F11546   1.625   4.190   8.854 -0.3127  0.1364  0.3222
  111OSM   H18F11547   1.702   4.125   8.807  1.9623  2.1932  1.0979
  111OSM   H18G11548   1.631   4.288   8.802 -0.8468 -0.8002 -1.5617
  111OSM   H18H11549   1.524   4.146   8.834 -0.3867  0.1413  0.6781
  112OSM      N11550   0.054   1.459  11.114 -0.0906 -0.0335 -0.1124
  112OSM    C1511551   0.082   1.582  11.039 -0.4327 -0.1547  0.2784
  112OSM   H15A11552  -0.007   1.601  10.982  0.3724 -2.2223 -1.7467
  112OSM   H15B11553   0.169   1.565  10.977 -0.3300 -0.6264  0.5475
  112OSM   H15C11554   0.105   1.668  11.100 -0.7240 -0.0702  0.2660
  112OSM    C1411555   0.159   1.441  11.213  0.1558 -0.1793 -0.2836
  112OSM   H14A11556   0.184   1.535  11.260 -1.5757 -0.1105  0.5528
  112OSM   H14B11557   0.251   1.401  11.173 -0.2405 -1.2035 -0.1627
  112OSM   H14C11558   0.128   1.384  11.299 -2.6992 -1.2124 -1.9407
  112OSM    C1311559  -0.083   1.484  11.177  0.8126 -0.4657 -0.1559
  112OSM   H13A11560  -0.155   1.496  11.098  1.5936 -1.7489 -1.0670
  112OSM   H13B11561  -0.084   1.573  11.239 -1.5812  0.7333 -1.8507
  112OSM   H13C11562  -0.121   1.407  11.242 -0.2341 -0.8344 -1.2076
  112OSM    C1211563   0.044   1.343  11.019 -0.1648  0.1636 -0.0430
  112OSM   H12A11564  -0.043   1.369  10.960 -1.6504 -0.0051  2.0134
  112OSM   H12B11565   0.006   1.263  11.080 -0.1161  1.4598  1.7181
  112OSM    C1111566   0.163   1.309  10.926 -0.6382  0.0633 -0.0650
  112OSM   H11A11567   0.138   1.216  10.871  1.5227  0.0756 -1.0881
  112OSM   H11B11568   0.251   1.304  10.994 -1.5865  0.5873  1.2222
  112OSM      P11569   0.299   1.426  10.749  0.0381 -0.2879  0.4038
  112OSM    O1311570   0.284   1.559  10.679  0.6407  0.5650 -0.0207
  112OSM    O1411571   0.411   1.412  10.836  0.3658 -0.1820 -0.5158
  112OSM    O1111572   0.288   1.310  10.642  0.7603  0.1095  0.0034
  112OSM    O1211573   0.163   1.413  10.827 -0.4084  0.2198 -0.4304
  112OSM    C1S11574   0.176   1.316  10.551 -0.4653 -0.5632  0.3836
  112OSM    H1S11575   0.166   1.419  10.509  0.5288  0.4330  2.5375
  112OSM    H1T11576   0.083   1.287  10.604  0.7947 -3.6878  0.9562
  112OSM     NF11577   0.130   1.248  10.316  0.3101  0.4196  0.3391
  112OSM    HNF11578   0.051   1.188  10.304 -0.2090  1.2000 -0.1996
  112OSM    C2S11579   0.214   1.225  10.432 -0.6965 -0.1352  0.4273
  112OSM    H2S11580   0.318   1.250  10.402 -0.5341 -0.2855  0.8597
  112OSM    C3S11581   0.220   1.085  10.480  0.3835  0.1844 -0.2895
  112OSM    H3S11582   0.116   1.054  10.507  0.6913 -0.6652 -0.0703
  112OSM     O311583   0.300   1.058  10.590 -0.2745  0.3684 -0.3207
  112OSM    HO311584   0.306   1.146  10.626 -2.1540  0.0394  0.8391
  112OSM    C4S11585   0.252   0.996  10.371 -0.2826 -0.2846  0.1025
  112OSM    H4S11586   0.159   0.973  10.318 -0.8995 -0.8967  1.4233
  112OSM    C5S11587   0.374   0.944  10.327  0.2856  0.2901  0.4523
  112OSM    H5S11588   0.472   0.974  10.367  0.7874 -0.1960 -0.4122
  112OSM    C6S11589   0.381   0.844  10.217 -0.3930  0.6381 -0.3494
  112OSM    H6S11590   0.309   0.761  10.231 -0.3578  0.4394 -1.3123
  112OSM    H6T11591   0.479   0.792  10.216 -1.1466 -0.8068 -0.4355
  112OSM    C7S11592   0.348   0.904  10.076 -0.6702  0.0393  0.3127
  112OSM    H7S11593   0.421   0.982  10.047  0.1145 -0.4870  0.8504
  112OSM    H7T11594   0.243   0.940  10.082 -0.9200  0.5499 -4.9513
  112OSM    C8S11595   0.345   0.797   9.971  0.8471  0.2148  0.2557
  112OSM    H8S11596   0.277   0.712   9.995 -3.1410  1.5950 -5.0448
  112OSM    H8T11597   0.446   0.756   9.953  0.2115 -2.4809  2.5731
  112OSM    C9S11598   0.298   0.859   9.836 -0.9071 -1.4729 -0.5489
  112OSM    H9S11599   0.349   0.956   9.820 -1.4929 -1.0801 -0.0144
  112OSM    H9T11600   0.187   0.864   9.834 -0.8588 -0.2467 -0.0979
  112OSM   C10S11601   0.333   0.773   9.713 -0.0258  0.7526  0.8868
  112OSM   H10S11602   0.277   0.677   9.727  1.0957 -0.1654 -0.7425
  112OSM   H10T11603   0.443   0.756   9.713 -0.1934 -0.4792 -0.5540
  112OSM   C11S11604   0.274   0.834   9.584 -0.2418  0.0286 -0.2456
  112OSM   H11S11605   0.303   0.941   9.586 -0.4407  0.0841 -0.2695
  112OSM   H11T11606   0.163   0.837   9.583 -0.2166  0.8185 -0.5730
  112OSM   C12S11607   0.344   0.777   9.462 -0.7234 -0.0175  0.0844
  112OSM   H12S11608   0.312   0.672   9.448 -1.8032  0.1597  1.1323
  112OSM   H12T11609   0.454   0.784   9.477 -0.3969 -3.4361 -0.3902
  112OSM   C13S11610   0.329   0.851   9.325  0.5546 -0.3739  0.2851
  112OSM   H13S11611   0.387   0.945   9.320 -0.8758  0.5978  1.6219
  112OSM   H13T11612   0.222   0.879   9.314  1.2652  1.8300 -1.1741
  112OSM   C14S11613   0.368   0.760   9.218 -0.1222 -0.1165  0.2964
  112OSM   H14S11614   0.298   0.674   9.219  1.0622 -1.1004  0.9294
  112OSM   H14T11615   0.472   0.724   9.232 -0.3472 -1.2120 -0.7746
  112OSM   C15S11616   0.350   0.827   9.084  0.1873  0.5582  0.7329
  112OSM   H15S11617   0.413   0.918   9.075  0.5592  0.0137 -3.1469
  112OSM   H15T11618   0.240   0.842   9.074  0.4521  2.3719  0.3946
  112OSM   C16S11619   0.379   0.732   8.963  0.0666  0.4457 -0.0283
  112OSM   H16S11620   0.336   0.631   8.981  0.4870 -0.8390 -5.1726
  112OSM   H16T11621   0.489   0.725   8.947 -0.2202  1.1633 -2.6341
  112OSM   C17S11622   0.307   0.769   8.834  0.5187  0.0712  0.4655
  112OSM   H17S11623   0.339   0.867   8.793 -0.8203 -0.9827 -3.3101
  112OSM   H17T11624   0.197   0.774   8.849  0.0056  2.9866 -3.4565
  112OSM   C18S11625   0.331   0.658   8.733  0.6977  0.1576 -0.5315
  112OSM   H18S11626   0.441   0.649   8.718  0.8125 -2.4162  1.6084
  112OSM   H18T11627   0.288   0.676   8.632 -0.7471 -2.4103 -0.4111
  112OSM   H18U11628   0.291   0.564   8.776  2.9946 -1.1638 -1.2000
  112OSM    C1F11629   0.130   1.364  10.244  0.3198  0.2250 -0.1842
  112OSM     OF11630   0.220   1.452  10.252  0.1204 -0.2541  0.0764
  112OSM    C2F11631   0.009   1.389  10.159 -0.7843  0.2199 -1.4204
  112OSM    H2F11632  -0.079   1.359  10.219 -0.4017 -2.1233 -1.9672
  112OSM    H2G11633   0.023   1.313  10.079  3.5596 -0.6852  0.0264
  112OSM    C3F11634   0.018   1.522  10.087  0.3791  0.3128 -0.2955
  112OSM    H3F11635   0.120   1.547  10.051  1.2346  1.4778  2.7456
  112OSM    H3G11636   0.005   1.609  10.155  1.2254  0.7003 -0.6217
  112OSM    C4F11637  -0.080   1.525   9.969 -0.0526  0.2674  0.0439
  112OSM    H4F11638  -0.182   1.486   9.991  0.1940  0.3272  1.3263
  112OSM    H4G11639  -0.051   1.449   9.893 -3.8341 -4.3528  2.9111
  112OSM    C5F11640  -0.088   1.669   9.908  1.3023  0.2695 -0.0285
  112OSM    H5F11641   0.014   1.712   9.908  2.0058 -1.3385 -2.4548
  112OSM    H5G11642  -0.141   1.718   9.993  0.8078  0.6813 -0.5718
  112OSM    C6F11643  -0.165   1.685   9.777 -0.2156  0.1766  0.3003
  112OSM    H6F11644  -0.170   1.795   9.759 -0.3501  0.2927  1.0640
  112OSM    H6G11645  -0.264   1.643   9.801  0.0890 -2.0231 -2.0805
  112OSM    C7F11646  -0.111   1.603   9.659  0.0543 -0.0103  0.6987
  112OSM    H7F11647  -0.115   1.498   9.698 -2.1307 -0.6342 -1.1358
  112OSM    H7G11648  -0.006   1.622   9.628 -0.7538 -0.0650 -2.1745
  112OSM    C8F11649  -0.193   1.632   9.532 -0.0802 -0.5364 -0.0298
  112OSM    H8F11650  -0.138   1.585   9.448  0.0973 -1.2183  0.4620
  112OSM    H8G11651  -0.177   1.738   9.504  1.2363 -1.4583 -2.9292
  112OSM    C9F11652  -0.343   1.603   9.533  0.0602 -0.3048 -0.5762
  112OSM    H9F11653  -0.410   1.691   9.540  1.2841  0.5999 -0.0242
  112OSM   C10F11654  -0.393   1.473   9.521  0.3839 -0.6430  0.0966
  112OSM   H10F11655  -0.501   1.456   9.517  0.5614 -2.0744  1.0122
  112OSM   C11F11656  -0.315   1.352   9.501  0.2982  0.2680 -0.4391
  112OSM   H11F11657  -0.358   1.275   9.570  2.5094 -0.1147  0.5544
  112OSM   H11G11658  -0.209   1.357   9.531 -0.0959 -1.4632  1.3805
  112OSM   C12F11659  -0.328   1.298   9.355 -0.4892  0.3430  0.0801
  112OSM   H12F11660  -0.266   1.207   9.345 -1.1810 -0.1638  0.3497
  112OSM   H12G11661  -0.283   1.371   9.285 -0.9323  1.6158  1.0955
  112OSM   C13F11662  -0.464   1.253   9.309  0.6129  0.4162  0.2149
  112OSM   H13F11663  -0.522   1.348   9.298  0.1738  0.1901  0.5318
  112OSM   H13G11664  -0.516   1.192   9.387 -0.3233 -0.4586 -1.0723
  112OSM   C14F11665  -0.465   1.180   9.174 -0.1074  0.4898 -0.3892
  112OSM   H14F11666  -0.429   1.077   9.194  2.2859  2.2410  5.2136
  112OSM   H14G11667  -0.406   1.239   9.100 -0.7249  1.2249 -0.2999
  112OSM   C15F11668  -0.613   1.157   9.143 -0.4910 -1.1905  0.7365
  112OSM   H15F11669  -0.668   1.254   9.133  1.5688 -0.2086 -1.7612
  112OSM   H15G11670  -0.662   1.106   9.228 -0.0893  1.4674  2.6501
  112OSM   C16F11671  -0.623   1.094   9.000 -1.0090  0.4171  0.5059
  112OSM   H16F11672  -0.726   1.052   8.992 -1.1961  1.0671 -0.6506
  112OSM   H16G11673  -0.549   1.012   8.985  0.5494  1.7090  1.0002
  112OSM   C17F11674  -0.611   1.199   8.887  0.3087  0.1019 -0.3133
  112OSM   H17F11675  -0.520   1.261   8.901  1.6994 -1.2982 -2.8067
  112OSM   H17G11676  -0.688   1.279   8.897 -2.3915 -2.6365  1.8988
  112OSM   C18F11677  -0.610   1.134   8.748 -0.2573 -0.5521  0.2120
  112OSM   H18F11678  -0.638   1.212   8.674  1.9272 -1.4879 -1.6388
  112OSM   H18G11679  -0.686   1.052   8.746  0.3773 -1.1582  0.9916
  112OSM   H18H11680  -0.513   1.088   8.720 -1.4979 -4.1646  1.5352
  113OSM      N11681   0.354   0.108  11.045  0.0750 -0.4063 -0.3864
  113OSM    C1511682   0.425  -0.017  11.086  0.1034  0.4108  0.7207
  113OSM   H15A11683   0.372  -0.076  11.160 -1.0238 -0.7664 -0.9755
  113OSM   H15B11684   0.526   0.004  11.117  0.8380 -0.7761 -0.7484
  113OSM   H15C11685   0.432  -0.081  10.999 -0.6849 -1.3927  1.9452
  113OSM    C1411686   0.205   0.076  11.032  0.2699  0.2154  0.8167
  113OSM   H14A11687   0.186   0.009  10.950 -0.6093  0.0575  1.1378
  113OSM   H14B11688   0.156   0.167  11.002 -0.2904 -0.1045  0.7469
  113OSM   H14C11689   0.166   0.041  11.127  0.8214  0.0628  0.9905
  113OSM    C1311690   0.356   0.216  11.145  0.8238  0.2953 -1.0477
  113OSM   H13A11691   0.286   0.186  11.221  0.3471 -0.8269 -1.9257
  113OSM   H13B11692   0.344   0.315  11.101 -0.3918  0.9477  0.6967
  113OSM   H13C11693   0.449   0.215  11.198  0.2555 -0.7015 -0.0676
  113OSM    C1211694   0.406   0.161  10.911 -0.1884 -0.2265  1.4685
  113OSM   H12A11695   0.339   0.227  10.857  2.8977  0.5769 -1.5988
  113OSM   H12B11696   0.405   0.079  10.841 -1.9008  0.0956  1.0739
  113OSM    C1111697   0.541   0.233  10.916 -0.6126 -0.2353 -0.2013
  113OSM   H11A11698   0.597   0.219  10.821  0.6472 -1.7403  0.7335
  113OSM   H11B11699   0.603   0.178  10.990 -0.7887  2.0912  1.7199
  113OSM      P11700   0.503   0.494  10.862  0.0248  0.2445 -0.0749
  113OSM    O1311701   0.378   0.558  10.913 -0.8220  0.1849  0.1263
  113OSM    O1411702   0.623   0.579  10.845 -0.0895 -0.0874  0.3347
  113OSM    O1111703   0.470   0.416  10.727 -0.0325  0.4550 -0.2727
  113OSM    O1211704   0.544   0.371  10.955  0.0759 -0.6662 -0.0286
  113OSM    C1S11705   0.567   0.417  10.619  0.1801 -0.2529 -0.0460
  113OSM    H1S11706   0.654   0.356  10.651 -0.0448 -0.5086  0.0844
  113OSM    H1T11707   0.598   0.522  10.599  0.9625 -0.7101 -1.2858
  113OSM     NF11708   0.592   0.354  10.388  0.2574  0.2595 -0.3294
  113OSM    HNF11709   0.581   0.413  10.309  1.2210  1.1766  0.2161
  113OSM    C2S11710   0.495   0.359  10.489  0.7360 -0.7352 -0.2321
  113OSM    H2S11711   0.459   0.255  10.508 -2.2923 -0.0278 -1.7754
  113OSM    C3S11712   0.370   0.445  10.451  0.2143 -0.0104  0.1003
  113OSM    H3S11713   0.413   0.542  10.419  0.8983 -0.7740 -1.3165
  113OSM     O311714   0.274   0.468  10.559  0.4913 -0.0650 -0.2981
  113OSM    HO311715   0.320   0.425  10.631  2.0119  3.0342  0.6545
  113OSM    C4S11716   0.307   0.387  10.327  0.3211 -0.3304  0.6063
  113OSM    H4S11717   0.332   0.450  10.241 -1.6443  0.9384  0.9450
  113OSM    C5S11718   0.242   0.267  10.322 -0.2283  0.0223  0.6159
  113OSM    H5S11719   0.225   0.213  10.416  0.0624  0.2538  0.8011
  113OSM    C6S11720   0.188   0.200  10.199  0.9514 -0.2208  0.0933
  113OSM    H6S11721   0.078   0.211  10.206  1.0615  1.2517 -0.1856
  113OSM    H6T11722   0.202   0.090  10.198  1.8179 -0.1075 -0.6681
  113OSM    C7S11723   0.226   0.263  10.065  0.2422  0.8853 -0.1610
  113OSM    H7S11724   0.180   0.364  10.056  2.8913  2.1039 -0.5709
  113OSM    H7T11725   0.186   0.200   9.982  0.2573  0.4832  0.1384
  113OSM    C8S11726   0.375   0.293  10.033 -0.2027 -0.0590 -0.5745
  113OSM    H8S11727   0.418   0.192  10.051 -1.4960 -0.4571  0.3869
  113OSM    H8T11728   0.418   0.365  10.106  1.6080  2.1762 -3.7563
  113OSM    C9S11729   0.411   0.330   9.887  1.0954 -0.2634  0.2381
  113OSM    H9S11730   0.393   0.439   9.876 -1.8915 -0.5420  1.7275
  113OSM    H9T11731   0.336   0.283   9.820  0.9795  0.4462 -0.1308
  113OSM   C10S11732   0.551   0.285   9.852 -0.0222  0.5909 -0.4829
  113OSM   H10S11733   0.565   0.177   9.876  1.6427  1.0703  0.7655
  113OSM   H10T11734   0.625   0.331   9.920  0.3883  0.3302 -0.7486
  113OSM   C11S11735   0.607   0.321   9.713 -0.2479  0.1077 -0.6209
  113OSM   H11S11736   0.655   0.421   9.719 -0.6950  0.2938 -0.1292
  113OSM   H11T11737   0.521   0.326   9.643 -0.7246  0.1995 -0.0300
  113OSM   C12S11738   0.702   0.212   9.647 -0.6106  0.3393 -0.7780
  113OSM   H12S11739   0.636   0.124   9.630  0.8059 -0.6231 -1.3429
  113OSM   H12T11740   0.786   0.192   9.717 -0.0225  1.3312 -1.1980
  113OSM   C13S11741   0.754   0.265   9.514 -0.0104  0.4350  0.0418
  113OSM   H13S11742   0.801   0.362   9.542 -0.4050  0.2925  1.2242
  113OSM   H13T11743   0.669   0.297   9.448 -0.0058 -0.1182 -0.2375
  113OSM   C14S11744   0.848   0.175   9.447 -0.9095 -0.3580 -0.3599
  113OSM   H14S11745   0.785   0.087   9.420 -2.1447 -0.4835  2.7331
  113OSM   H14T11746   0.921   0.142   9.524 -1.6238 -2.1303 -0.4188
  113OSM   C15S11747   0.929   0.242   9.332  0.5770 -0.0157 -0.3969
  113OSM   H15S11748   0.996   0.310   9.389  1.1626 -2.6563  2.1512
  113OSM   H15T11749   0.860   0.297   9.264 -1.0235 -2.0883 -0.4985
  113OSM   C16S11750   1.010   0.150   9.239 -0.4160  0.0114  0.1187
  113OSM   H16S11751   1.045   0.206   9.149 -0.2532  3.2002  2.0867
  113OSM   H16T11752   0.944   0.069   9.202 -0.3051  0.3577 -0.8499
  113OSM   C17S11753   1.133   0.094   9.316  0.6657 -0.0813 -0.1879
  113OSM   H17S11754   1.091   0.040   9.403  1.4141 -0.8432 -0.2957
  113OSM   H17T11755   1.201   0.178   9.343  0.1415  0.8048 -1.5566
  113OSM   C18S11756   1.218  -0.004   9.233  0.8395  0.2014 -0.1133
  113OSM   H18S11757   1.158  -0.090   9.199  1.5216  0.2260 -1.3911
  113OSM   H18T11758   1.307  -0.042   9.289 -0.8761 -2.5324  0.8546
  113OSM   H18U11759   1.250   0.044   9.138 -0.9199 -0.9492 -1.3077
  113OSM    C1F11760   0.689   0.266  10.385 -0.4697 -0.2798 -0.1986
  113OSM     OF11761   0.682   0.172  10.468  0.1983  0.4014  0.8025
  113OSM    C2F11762   0.783   0.270  10.270 -0.2377  0.0279  0.4878
  113OSM    H2F11763   0.871   0.332  10.299 -0.4722  0.5412  0.1132
  113OSM    H2G11764   0.734   0.325  10.187 -0.2854 -1.0087 -0.1827
  113OSM    C3F11765   0.810   0.126  10.213 -0.0915  0.1425  0.2380
  113OSM    H3F11766   0.717   0.087  10.168 -0.7843  1.5086  0.4452
  113OSM    H3G11767   0.838   0.055  10.294  2.5636  0.6197 -0.2034
  113OSM    C4F11768   0.922   0.128  10.106 -0.2942 -0.2097 -0.5571
  113OSM    H4F11769   0.900   0.212  10.036 -2.5446  0.5146  0.9515
  113OSM    H4G11770   0.920   0.031  10.053 -0.6905 -0.3745 -0.2450
  113OSM    C5F11771   1.063   0.161  10.163  0.4337 -0.8204 -0.6559
  113OSM    H5F11772   1.081   0.091  10.247 -2.3580  0.6337  1.2317
  113OSM    H5G11773   1.057   0.262  10.210  0.5177 -1.7440  1.3617
  113OSM    C6F11774   1.179   0.164  10.058  0.2920 -0.1513  0.7552
  113OSM    H6F11775   1.275   0.167  10.114  1.5514  0.9589 -1.3924
  113OSM    H6G11776   1.174   0.254   9.994  0.3504 -0.5655  0.1666
  113OSM    C7F11777   1.175   0.033   9.972  0.2855 -0.0829  0.7522
  113OSM    H7F11778   1.079   0.029   9.916 -0.6949 -1.6526  2.4509
  113OSM    H7G11779   1.185  -0.052  10.044 -0.1654 -0.8615 -0.0894
  113OSM    C8F11780   1.303   0.014   9.880  0.3686 -0.1722 -0.3272
  113OSM    H8F11781   1.328  -0.094   9.880 -2.0165 -0.7628  0.3022
  113OSM    H8G11782   1.390   0.058   9.933 -0.7266  0.7191  0.7547
  113OSM    C9F11783   1.308   0.074   9.747  0.5774 -0.0606 -0.0357
  113OSM    H9F11784   1.342   0.178   9.740 -0.0792  0.1173 -0.6229
  113OSM   C10F11785   1.273   0.014   9.633  0.4702 -0.6533 -0.3948
  113OSM   H10F11786   1.275   0.066   9.536 -0.1134 -1.6613 -0.9617
  113OSM   C11F11787   1.227  -0.121   9.631  0.2334  0.8945  0.4034
  113OSM   H11F11788   1.154  -0.140   9.550  0.8298  1.4747 -0.2758
  113OSM   H11G11789   1.189  -0.160   9.728 -1.8172  0.8329 -0.4149
  113OSM   C12F11790   1.343  -0.211   9.572 -0.2040  0.2285 -0.1742
  113OSM   H12F11791   1.424  -0.206   9.648  1.4461 -0.7119 -1.8249
  113OSM   H12G11792   1.373  -0.170   9.473 -0.0311  2.9702  0.9641
  113OSM   C13F11793   1.312  -0.359   9.552  0.2343  0.1413  0.4287
  113OSM   H13F11794   1.222  -0.375   9.489  0.0973  0.9097  0.4247
  113OSM   H13G11795   1.295  -0.381   9.660 -0.0463  0.8729  0.5349
  113OSM   C14F11796   1.407  -0.456   9.499 -0.4363  0.2767  0.6162
  113OSM   H14F11797   1.363  -0.558   9.503 -0.2881  0.1525 -0.7327
  113OSM   H14G11798   1.504  -0.456   9.553 -0.3080 -2.5636  0.4619
  113OSM   C15F11799   1.428  -0.443   9.343  0.0401  0.4137 -1.3806
  113OSM   H15F11800   1.472  -0.348   9.306  1.4621  0.2660 -0.1127
  113OSM   H15G11801   1.330  -0.441   9.291 -2.1560 -2.8817  2.3083
  113OSM   C16F11802   1.494  -0.569   9.280  0.0861  0.0943  0.5986
  113OSM   H16F11803   1.415  -0.641   9.308  1.4022 -1.2917  0.8098
  113OSM   H16G11804   1.591  -0.593   9.328  1.2379  1.2956 -1.0498
  113OSM   C17F11805   1.521  -0.564   9.132  0.0317 -0.5452  0.0616
  113OSM   H17F11806   1.559  -0.661   9.093  2.7938  1.1873 -1.7954
  113OSM   H17G11807   1.598  -0.486   9.110  1.5378 -1.6001  1.4897
  113OSM   C18F11808   1.401  -0.509   9.054  0.0970 -0.0500  0.6397
  113OSM   H18F11809   1.429  -0.496   8.947 -0.0143 -0.2462  0.5857
  113OSM   H18G11810   1.378  -0.403   9.079  0.4736 -0.0366  0.9186
  113OSM   H18H11811   1.309  -0.572   9.063  1.2621 -2.0937 -1.1293
  114OSM      N11812   2.022   5.360  11.814  0.5623  0.3271 -0.5848
  114OSM    C1511813   2.118   5.300  11.715 -0.2236  0.5058 -0.0762
  114OSM   H15A11814   2.152   5.201  11.740  1.5273  1.3222  0.7917
  114OSM   H15B11815   2.204   5.366  11.714 -1.4685  2.1716 -0.2095
  114OSM   H15C11816   2.072   5.296  11.617  1.2443 -0.4213 -0.7496
  114OSM    C1411817   1.922   5.253  11.846 -0.0891  0.4858  0.2468
  114OSM   H14A11818   1.840   5.283  11.910  1.1379  0.3098  1.9350
  114OSM   H14B11819   1.973   5.167  11.886  1.7437  0.4898 -2.0208
  114OSM   H14C11820   1.871   5.213  11.760  0.3625  0.0318  0.1934
  114OSM    C1311821   2.095   5.393  11.936  1.0815  0.6171 -0.1353
  114OSM   H13A11822   2.034   5.459  11.995 -0.4840 -0.0905 -0.9272
  114OSM   H13B11823   2.191   5.442  11.926  0.5438  1.4744 -1.2882
  114OSM   H13C11824   2.098   5.295  11.983 -0.6748  0.0333 -1.1759
  114OSM    C1211825   1.948   5.483  11.752  0.2866  0.4069  0.0998
  114OSM   H12A11826   2.019   5.564  11.743 -1.2447  1.9121  1.3458
  114OSM   H12B11827   1.880   5.515  11.830  1.6077  2.8192  0.2858
  114OSM    C1111828   1.859   5.463  11.626 -0.5840 -0.5268  0.7857
  114OSM   H11A11829   1.810   5.561  11.607  1.0642  0.6594  2.4540
  114OSM   H11B11830   1.780   5.398  11.669 -0.2008 -1.5499 -0.0635
  114OSM      P11831   2.006   5.488  11.421 -0.2833 -0.0272  0.2890
  114OSM    O1311832   2.048   5.609  11.493  0.1802 -0.0375 -0.4219
  114OSM    O1411833   2.109   5.412  11.349 -0.3100 -0.1797  0.2430
  114OSM    O1111834   1.910   5.534  11.311 -0.0561  0.5990  0.3500
  114OSM    O1211835   1.920   5.395  11.512  0.3754  0.4176  0.4713
  114OSM    C1S11836   1.915   5.640  11.225  0.3404  0.8002 -1.2821
  114OSM    H1S11837   1.997   5.710  11.250  1.3835 -0.6353 -0.6425
  114OSM    H1T11838   1.821   5.699  11.226 -0.2180 -0.0355 -2.4558
  114OSM     NF11839   1.982   5.699  10.980  0.4389  0.9415 -0.3673
  114OSM    HNF11840   1.921   5.734  10.909  1.0290  0.2795 -1.2067
  114OSM    C2S11841   1.932   5.591  11.073  0.2249 -0.2979 -0.2485
  114OSM    H2S11842   2.011   5.513  11.075 -0.3743 -0.9180 -0.3728
  114OSM    C3S11843   1.801   5.511  11.034 -0.5593 -0.5224 -0.2557
  114OSM    H3S11844   1.711   5.577  11.043  0.7445  0.9012  2.9109
  114OSM     O311845   1.756   5.408  11.124 -0.7010 -0.3590  0.3817
  114OSM    HO311846   1.797   5.438  11.206 -0.4326 -0.0018  0.1153
  114OSM    C4S11847   1.822   5.474  10.889 -0.4613 -0.1230  0.0457
  114OSM    H4S11848   1.790   5.545  10.812 -1.8223 -3.4797 -2.6281
  114OSM    C5S11849   1.880   5.360  10.850  0.0756 -0.0295 -0.7027
  114OSM    H5S11850   1.914   5.293  10.930  0.0173  1.4371  0.5715
  114OSM    C6S11851   1.919   5.313  10.714  0.7053 -1.0544  0.0936
  114OSM    H6S11852   1.832   5.249  10.687  0.9031 -1.4855  0.4804
  114OSM    H6T11853   2.012   5.251  10.716  0.2122 -1.7907  0.4025
  114OSM    C7S11854   1.936   5.420  10.605  0.1787 -0.0916 -1.3365
  114OSM    H7S11855   2.034   5.472  10.610 -0.1219  0.3265  1.0007
  114OSM    H7T11856   1.858   5.499  10.616 -0.7906 -1.2055  0.1167
  114OSM    C8S11857   1.930   5.366  10.460 -0.8045  0.1436  0.2329
  114OSM    H8S11858   1.839   5.311  10.429 -0.5935 -2.0293  3.3053
  114OSM    H8T11859   2.003   5.282  10.458 -1.9632 -0.8588 -0.5438
  114OSM    C9S11860   1.958   5.474  10.357  0.2050 -0.1552  0.4687
  114OSM    H9S11861   2.056   5.516  10.387 -0.1703  1.4677 -0.4841
  114OSM    H9T11862   1.879   5.553  10.362 -1.0145 -1.2671 -0.8909
  114OSM   C10S11863   1.947   5.425  10.203 -0.0671  0.4233 -0.5230
  114OSM   H10S11864   1.948   5.519  10.145 -1.0698  0.0250 -1.1905
  114OSM   H10T11865   1.857   5.360  10.199 -0.5362  1.1364 -1.9619
  114OSM   C11S11866   2.073   5.338  10.157 -0.0424 -0.4677  0.5929
  114OSM   H11S11867   2.065   5.241  10.211  0.9461  0.5384  2.6265
  114OSM   H11T11868   2.171   5.387  10.179 -1.1439  0.8836  2.6968
  114OSM   C12S11869   2.074   5.328   9.999 -0.2380  0.7409  0.1361
  114OSM   H12S11870   2.096   5.426   9.953 -2.9109  1.6315  0.6663
  114OSM   H12T11871   1.971   5.306   9.962 -0.2842 -0.7048  1.0456
  114OSM   C13S11872   2.174   5.226   9.941  0.2994  0.6939 -0.0715
  114OSM   H13S11873   2.163   5.122   9.978  3.8410  1.0133  2.1455
  114OSM   H13T11874   2.277   5.254   9.974 -0.3393  3.3913 -0.2749
  114OSM   C14S11875   2.162   5.215   9.785 -0.2872 -0.3289 -0.0718
  114OSM   H14S11876   2.178   5.318   9.747  2.1318 -0.1334  1.3836
  114OSM   H14T11877   2.071   5.166   9.745 -0.3839  0.0779 -0.3605
  114OSM   C15S11878   2.278   5.135   9.726  0.1038 -0.2852 -0.0362
  114OSM   H15S11879   2.254   5.027   9.738  1.5964 -0.8195 -1.6180
  114OSM   H15T11880   2.375   5.157   9.777  0.5148  0.7030 -1.2188
  114OSM   C16S11881   2.292   5.148   9.571  0.3406 -0.3772 -0.7840
  114OSM   H16S11882   2.295   5.257   9.548  0.9143  0.3080  2.3061
  114OSM   H16T11883   2.192   5.120   9.533  0.2796  0.9033 -1.6224
  114OSM   C17S11884   2.403   5.070   9.502 -0.1505  0.0709 -0.0248
  114OSM   H17S11885   2.395   5.092   9.393 -1.1560 -1.4110 -0.2589
  114OSM   H17T11886   2.383   4.964   9.526  1.4004 -0.2186  0.0826
  114OSM   C18S11887   2.544   5.110   9.549  0.0724  0.5514  0.0619
  114OSM   H18S11888   2.553   5.071   9.653 -0.4963  0.3708  0.0442
  114OSM   H18T11889   2.562   5.220   9.553 -3.4871  1.1991  0.4221
  114OSM   H18U11890   2.606   5.043   9.486 -2.4918  0.0754 -2.0399
  114OSM    C1F11891   2.099   5.757  10.998 -0.0123  0.1969  0.4017
  114OSM     OF11892   2.178   5.711  11.082 -0.4165 -0.2343  0.6527
  114OSM    C2F11893   2.136   5.881  10.918  0.3695 -0.1821 -0.8542
  114OSM    H2F11894   2.190   5.953  10.982 -3.2505  1.7620  0.1957
  114OSM    H2G11895   2.043   5.930  10.881  1.1319  0.8148 -1.4774
  114OSM    C3F11896   2.234   5.842  10.803  0.1834 -0.0834 -0.1274
  114OSM    H3F11897   2.182   5.766  10.741  0.1286 -1.9063  2.0939
  114OSM    H3G11898   2.329   5.799  10.843 -0.8952 -1.3909  1.0521
  114OSM    C4F11899   2.269   5.964  10.712 -0.0589 -0.3492  0.2374
  114OSM    H4F11900   2.342   6.021  10.774  0.9096  2.7844 -3.6385
  114OSM    H4G11901   2.176   6.016  10.679  0.0767 -0.8946 -1.0133
  114OSM    C5F11902   2.349   5.915  10.587 -0.4074 -0.3719 -1.1086
  114OSM    H5F11903   2.439   5.862  10.625  0.5961  1.8295 -0.3861
  114OSM    H5G11904   2.386   6.010  10.543  1.0615 -0.4792 -0.1402
  114OSM    C6F11905   2.280   5.812  10.499  0.3268  0.2974 -0.0094
  114OSM    H6F11906   2.171   5.829  10.487 -0.1180 -2.2069  0.2598
  114OSM    H6G11907   2.278   5.709  10.540 -1.9677 -0.2694 -1.4853
  114OSM    C7F11908   2.343   5.792  10.363 -0.1536  0.6127 -0.2801
  114OSM    H7F11909   2.433   5.729  10.378 -1.9929 -1.6007  1.7054
  114OSM    H7G11910   2.383   5.891  10.330  0.5853  0.1008 -0.9259
  114OSM    C8F11911   2.256   5.728  10.256 -0.3015  0.8505  0.3119
  114OSM    H8F11912   2.170   5.797  10.246  0.2674  1.3871 -0.9373
  114OSM    H8G11913   2.221   5.628  10.291 -0.5889 -0.2401 -2.9211
  114OSM    C9F11914   2.309   5.703  10.119 -0.2305 -0.1612  0.1554
  114OSM    H9F11915   2.366   5.608  10.113 -0.1015  0.0705 -2.9385
  114OSM   C10F11916   2.280   5.767  10.003  0.4884  0.2664 -0.0429
  114OSM   H10F11917   2.326   5.726   9.913 -2.7394 -1.9185 -0.7605
  114OSM   C11F11918   2.188   5.886   9.981  1.0147 -0.4115 -0.2101
  114OSM   H11F11919   2.217   5.980  10.031  0.6318  0.7518 -2.1320
  114OSM   H11G11920   2.090   5.875  10.034 -0.3098 -0.8834 -2.6797
  114OSM   C12F11921   2.167   5.930   9.841 -0.4240  0.0399 -0.4419
  114OSM   H12F11922   2.081   6.000   9.849 -1.0094 -0.5203 -1.7771
  114OSM   H12G11923   2.134   5.843   9.781 -1.0720  0.0162 -0.0655
  114OSM   C13F11924   2.290   5.987   9.766  0.0039  0.0227 -0.0414
  114OSM   H13F11925   2.388   5.937   9.783  1.3904  3.0513  1.4014
  114OSM   H13G11926   2.298   6.091   9.806  0.1904 -0.4993  1.2805
  114OSM   C14F11927   2.280   5.995   9.608 -0.0753  0.6536 -0.3895
  114OSM   H14F11928   2.181   6.041   9.583 -1.6760 -2.9437 -0.9819
  114OSM   H14G11929   2.275   5.893   9.565 -0.4989 -0.1571  1.5321
  114OSM   C15F11930   2.387   6.079   9.551  0.1606 -0.3232  0.2423
  114OSM   H15F11931   2.487   6.042   9.581  0.4136  0.0347 -0.1541
  114OSM   H15G11932   2.378   6.186   9.582 -1.6731  0.3994 -2.5589
  114OSM   C16F11933   2.401   6.080   9.403 -0.2560 -0.0943 -0.2631
  114OSM   H16F11934   2.387   5.986   9.346 -2.5137 -1.3816  2.2826
  114OSM   H16G11935   2.495   6.129   9.369 -0.2456  0.9351  1.2169
  114OSM   C17F11936   2.300   6.170   9.329 -0.1817  0.5932  0.4603
  114OSM   H17F11937   2.278   6.264   9.383  2.5902  1.6572 -0.1225
  114OSM   H17G11938   2.207   6.113   9.312  0.1259  0.4972 -1.0346
  114OSM   C18F11939   2.351   6.211   9.186  0.2346 -0.8160 -0.7444
  114OSM   H18F11940   2.437   6.281   9.198  0.2907 -0.5580 -2.5345
  114OSM   H18G11941   2.269   6.273   9.144  0.4318  0.7124  1.0379
  114OSM   H18H11942   2.369   6.126   9.117  1.4990 -0.5658 -0.7420
  115OSM      N11943   3.362   2.219   6.026 -0.3451  0.0022  0.3137
  115OSM    C1511944   3.351   2.203   5.878 -0.1914 -0.2022 -0.2144
  115OSM   H15A11945   3.331   2.102   5.844  0.5026 -0.8049  1.1023
  115OSM   H15B11946   3.436   2.249   5.830  0.0315 -0.6632 -0.2648
  115OSM   H15C11947   3.272   2.269   5.848  0.0866  2.2147  4.0267
  115OSM    C1411948   3.243   2.169   6.092 -0.8124 -0.6284 -0.4680
  115OSM   H14A11949   3.147   2.198   6.052 -0.0924  0.6472 -1.3054
  115OSM   H14B11950   3.246   2.197   6.197  1.8314 -0.3668 -0.5867
  115OSM   H14C11951   3.244   2.061   6.094  0.4938 -0.6106 -0.1909
  115OSM    C1311952   3.484   2.127   6.081 -0.1563 -0.0909  1.1459
  115OSM   H13A11953   3.467   2.022   6.061 -0.3346  0.4201 -1.5524
  115OSM   H13B11954   3.479   2.146   6.187  0.4605 -0.1274  1.1813
  115OSM   H13C11955   3.584   2.148   6.046 -0.6035  0.2178  0.0479
  115OSM    C1211956   3.394   2.357   6.067 -0.4760 -0.5637  0.2837
  115OSM   H12A11957   3.327   2.426   6.019  0.1211  0.1409  0.4440
  115OSM   H12B11958   3.493   2.370   6.024 -0.8904  0.1601 -0.4571
  115OSM    C1111959   3.400   2.396   6.218 -0.2208 -0.0663  0.5831
  115OSM   H11A11960   3.309   2.353   6.265 -0.3129  1.0426  1.4428
  115OSM   H11B11961   3.382   2.505   6.231  1.6381  0.3580 -0.2039
  115OSM      P11962   3.662   2.412   6.235 -0.3565  0.4776 -0.2428
  115OSM    O1311963   3.727   2.317   6.148  0.0388  0.2922  0.7247
  115OSM    O1411964   3.632   2.543   6.178  0.1781 -0.0639  0.6429
  115OSM    O1111965   3.742   2.422   6.372  0.0742 -0.1008 -0.0251
  115OSM    O1211966   3.521   2.349   6.278 -0.4087 -0.7117 -0.6169
  115OSM    C1S11967   3.672   2.499   6.473 -0.5619 -0.1819 -0.5269
  115OSM    H1S11968   3.563   2.475   6.474 -0.4064 -1.0801  2.7205
  115OSM    H1T11969   3.694   2.608   6.471 -0.9803 -0.1183 -3.5155
  115OSM     NF11970   3.654   2.535   6.725  0.5272 -0.4156 -0.3446
  115OSM    HNF11971   3.710   2.608   6.764 -1.3858  0.2590  1.2018
  115OSM    C2S11972   3.719   2.458   6.619 -0.1439  0.1620  0.2804
  115OSM    H2S11973   3.712   2.349   6.641  0.1784  0.0186 -0.3258
  115OSM    C3S11974   3.870   2.482   6.634 -0.5581 -0.4372  0.2371
  115OSM    H3S11975   3.888   2.589   6.609 -0.4672  0.0698  2.4102
  115OSM     O311976   3.953   2.416   6.534 -0.2600  0.0575  0.1146
  115OSM    HO311977   3.895   2.374   6.470 -0.5026 -0.1860  0.4917
  115OSM    C4S11978   3.929   2.446   6.769  0.5065 -0.6753  0.1631
  115OSM    H4S11979   3.933   2.339   6.795 -0.1244 -0.5072  0.9774
  115OSM    C5S11980   3.961   2.536   6.869  0.4984  0.5956  0.2059
  115OSM    H5S11981   3.946   2.645   6.866 -1.7278  0.2949 -0.9894
  115OSM    C6S11982   4.016   2.477   7.001  0.6046 -0.1149 -0.0523
  115OSM    H6S11983   4.105   2.537   7.031 -0.5564  1.5467  0.1532
  115OSM    H6T11984   4.062   2.377   6.988 -1.1027 -0.8945 -0.1764
  115OSM    C7S11985   3.908   2.474   7.116 -0.1632  0.8874  0.6410
  115OSM    H7S11986   3.816   2.425   7.076 -0.5497  2.4360 -0.4189
  115OSM    H7T11987   3.868   2.575   7.140  3.2113  1.8300  2.5311
  115OSM    C8S11988   3.965   2.421   7.250  1.0433  0.5184  0.2364
  115OSM    H8S11989   4.024   2.330   7.228  2.1467  1.3644 -0.3719
  115OSM    H8T11990   3.872   2.395   7.305 -1.0919  0.4964 -3.1869
  115OSM    C9S11991   4.050   2.517   7.337 -0.4012  0.3655 -0.0360
  115OSM    H9S11992   3.988   2.605   7.362 -1.0480 -0.0147 -0.2786
  115OSM    H9T11993   4.140   2.549   7.280  3.3954 -2.5055  4.0200
  115OSM   C10S11994   4.093   2.452   7.467 -0.1525 -0.0743 -0.3420
  115OSM   H10S11995   4.176   2.509   7.513  0.0775  0.1153 -0.9861
  115OSM   H10T11996   4.133   2.348   7.462  1.4383  0.3851  1.9219
  115OSM   C11S11997   3.979   2.447   7.560 -0.3464 -0.4028 -0.5856
  115OSM   H11S11998   3.897   2.387   7.515 -1.3853  0.3883  0.2322
  115OSM   H11T11999   3.948   2.551   7.584  0.4450  0.0512 -1.4625
  115OSM   C12S12000   4.032   2.386   7.692 -0.1280 -0.8096  0.1227
  115OSM   H12S12001   4.084   2.466   7.747 -0.3855  0.4900 -1.4734
  115OSM   H12T12002   4.100   2.300   7.674  2.4512  1.0416  0.7229
  115OSM   C13S12003   3.924   2.344   7.783 -0.4263  0.4320  0.5450
  115OSM   H13S12004   3.866   2.261   7.738  1.6301 -0.5280 -0.4087
  115OSM   H13T12005   3.852   2.429   7.787  0.6980  1.3480  1.6624
  115OSM   C14S12006   3.977   2.293   7.925  0.4122  0.2405  0.0219
  115OSM   H14S12007   4.008   2.378   7.989 -1.3677  0.2997  0.8425
  115OSM   H14T12008   4.076   2.248   7.904  0.9808  2.0630 -1.2771
  115OSM   C15S12009   3.894   2.189   7.997  0.4057 -0.1357 -0.4962
  115OSM   H15S12010   3.885   2.094   7.939  2.2549 -0.3804 -0.4122
  115OSM   H15T12011   3.791   2.229   8.001  0.8261  0.8968  0.0225
  115OSM   C16S12012   3.938   2.157   8.138  0.3805  0.5355  0.1220
  115OSM   H16S12013   3.854   2.107   8.189  0.0100  2.7685  1.7907
  115OSM   H16T12014   3.973   2.250   8.188  2.2362 -0.6360  1.0465
  115OSM   C17S12015   4.056   2.055   8.144 -0.7827 -0.2723 -0.4354
  115OSM   H17S12016   4.138   2.104   8.089  0.4044 -1.9919 -0.2327
  115OSM   H17T12017   4.022   1.962   8.095  2.3083 -0.6649 -1.9337
  115OSM   C18S12018   4.121   2.035   8.284 -0.1321  0.0531 -1.0293
  115OSM   H18S12019   4.044   2.017   8.362  0.1730 -1.6079 -1.1044
  115OSM   H18T12020   4.174   2.127   8.318  0.0043 -0.8204  1.2347
  115OSM   H18U12021   4.186   1.945   8.279 -1.3207 -0.9262  0.4025
  115OSM    C1F12022   3.521   2.516   6.749 -0.3968  0.4730  0.2226
  115OSM     OF12023   3.454   2.441   6.682  0.3129  0.1042 -0.8810
  115OSM    C2F12024   3.462   2.596   6.858  0.0269 -0.3334 -0.5059
  115OSM    H2F12025   3.354   2.574   6.863  0.1067 -0.8007 -0.8479
  115OSM    H2G12026   3.482   2.705   6.846  2.5834 -0.4761  1.8548
  115OSM    C3F12027   3.509   2.552   7.003  0.3173 -0.0154 -0.0592
  115OSM    H3F12028   3.619   2.552   7.018  0.2656  1.5272  0.4683
  115OSM    H3G12029   3.481   2.445   7.013 -0.3794  0.2014  0.3924
  115OSM    C4F12030   3.450   2.634   7.124 -0.3357  0.0794  0.0445
  115OSM    H4F12031   3.346   2.665   7.101  0.9952  3.3746 -1.9983
  115OSM    H4G12032   3.505   2.731   7.130  0.5528 -0.1734 -3.2444
  115OSM    C5F12033   3.453   2.557   7.253 -1.0804 -0.0953  0.1230
  115OSM    H5F12034   3.400   2.460   7.247 -0.7760 -0.2866  0.4496
  115OSM    H5G12035   3.402   2.628   7.322  1.4708  1.6566  0.2996
  115OSM    C6F12036   3.593   2.541   7.312 -0.2723  0.7540  0.4084
  115OSM    H6F12037   3.642   2.641   7.309  0.5263  0.3422 -0.4009
  115OSM    H6G12038   3.646   2.462   7.255 -0.6221  0.2827  0.7354
  115OSM    C7F12039   3.578   2.486   7.454 -0.1121 -0.0955  0.7734
  115OSM    H7F12040   3.674   2.442   7.488 -0.7329 -0.1222  2.5416
  115OSM    H7G12041   3.521   2.391   7.442 -0.1737 -0.1629  1.5426
  115OSM    C8F12042   3.526   2.584   7.562  0.9849  0.7614 -0.3306
  115OSM    H8F12043   3.498   2.525   7.653 -1.5252  0.6883 -1.1287
  115OSM    H8G12044   3.430   2.628   7.528 -0.1015  0.0064  1.6489
  115OSM    C9F12045   3.608   2.704   7.597 -0.8134 -0.1464  0.5125
  115OSM    H9F12046   3.643   2.775   7.520  1.4061  0.2023  1.7888
  115OSM   C10F12047   3.642   2.745   7.722  0.2010 -0.0525  0.6139
  115OSM   H10F12048   3.700   2.838   7.726 -0.8630  0.7366 -1.4954
  115OSM   C11F12049   3.614   2.673   7.856  0.1646 -0.3675 -1.1589
  115OSM   H11F12050   3.707   2.637   7.906 -1.3117  1.1711  2.9157
  115OSM   H11G12051   3.552   2.581   7.844  1.3384 -1.2522 -0.6273
  115OSM   C12F12052   3.548   2.780   7.939 -0.2676 -0.2148 -0.3681
  115OSM   H12F12053   3.525   2.732   8.036  1.9955 -0.5228  0.0338
  115OSM   H12G12054   3.461   2.824   7.886 -0.7066 -1.0531 -0.3547
  115OSM   C13F12055   3.627   2.904   7.974 -0.1777 -0.6084 -1.1049
  115OSM   H13F12056   3.630   2.972   7.886  1.6376  1.1736  0.2761
  115OSM   H13G12057   3.726   2.860   7.997 -0.7807 -1.9393 -1.0019
  115OSM   C14F12058   3.558   2.994   8.081 -0.1110  0.6484 -0.0282
  115OSM   H14F12059   3.453   3.011   8.049 -0.7063 -1.0233  0.9668
  115OSM   H14G12060   3.605   3.094   8.090  0.6913  0.3978 -1.4456
  115OSM   C15F12061   3.539   2.931   8.216  0.4945  0.6291 -0.5025
  115OSM   H15F12062   3.636   2.881   8.236  0.0986 -0.2851 -0.8443
  115OSM   H15G12063   3.467   2.847   8.203  0.2147  0.8343 -0.3068
  115OSM   C16F12064   3.511   3.030   8.327 -0.1794 -0.2020  0.6888
  115OSM   H16F12065   3.420   3.091   8.306  1.1858  0.9388 -2.3393
  115OSM   H16G12066   3.594   3.104   8.324  0.4588 -0.9435 -2.3277
  115OSM   C17F12067   3.505   2.976   8.469 -0.1821  0.1058 -0.4092
  115OSM   H17F12068   3.475   3.055   8.541  0.1207  0.7881 -1.0242
  115OSM   H17G12069   3.609   2.944   8.490 -1.0706 -0.9813  2.6536
  115OSM   C18F12070   3.416   2.850   8.474 -0.4772 -0.1792 -0.1012
  115OSM   H18F12071   3.462   2.768   8.416 -0.2356 -0.2847  0.2388
  115OSM   H18G12072   3.312   2.865   8.437 -1.1896 -0.4647  1.7317
  115OSM   H18H12073   3.409   2.813   8.578  3.4689 -0.7589  0.0393
  116OSM      N12074   2.256   0.263   5.955 -0.0415 -0.6099  0.3536
  116OSM    C1512075   2.372   0.223   6.042  0.3701  0.4726 -0.2963
  116OSM   H15A12076   2.437   0.153   5.991  0.4277  0.9241 -0.8488
  116OSM   H15B12077   2.329   0.173   6.127 -2.1636 -0.4108 -2.0306
  116OSM   H15C12078   2.423   0.311   6.078 -0.5828  2.2468 -3.0909
  116OSM    C1412079   2.303   0.347   5.840  0.0031  0.0435  0.3451
  116OSM   H14A12080   2.384   0.414   5.865  0.6387 -0.9021  0.8463
  116OSM   H14B12081   2.224   0.405   5.793 -1.2756 -1.5149  0.5177
  116OSM   H14C12082   2.350   0.282   5.768  2.2518  1.0013  0.9079
  116OSM    C1312083   2.184   0.139   5.914  0.2584 -0.7563  0.5552
  116OSM   H13A12084   2.123   0.102   5.995  2.0425 -2.9864  0.9025
  116OSM   H13B12085   2.253   0.062   5.884  0.7625  1.1306 -3.4335
  116OSM   H13C12086   2.111   0.159   5.836  2.0932  2.4843 -0.4204
  116OSM    C1212087   2.162   0.347   6.039 -0.0093 -0.1202  0.1865
  116OSM   H12A12088   2.086   0.379   5.969  1.4897 -0.3115 -1.5666
  116OSM   H12B12089   2.211   0.439   6.065  1.3817 -0.8761  0.2620
  116OSM    C1112090   2.104   0.288   6.178 -0.0700 -0.3575  0.4509
  116OSM   H11A12091   2.062   0.370   6.240  1.8782  0.6703  0.4483
  116OSM   H11B12092   2.189   0.247   6.236  1.4871  0.8811 -0.8745
  116OSM      P12093   1.999   0.061   6.234  0.4768  0.2525 -0.5142
  116OSM    O1312094   1.859   0.018   6.249 -0.0802 -0.0823 -0.0749
  116OSM    O1412095   2.083  -0.043   6.168 -0.6491 -0.5284  0.3677
  116OSM    O1112096   2.057   0.097   6.372 -0.5906  0.4265  0.2120
  116OSM    O1212097   2.009   0.189   6.154 -0.4996 -0.1737 -0.4966
  116OSM    C1S12098   2.059  -0.017   6.463 -0.5931 -0.4029 -0.1979
  116OSM    H1S12099   2.127  -0.098   6.427  0.7631  2.1758 -3.7155
  116OSM    H1T12100   1.955  -0.055   6.475 -0.4079 -0.7689  0.2816
  116OSM     NF12101   2.173  -0.083   6.678 -0.3347 -0.2693  0.1223
  116OSM    HNF12102   2.122  -0.123   6.754 -2.2521 -2.2312 -2.0937
  116OSM    C2S12103   2.111   0.028   6.603 -0.1697 -0.2952 -0.2493
  116OSM    H2S12104   2.189   0.105   6.580  2.1599 -2.7314 -0.7095
  116OSM    C3S12105   2.002   0.107   6.683 -0.1682  0.3564 -0.1605
  116OSM    H3S12106   1.916   0.043   6.712 -0.4567  0.5580 -0.5715
  116OSM     O312107   1.953   0.210   6.598  0.0565 -0.1753 -0.3226
  116OSM    HO312108   2.007   0.191   6.521 -0.5397  0.5644 -0.9343
  116OSM    C4S12109   2.070   0.159   6.808  0.2406 -0.6079  0.1312
  116OSM    H4S12110   2.016   0.146   6.903 -2.3947 -0.8290 -1.3523
  116OSM    C5S12111   2.177   0.249   6.807  0.1514  0.6358 -0.7292
  116OSM    H5S12112   2.212   0.296   6.714 -0.6125  1.5435 -0.5719
  116OSM    C6S12113   2.240   0.306   6.938  0.0057  0.2215 -0.0123
  116OSM    H6S12114   2.257   0.414   6.920 -2.7419  0.5478 -0.7293
  116OSM    H6T12115   2.339   0.254   6.941 -0.1110  0.0784  1.3243
  116OSM    C7S12116   2.159   0.281   7.070 -0.2787 -0.9626 -0.1282
  116OSM    H7S12117   2.108   0.183   7.071 -0.0423 -1.1073 -1.3392
  116OSM    H7T12118   2.082   0.361   7.066 -0.4991 -1.2497 -2.2581
  116OSM    C8S12119   2.236   0.297   7.197  0.5022  0.2265  0.4588
  116OSM    H8S12120   2.287   0.395   7.187  0.4491  0.0976 -1.1177
  116OSM    H8T12121   2.321   0.226   7.200 -0.3254 -0.7369  1.9694
  116OSM    C9S12122   2.145   0.289   7.320 -0.1647 -0.1580  0.1939
  116OSM    H9S12123   2.100   0.187   7.316  1.2063 -0.7244 -2.2734
  116OSM    H9T12124   2.065   0.365   7.320  1.0360  1.1204  0.9393
  116OSM   C10S12125   2.239   0.306   7.438  0.3961 -0.2022  0.5971
  116OSM   H10S12126   2.297   0.401   7.442 -1.1459  0.7782  0.2870
  116OSM   H10T12127   2.321   0.234   7.419 -1.8153 -2.0659 -2.2133
  116OSM   C11S12128   2.168   0.284   7.563  0.0324 -0.5628 -0.7949
  116OSM   H11S12129   2.118   0.186   7.579 -0.7364 -0.1093 -0.3818
  116OSM   H11T12130   2.091   0.362   7.575  1.7315  0.9580  0.4623
  116OSM   C12S12131   2.265   0.316   7.682  0.5265 -0.1095 -0.4051
  116OSM   H12S12132   2.292   0.423   7.674  0.9420 -0.1326  0.6845
  116OSM   H12T12133   2.355   0.252   7.676  1.0915  0.7613 -1.5349
  116OSM   C13S12134   2.195   0.291   7.817 -0.6827  0.6636  0.6312
  116OSM   H13S12135   2.161   0.185   7.812 -1.7399  0.9834  1.0783
  116OSM   H13T12136   2.104   0.354   7.811 -1.8273 -0.9634  0.6635
  116OSM   C14S12137   2.280   0.330   7.937  0.4536 -0.1079 -0.8454
  116OSM   H14S12138   2.310   0.433   7.909  0.0406  0.0448 -0.7320
  116OSM   H14T12139   2.375   0.272   7.936  0.9143  0.6396 -1.3332
  116OSM   C15S12140   2.201   0.310   8.074  0.0437  0.3845 -0.3412
  116OSM   H15S12141   2.144   0.217   8.093  1.2239 -0.6435 -1.7466
  116OSM   H15T12142   2.118   0.382   8.062  0.4662  0.9640  0.1604
  116OSM   C16S12143   2.281   0.341   8.201 -0.0742 -0.4367  0.1667
  116OSM   H16S12144   2.347   0.254   8.223  0.2605 -0.9969 -2.9119
  116OSM   H16T12145   2.206   0.346   8.283 -0.2064 -2.3026  0.1883
  116OSM   C17S12146   2.362   0.471   8.202  0.1904 -0.2181 -0.5255
  116OSM   H17S12147   2.302   0.554   8.159  1.7766  1.4268  0.3728
  116OSM   H17T12148   2.452   0.459   8.137 -1.4484  0.5983 -3.0300
  116OSM   C18S12149   2.404   0.499   8.344  0.8594 -0.4483  0.5404
  116OSM   H18S12150   2.478   0.423   8.377  1.1376  0.1768  1.3870
  116OSM   H18T12151   2.312   0.505   8.406 -1.9978  0.3130 -3.5934
  116OSM   H18U12152   2.463   0.592   8.359 -1.3122  0.9388  0.7468
  116OSM    C1F12153   2.274  -0.157   6.639 -0.3475  0.5303  0.2881
  116OSM     OF12154   2.354  -0.118   6.555 -0.3232 -0.1677  0.5181
  116OSM    C2F12155   2.300  -0.282   6.721 -0.0189  0.2103 -0.1376
  116OSM    H2F12156   2.256  -0.362   6.657 -0.1238  0.1861 -0.0360
  116OSM    H2G12157   2.252  -0.274   6.821  0.3099 -0.4323  0.0734
  116OSM    C3F12158   2.445  -0.325   6.735  0.7994 -0.5127  0.2692
  116OSM    H3F12159   2.484  -0.328   6.630 -0.4461  1.3015 -0.2689
  116OSM    H3G12160   2.459  -0.428   6.774  2.6194  0.0606  1.1971
  116OSM    C4F12161   2.527  -0.239   6.830 -0.3246  0.4104  0.1220
  116OSM    H4F12162   2.467  -0.213   6.920 -2.7267  0.4389 -1.4458
  116OSM    H4G12163   2.549  -0.146   6.773 -1.9954  0.4980 -0.4029
  116OSM    C5F12164   2.657  -0.307   6.860  0.3240  0.3698  1.0273
  116OSM    H5F12165   2.715  -0.340   6.771 -1.7717  0.1349 -0.2829
  116OSM    H5G12166   2.633  -0.393   6.925  0.2784 -0.0609  0.4508
  116OSM    C6F12167   2.744  -0.207   6.949  0.1493 -0.6819  0.3867
  116OSM    H6F12168   2.677  -0.160   7.024 -0.7530  1.4973 -1.7030
  116OSM    H6G12169   2.769  -0.129   6.874  1.9053 -2.1924 -0.6483
  116OSM    C7F12170   2.868  -0.264   7.011 -0.6590  0.4696 -0.5859
  116OSM    H7F12171   2.939  -0.295   6.931  1.4330 -0.0780  1.4287
  116OSM    H7G12172   2.837  -0.348   7.076  0.7567 -0.6269 -1.3064
  116OSM    C8F12173   2.938  -0.158   7.107 -0.2446 -0.2743 -0.4273
  116OSM    H8F12174   2.869  -0.127   7.189 -1.5950 -0.9599 -1.2855
  116OSM    H8G12175   2.945  -0.070   7.040 -3.0723  1.6793  1.7146
  116OSM    C9F12176   3.080  -0.199   7.150  0.2895 -0.4648  0.1275
  116OSM    H9F12177   3.156  -0.221   7.074 -1.3148 -1.6036 -1.2015
  116OSM   C10F12178   3.119  -0.209   7.274 -0.7621 -0.0208 -0.3299
  116OSM   H10F12179   3.224  -0.240   7.290 -0.6199 -0.3200 -1.7555
  116OSM   C11F12180   3.030  -0.180   7.390  0.6933  0.5196 -0.8465
  116OSM   H11F12181   2.923  -0.178   7.360  0.5289 -0.2515 -0.3167
  116OSM   H11G12182   3.050  -0.076   7.424 -0.0821  1.3006 -2.6774
  116OSM   C12F12183   3.050  -0.265   7.520 -0.2052 -0.0411 -1.1610
  116OSM   H12F12184   3.086  -0.364   7.486  1.5337 -0.4733  1.7780
  116OSM   H12G12185   2.955  -0.280   7.576  0.5607  2.4366  0.8890
  116OSM   C13F12186   3.135  -0.184   7.605 -0.2009  0.0267  0.3657
  116OSM   H13F12187   3.082  -0.097   7.649 -0.7148 -0.2595  0.3195
  116OSM   H13G12188   3.221  -0.150   7.543  0.3643  0.8991  1.6091
  116OSM   C14F12189   3.192  -0.280   7.710  0.9697 -0.0524  0.1263
  116OSM   H14F12190   3.230  -0.371   7.660  2.2098  0.0576  0.8602
  116OSM   H14G12191   3.108  -0.308   7.777 -0.1017 -0.1020 -1.2065
  116OSM   C15F12192   3.295  -0.208   7.798 -1.1306  0.2559  0.0240
  116OSM   H15F12193   3.265  -0.102   7.812 -0.0966  0.5284  0.2117
  116OSM   H15G12194   3.390  -0.201   7.742 -0.6173 -1.4709  0.6369
  116OSM   C16F12195   3.321  -0.266   7.928  0.7550 -0.0246 -0.1843
  116OSM   H16F12196   3.234  -0.256   7.996  1.2095  1.4128  0.2006
  116OSM   H16G12197   3.402  -0.215   7.983  0.8894  1.0833 -1.3707
  116OSM   C17F12198   3.360  -0.415   7.919 -0.2763 -0.1334  0.1263
  116OSM   H17F12199   3.440  -0.414   7.843 -0.4172 -0.6649 -0.0318
  116OSM   H17G12200   3.282  -0.468   7.860 -2.8325  2.5175  1.0471
  116OSM   C18F12201   3.402  -0.489   8.047 -0.2170 -0.0795 -0.1757
  116OSM   H18F12202   3.496  -0.451   8.091 -2.9779  2.6534  3.7461
  116OSM   H18G12203   3.412  -0.599   8.036 -0.7681 -0.3005  1.4651
  116OSM   H18H12204   3.330  -0.488   8.131  1.6379 -0.0746  1.4397
  117OSM      N12205   0.777   2.038   5.982 -0.5087  0.2469 -0.1355
  117OSM    C1512206   0.717   2.174   5.983  0.3718  0.2069  0.4180
  117OSM   H15A12207   0.690   2.209   5.885  0.5049 -0.4897  0.1308
  117OSM   H15B12208   0.784   2.252   6.017  1.5635  0.3702 -2.2367
  117OSM   H15C12209   0.631   2.165   6.048 -0.2524 -0.7718 -0.5402
  117OSM    C1412210   0.688   1.945   5.902  0.5812 -0.3265 -0.1015
  117OSM   H14A12211   0.605   1.903   5.958 -0.0730  0.4103 -0.5111
  117OSM   H14B12212   0.745   1.860   5.867  2.1117  0.3769  0.6538
  117OSM   H14C12213   0.647   1.992   5.814 -0.1399  1.5307  1.1976
  117OSM    C1312214   0.902   2.051   5.891  0.1501  0.4956  0.5254
  117OSM   H13A12215   0.959   1.960   5.878 -0.9333 -0.3741  1.7244
  117OSM   H13B12216   0.981   2.112   5.933  1.5737 -0.7792 -0.2496
  117OSM   H13C12217   0.871   2.099   5.799 -3.1326  1.3558  2.0189
  117OSM    C1212218   0.819   1.986   6.115  1.0057  0.7537  0.0717
  117OSM   H12A12219   0.867   2.065   6.171  1.6462 -0.9606  2.0130
  117OSM   H12B12220   0.896   1.914   6.092 -0.4990 -0.2558 -1.9663
  117OSM    C1112221   0.704   1.936   6.210  0.2732 -0.4502  0.0635
  117OSM   H11A12222   0.638   2.025   6.215 -0.5718 -0.9982 -1.1270
  117OSM   H11B12223   0.746   1.911   6.310 -0.1174 -0.0854  0.3201
  117OSM      P12224   0.511   1.759   6.225  0.2170 -0.0894 -0.0406
  117OSM    O1312225   0.402   1.862   6.194  0.3903 -0.2442  0.2056
  117OSM    O1412226   0.474   1.627   6.172  0.1027  0.8020 -0.3615
  117OSM    O1112227   0.538   1.749   6.376  0.3222 -0.3496 -0.4429
  117OSM    O1212228   0.643   1.812   6.163  0.9183 -0.2158  0.1574
  117OSM    C1S12229   0.637   1.665   6.435 -0.5273  1.0212  0.6493
  117OSM    H1S12230   0.740   1.693   6.403  0.2093  0.5054  2.5567
  117OSM    H1T12231   0.629   1.561   6.398  1.3802  1.0944 -0.0470
  117OSM     NF12232   0.738   1.580   6.639 -0.0375 -0.7975  0.2765
  117OSM    HNF12233   0.711   1.495   6.683  1.2514 -1.6856 -0.6406
  117OSM    C2S12234   0.629   1.660   6.589  0.3516  0.2092  0.4176
  117OSM    H2S12235   0.652   1.760   6.631  0.8187 -0.5417  1.9936
  117OSM    C3S12236   0.493   1.610   6.643  0.5814 -0.5036  0.2915
  117OSM    H3S12237   0.482   1.502   6.618  1.9747 -0.9173  1.4283
  117OSM     O312238   0.383   1.681   6.588  0.0944 -0.3297 -0.0481
  117OSM    HO312239   0.427   1.728   6.517  0.1280  0.9700  0.8067
  117OSM    C4S12240   0.499   1.628   6.796 -0.2537  0.1679 -0.4530
  117OSM    H4S12241   0.500   1.531   6.848  0.0355 -0.5155 -1.7041
  117OSM    C5S12242   0.480   1.739   6.873  0.5878 -0.7548 -0.9287
  117OSM    H5S12243   0.486   1.834   6.818  0.4370 -1.2066 -1.7369
  117OSM    C6S12244   0.502   1.728   7.025 -0.3674  0.2376  0.6013
  117OSM    H6S12245   0.407   1.765   7.069 -0.4570 -0.1684  0.7490
  117OSM    H6T12246   0.580   1.798   7.064  0.1621 -0.4908  0.8690
  117OSM    C7S12247   0.514   1.593   7.113  1.1141  0.5416 -0.4437
  117OSM    H7S12248   0.610   1.543   7.086  2.2012  0.7126  2.8537
  117OSM    H7T12249   0.433   1.527   7.077  2.7836 -0.1953 -2.9974
  117OSM    C8S12250   0.516   1.625   7.265 -0.3013  0.1399 -0.6064
  117OSM    H8S12251   0.466   1.723   7.283  1.6814  1.1181 -0.3354
  117OSM    H8T12252   0.620   1.645   7.296 -1.4713  2.5257  1.9359
  117OSM    C9S12253   0.449   1.522   7.360 -0.2536 -0.2990  0.4555
  117OSM    H9S12254   0.510   1.429   7.356  0.9391  0.4700  0.4710
  117OSM    H9T12255   0.350   1.488   7.322  0.0042 -0.6225  0.0694
  117OSM   C10S12256   0.437   1.575   7.505 -0.0746  0.2102 -0.0892
  117OSM   H10S12257   0.341   1.629   7.509  0.5945  1.4221 -0.0041
  117OSM   H10T12258   0.520   1.644   7.534  0.5322 -0.3806 -0.4183
  117OSM   C11S12259   0.443   1.453   7.605  0.8778  0.0418  0.2207
  117OSM   H11S12260   0.529   1.389   7.574  0.3181 -0.8734  0.5220
  117OSM   H11T12261   0.358   1.388   7.575  1.2348 -0.3696  0.0987
  117OSM   C12S12262   0.432   1.502   7.746  0.2873 -0.2226 -0.3208
  117OSM   H12S12263   0.359   1.585   7.746 -0.4443 -0.8505 -1.8212
  117OSM   H12T12264   0.531   1.536   7.783 -0.3831 -1.6348  2.9087
  117OSM   C13S12265   0.408   1.395   7.850  0.5385 -0.1878  0.1753
  117OSM   H13S12266   0.489   1.320   7.833  0.8099  0.2524 -0.4853
  117OSM   H13T12267   0.313   1.348   7.818  0.7923 -1.0885  0.7076
  117OSM   C14S12268   0.392   1.454   7.988  0.1423  0.2522  0.1049
  117OSM   H14S12269   0.325   1.542   7.987 -0.6473 -0.3190  1.6005
  117OSM   H14T12270   0.490   1.491   8.025 -0.9998  1.0117  2.4393
  117OSM   C15S12271   0.343   1.350   8.097 -0.2712 -0.6878  0.4337
  117OSM   H15S12272   0.419   1.271   8.118  2.5252  2.3028  2.0104
  117OSM   H15T12273   0.254   1.299   8.055 -0.8502  0.4875  0.2090
  117OSM   C16S12274   0.303   1.412   8.235  0.2099 -1.1534 -0.6705
  117OSM   H16S12275   0.217   1.473   8.199  2.2095  1.8089 -0.6409
  117OSM   H16T12276   0.378   1.480   8.282 -1.9444  0.9975 -0.2737
  117OSM   C17S12277   0.252   1.310   8.333  0.1927 -0.4434 -0.2210
  117OSM   H17S12278   0.335   1.240   8.354 -0.1355 -0.5776  0.6438
  117OSM   H17T12279   0.165   1.246   8.304 -1.2798  0.5140  1.8982
  117OSM   C18S12280   0.207   1.388   8.459 -0.1535  0.5933  0.3316
  117OSM   H18S12281   0.100   1.413   8.448  0.0513  0.7287 -1.4423
  117OSM   H18T12282   0.263   1.483   8.474  1.8726 -0.2976 -1.2879
  117OSM   H18U12283   0.228   1.331   8.552 -2.7970 -1.1069 -0.0566
  117OSM    C1F12284   0.867   1.609   6.632  0.0227  0.1530  0.7017
  117OSM     OF12285   0.918   1.708   6.568 -0.0539  0.3201 -0.1404
  117OSM    C2F12286   0.949   1.513   6.707 -0.3318  0.7748 -0.0293
  117OSM    H2F12287   0.920   1.407   6.688 -3.1785  1.3550  0.7490
  117OSM    H2G12288   0.928   1.527   6.815  3.1601  2.3571  0.4863
  117OSM    C3F12289   1.102   1.528   6.684 -0.2355 -0.3561  0.1907
  117OSM    H3F12290   1.136   1.633   6.694  1.5660 -1.0202  1.1773
  117OSM    H3G12291   1.125   1.510   6.577  0.0084  1.2280 -0.0344
  117OSM    C4F12292   1.194   1.435   6.772 -0.6872  0.6110 -0.2970
  117OSM    H4F12293   1.301   1.455   6.750 -0.3706 -1.1480 -0.4288
  117OSM    H4G12294   1.181   1.329   6.741 -1.6655  0.2728  1.1994
  117OSM    C5F12295   1.172   1.445   6.925 -0.3528  0.2620  0.3241
  117OSM    H5F12296   1.232   1.368   6.978 -0.3555 -1.3610 -1.9213
  117OSM    H5G12297   1.069   1.407   6.942 -0.6066 -0.3707 -2.3203
  117OSM    C6F12298   1.184   1.587   6.977  0.0369 -0.1851 -0.0733
  117OSM    H6F12299   1.112   1.654   6.926 -1.5747 -0.2737  2.0434
  117OSM    H6G12300   1.286   1.630   6.962 -0.4642 -0.0322 -3.4351
  117OSM    C7F12301   1.167   1.588   7.132  0.2975  0.5442 -0.0343
  117OSM    H7F12302   1.222   1.506   7.184  0.2679  0.6466  0.1593
  117OSM    H7G12303   1.064   1.554   7.158  0.9097  0.1992  2.0382
  117OSM    C8F12304   1.202   1.724   7.186  0.0485 -0.4859  0.3965
  117OSM    H8F12305   1.151   1.736   7.284 -1.9952  2.8187 -1.0049
  117OSM    H8G12306   1.181   1.804   7.111  2.6221  0.2537  0.4188
  117OSM    C9F12307   1.348   1.724   7.210 -0.0254  0.1873 -0.2810
  117OSM    H9F12308   1.408   1.733   7.118  2.1424  0.6194  1.1197
  117OSM   C10F12309   1.412   1.699   7.327 -0.7904 -0.6766  0.1305
  117OSM   H10F12310   1.520   1.713   7.332 -0.8205  0.9959 -2.7957
  117OSM   C11F12311   1.347   1.677   7.464 -0.2361  0.0882  0.4643
  117OSM   H11F12312   1.311   1.573   7.474  0.8995 -0.3269  0.2740
  117OSM   H11G12313   1.262   1.748   7.477  0.3204  1.6593 -3.6818
  117OSM   C12F12314   1.453   1.721   7.572  0.1599  0.4373 -0.3296
  117OSM   H12F12315   1.495   1.817   7.538 -1.6860  1.6702  0.7614
  117OSM   H12G12316   1.538   1.649   7.577  0.9909  1.4798  0.8488
  117OSM   C13F12317   1.389   1.741   7.711 -1.0969  0.2508  0.0701
  117OSM   H13F12318   1.333   1.648   7.734 -1.1928  0.5461  1.0632
  117OSM   H13G12319   1.320   1.828   7.710 -0.7939  0.4836 -2.0679
  117OSM   C14F12320   1.484   1.764   7.827 -0.8795  0.2544 -0.0726
  117OSM   H14F12321   1.549   1.849   7.795  0.4029  0.0071  1.7781
  117OSM   H14G12322   1.551   1.676   7.836 -1.6521 -0.3032  0.2770
  117OSM   C15F12323   1.419   1.791   7.963  1.2738 -0.1364  0.1878
  117OSM   H15F12324   1.338   1.720   7.989  0.3776  0.2307 -1.4777
  117OSM   H15G12325   1.369   1.889   7.949  0.8790 -0.2227  0.9738
  117OSM   C16F12326   1.527   1.799   8.074  0.5589  0.2993 -0.1204
  117OSM   H16F12327   1.611   1.863   8.039 -0.2276  0.1010 -2.4028
  117OSM   H16G12328   1.563   1.698   8.102  0.8956  0.4996  0.1848
  117OSM   C17F12329   1.494   1.864   8.210 -0.1502  0.4966 -0.0613
  117OSM   H17F12330   1.404   1.815   8.252  0.0244  0.7104  0.5678
  117OSM   H17G12331   1.575   1.847   8.284 -0.6031  3.9940  1.3353
  117OSM   C18F12332   1.475   2.012   8.192 -0.1964 -0.0680 -0.6073
  117OSM   H18F12333   1.575   2.059   8.180  0.4122 -0.4084  2.7058
  117OSM   H18G12334   1.424   2.067   8.275 -0.3302  1.8989 -1.9673
  117OSM   H18H12335   1.419   2.036   8.100 -0.4531 -2.6389 -1.1703
  118OSM      N12336   4.189   3.281   6.350  0.0812 -0.7361  0.8915
  118OSM    C1512337   4.220   3.433   6.356  0.3281  0.8794 -0.5314
  118OSM   H15A12338   4.156   3.493   6.419 -0.9429 -0.0105 -0.9741
  118OSM   H15B12339   4.212   3.474   6.257 -0.4733  0.6453 -0.5643
  118OSM   H15C12340   4.324   3.456   6.377 -0.0035  0.0845  2.2305
  118OSM    C1412341   4.289   3.201   6.265 -0.2257  0.0072  0.5556
  118OSM   H14A12342   4.293   3.230   6.161  0.0149 -2.6733 -0.2295
  118OSM   H14B12343   4.252   3.100   6.258 -0.1267 -0.2558  3.3069
  118OSM   H14C12344   4.393   3.200   6.297 -0.4087 -1.3336  1.1471
  118OSM    C1312345   4.196   3.232   6.492  0.1753 -0.1538  0.3484
  118OSM   H13A12346   4.124   3.288   6.549 -3.2990 -0.2400 -3.6786
  118OSM   H13B12347   4.294   3.244   6.538  0.3113  0.9280 -0.1898
  118OSM   H13C12348   4.165   3.129   6.498 -0.0502 -0.0276  1.3524
  118OSM    C1212349   4.047   3.261   6.303  0.1880  0.0246  0.6223
  118OSM   H12A12350   4.028   3.155   6.300  1.6680 -0.2141 -3.5009
  118OSM   H12B12351   4.041   3.298   6.201  0.2944 -2.1169 -0.1907
  118OSM    C1112352   3.941   3.336   6.385  0.4325  0.0316 -0.4238
  118OSM   H11A12353   3.959   3.311   6.492 -0.2557 -0.6934 -0.4680
  118OSM   H11B12354   3.847   3.288   6.351  0.1925  0.7922 -0.8250
  118OSM      P12355   3.836   3.570   6.300  0.0360  0.2090  0.6460
  118OSM    O1312356   3.898   3.700   6.284 -0.2217  0.1956  0.0980
  118OSM    O1412357   3.776   3.495   6.187  0.0808 -0.5668 -0.5723
  118OSM    O1112358   3.731   3.592   6.407  0.3349  0.0292  1.0340
  118OSM    O1212359   3.940   3.475   6.374 -0.1627 -0.6975 -0.7253
  118OSM    C1S12360   3.775   3.584   6.548  0.4553  0.4314 -0.0697
  118OSM    H1S12361   3.877   3.629   6.555 -0.2303  2.3330 -1.7563
  118OSM    H1T12362   3.783   3.477   6.575  0.6299 -0.7075 -4.3270
  118OSM     NF12363   3.707   3.671   6.775  0.3187  0.5816  0.0132
  118OSM    HNF12364   3.689   3.600   6.842 -2.2039  0.0320 -1.2002
  118OSM    C2S12365   3.666   3.658   6.636 -0.4261  0.5212  0.2287
  118OSM    H2S12366   3.650   3.762   6.598 -0.6217  0.5904  0.5033
  118OSM    C3S12367   3.527   3.585   6.612  0.0060  0.7262 -0.3661
  118OSM    H3S12368   3.537   3.478   6.640 -0.3988  0.2320 -2.0472
  118OSM     O312369   3.477   3.574   6.476  0.1309  0.3788  0.8030
  118OSM    HO312370   3.541   3.600   6.409 -1.7839  2.6302 -0.2505
  118OSM    C4S12371   3.426   3.658   6.706  0.3094 -1.1437  0.3691
  118OSM    H4S12372   3.380   3.753   6.676  0.6561 -0.5301  1.7918
  118OSM    C5S12373   3.375   3.597   6.814 -0.8094  0.0011 -0.1122
  118OSM    H5S12374   3.411   3.498   6.845 -0.3901  0.5649  1.2789
  118OSM    C6S12375   3.284   3.670   6.907 -0.2281  0.3840 -0.5594
  118OSM    H6S12376   3.181   3.630   6.911 -1.0450  2.4851 -0.4332
  118OSM    H6T12377   3.290   3.777   6.879 -1.1285  0.9230  1.3044
  118OSM    C7S12378   3.332   3.675   7.051 -0.1090 -0.0406 -0.0521
  118OSM    H7S12379   3.354   3.573   7.088  2.6322  0.2755 -0.6497
  118OSM    H7T12380   3.250   3.721   7.110  0.7489  0.1406  1.0352
  118OSM    C8S12381   3.450   3.768   7.073 -0.6412 -0.0615 -0.3983
  118OSM    H8S12382   3.440   3.862   7.014 -1.7500  0.3113  0.3682
  118OSM    H8T12383   3.540   3.722   7.026  0.2362  1.4039 -0.1770
  118OSM    C9S12384   3.493   3.799   7.219 -0.2811  0.5320 -0.1888
  118OSM    H9S12385   3.598   3.836   7.215 -0.6010  1.4814  0.0195
  118OSM    H9T12386   3.491   3.708   7.282 -0.5720  0.6262 -0.0623
  118OSM   C10S12387   3.402   3.906   7.282 -0.3841  0.0021 -0.0647
  118OSM   H10S12388   3.298   3.878   7.257  0.3878 -4.9452  1.7951
  118OSM   H10T12389   3.424   4.003   7.233 -1.3533 -0.0279 -0.5772
  118OSM   C11S12390   3.423   3.917   7.436 -0.7022  0.2028  0.2477
  118OSM   H11S12391   3.532   3.911   7.451 -0.8908  2.0468  2.8629
  118OSM   H11T12392   3.377   3.825   7.479 -2.1499  0.0462 -1.5629
  118OSM   C12S12393   3.389   4.056   7.507  0.2628 -0.3078  0.3127
  118OSM   H12S12394   3.282   4.083   7.493  0.2776  0.2222  1.2000
  118OSM   H12T12395   3.442   4.144   7.463 -2.3651  1.1329 -0.0943
  118OSM   C13S12396   3.412   4.051   7.665 -0.0082  0.3562  0.3333
  118OSM   H13S12397   3.436   4.156   7.694 -1.8397  1.2585 -1.3283
  118OSM   H13T12398   3.507   3.995   7.680  0.6438  1.4292  0.3354
  118OSM   C14S12399   3.302   3.986   7.745  0.0886  0.1673 -0.1870
  118OSM   H14S12400   3.272   3.893   7.691  0.3129  1.2963 -2.2939
  118OSM   H14T12401   3.216   4.055   7.758  0.3595  1.2450 -3.6663
  118OSM   C15S12402   3.352   3.941   7.885 -0.1937  0.3863  0.2646
  118OSM   H15S12403   3.410   4.024   7.930  0.3774  0.1005  0.0615
  118OSM   H15T12404   3.423   3.855   7.879 -4.2163 -3.0662 -0.1057
  118OSM   C16S12405   3.242   3.909   7.983 -0.4557 -0.1811 -0.8353
  118OSM   H16S12406   3.175   3.834   7.936 -0.8893 -0.1585 -0.2669
  118OSM   H16T12407   3.181   3.999   8.008 -1.7118 -0.9432 -1.1033
  118OSM   C17S12408   3.293   3.851   8.111  0.0993 -0.0509  0.3291
  118OSM   H17S12409   3.356   3.761   8.095 -1.4664 -0.8250 -1.6428
  118OSM   H17T12410   3.204   3.813   8.166 -1.0508  0.2925 -1.2646
  118OSM   C18S12411   3.382   3.952   8.185  0.2747  0.1362  1.0136
  118OSM   H18S12412   3.486   3.939   8.147 -1.3591  0.4289 -3.8908
  118OSM   H18T12413   3.374   3.918   8.291  0.4597 -1.2920  0.5759
  118OSM   H18U12414   3.350   4.058   8.176  3.0410  0.7607 -2.7691
  118OSM    C1F12415   3.791   3.767   6.807  0.6142 -0.0498  0.2972
  118OSM     OF12416   3.838   3.828   6.713 -0.0975  0.4517 -0.1820
  118OSM    C2F12417   3.833   3.771   6.951 -0.0870  0.5465 -0.9773
  118OSM    H2F12418   3.846   3.667   6.988 -0.7911  0.9354  0.4009
  118OSM    H2G12419   3.756   3.825   7.010  0.4637 -1.5603  1.7567
  118OSM    C3F12420   3.974   3.838   6.951 -0.2101  0.1042 -0.7626
  118OSM    H3F12421   3.980   3.936   6.898 -0.5135  0.1408 -0.7288
  118OSM    H3G12422   4.038   3.767   6.896  0.3471  0.9524 -1.2199
  118OSM    C4F12423   4.047   3.849   7.092  0.0866 -0.3025  0.4875
  118OSM    H4F12424   4.071   3.750   7.136  3.4253  0.0350 -0.4099
  118OSM    H4G12425   3.979   3.896   7.166  0.4930  2.0699 -0.6080
  118OSM    C5F12426   4.181   3.920   7.082  0.5761 -0.7635 -0.3884
  118OSM    H5F12427   4.175   4.023   7.041  1.9905  0.0848  1.4382
  118OSM    H5G12428   4.252   3.864   7.018 -0.1007 -1.8901 -0.1706
  118OSM    C6F12429   4.248   3.938   7.223  0.4496  0.4582  0.0249
  118OSM    H6F12430   4.196   4.017   7.281  0.0552  0.3839 -0.2293
  118OSM    H6G12431   4.351   3.976   7.208  0.4418  1.1275  1.5474
  118OSM    C7F12432   4.255   3.810   7.320  0.2084 -0.3396 -0.1488
  118OSM    H7F12433   4.320   3.729   7.279  2.3953  0.9492  0.6641
  118OSM    H7G12434   4.151   3.775   7.338 -1.4253  3.5892 -1.5061
  118OSM    C8F12435   4.300   3.850   7.457 -0.5024 -0.1782 -0.3046
  118OSM    H8F12436   4.264   3.776   7.531  1.1737 -2.2349 -1.5035
  118OSM    H8G12437   4.236   3.940   7.474  0.0031  0.6531 -2.6051
  118OSM    C9F12438   4.445   3.898   7.468 -0.1048  0.1342  0.6136
  118OSM    H9F12439   4.501   3.899   7.373  0.2153 -0.3454  0.7945
  118OSM   C10F12440   4.512   3.922   7.580 -0.5141 -0.7266 -0.0312
  118OSM   H10F12441   4.616   3.956   7.571 -0.5205 -0.3373  1.2158
  118OSM   C11F12442   4.457   3.916   7.723  0.4324 -0.0356  0.3297
  118OSM   H11F12443   4.533   3.899   7.803  1.8488  1.4027 -0.6799
  118OSM   H11G12444   4.388   3.830   7.735  0.9943 -0.8725 -2.2275
  118OSM   C12F12445   4.380   4.050   7.754 -0.3482  0.5835 -0.0026
  118OSM   H12F12446   4.309   4.067   7.671 -1.4195 -1.3839  0.4834
  118OSM   H12G12447   4.455   4.132   7.760 -0.3994  0.8904 -2.9583
  118OSM   C13F12448   4.305   4.062   7.889  0.0048  0.1942 -0.4239
  118OSM   H13F12449   4.240   3.973   7.903  0.3551  0.1430  0.8957
  118OSM   H13G12450   4.238   4.148   7.870 -0.9263 -0.8580 -2.0475
  118OSM   C14F12451   4.403   4.062   8.009 -0.5777 -0.0637  0.0190
  118OSM   H14F12452   4.494   4.008   7.975 -0.1189  0.8070 -0.1575
  118OSM   H14G12453   4.364   3.999   8.092  1.1557  1.5900  2.1583
  118OSM   C15F12454   4.436   4.202   8.049 -0.5194 -0.8010 -0.8679
  118OSM   H15F12455   4.425   4.271   7.963  0.1069  0.8571  0.3471
  118OSM   H15G12456   4.544   4.207   8.072 -0.8430  2.0508  0.2069
  118OSM   C16F12457   4.342   4.246   8.168 -0.0866 -0.5240 -0.0228
  118OSM   H16F12458   4.376   4.184   8.254 -4.9692 -3.0188  0.2734
  118OSM   H16G12459   4.233   4.230   8.153 -0.3639  0.1762  1.1923
  118OSM   C17F12460   4.352   4.392   8.202  0.0945  0.3810  0.1221
  118OSM   H17F12461   4.326   4.447   8.110  1.1967  1.7378  0.5940
  118OSM   H17G12462   4.457   4.422   8.220 -0.7840  3.6063  0.1210
  118OSM   C18F12463   4.263   4.426   8.325  0.0889  0.1596 -0.0080
  118OSM   H18F12464   4.292   4.363   8.411 -1.9303  0.0156  0.5836
  118OSM   H18G12465   4.154   4.406   8.317  0.1566 -0.1993 -0.0478
  118OSM   H18H12466   4.265   4.530   8.365 -1.3380 -0.6379  2.2422
  119OSM      N12467   5.041   3.379   5.811 -0.3790 -0.0872 -0.2777
  119OSM    C1512468   4.977   3.480   5.723 -0.2712  0.1408  0.6394
  119OSM   H15A12469   4.924   3.442   5.637  1.9027  1.3475 -1.2908
  119OSM   H15B12470   5.048   3.547   5.676 -1.0459  0.2196 -0.4252
  119OSM   H15C12471   4.902   3.539   5.774 -1.5495 -0.7214 -0.2177
  119OSM    C1412472   5.083   3.449   5.940 -0.3184 -0.0392  0.2865
  119OSM   H14A12473   5.123   3.377   6.010 -1.9904  0.3000  1.6281
  119OSM   H14B12474   5.002   3.497   5.993  1.2352  2.5045  0.4468
  119OSM   H14C12475   5.154   3.526   5.915  0.8986 -0.5917  1.9580
  119OSM    C1312476   4.947   3.271   5.846  0.4849  0.0305 -0.0833
  119OSM   H13A12477   4.910   3.220   5.757 -0.4418  1.3245 -0.4542
  119OSM   H13B12478   4.866   3.310   5.906  0.7944  1.7994 -0.7724
  119OSM   H13C12479   4.988   3.197   5.913 -0.9568 -1.0732 -0.4063
  119OSM    C1212480   5.164   3.324   5.736 -0.2165 -0.1561  0.2236
  119OSM   H12A12481   5.236   3.404   5.741 -1.1925  0.6414  1.9136
  119OSM   H12B12482   5.127   3.295   5.638 -0.8892 -0.1439  0.4687
  119OSM    C1112483   5.241   3.202   5.800 -0.9616  0.1746  0.6883
  119OSM   H11A12484   5.317   3.163   5.729  0.8098  2.1344  1.4369
  119OSM   H11B12485   5.164   3.123   5.817 -0.0955 -1.3230 -2.0851
  119OSM      P12486   5.438   3.302   5.911  0.1512  0.1723 -0.2339
  119OSM    O1312487   5.539   3.199   5.878  0.1652 -0.0546 -0.5454
  119OSM    O1412488   5.432   3.414   5.814  0.1328 -0.6584  0.2507
  119OSM    O1112489   5.453   3.364   6.058  0.3212  0.2317  0.4785
  119OSM    O1212490   5.295   3.241   5.919  0.4113 -0.0719  0.0817
  119OSM    C1S12491   5.383   3.312   6.173 -0.6230  0.6260 -0.0854
  119OSM    H1S12492   5.398   3.203   6.189 -2.3666  0.0765 -1.9174
  119OSM    H1T12493   5.275   3.310   6.144 -0.5988  0.2489 -0.1624
  119OSM     NF12494   5.319   3.345   6.400  0.1567  0.5394  0.0401
  119OSM    HNF12495   5.230   3.386   6.421  1.0997  2.5320  0.1984
  119OSM    C2S12496   5.400   3.397   6.296 -0.5682  0.2642  0.6431
  119OSM    H2S12497   5.505   3.387   6.332 -0.1816 -0.9195 -0.7490
  119OSM    C3S12498   5.376   3.548   6.271  0.0672  0.4340 -0.5225
  119OSM    H3S12499   5.268   3.572   6.260 -0.5868 -1.4741  1.4302
  119OSM     O312500   5.458   3.601   6.165  0.0799  0.1482 -0.3546
  119OSM    HO312501   5.492   3.527   6.115 -3.1051  0.1668 -2.7643
  119OSM    C4S12502   5.413   3.618   6.402 -0.9750 -0.4056 -0.6543
  119OSM    H4S12503   5.519   3.604   6.428 -0.9312  1.3740  0.2499
  119OSM    C5S12504   5.335   3.705   6.472 -0.6419  0.2039  0.0512
  119OSM    H5S12505   5.228   3.710   6.449 -0.6108 -1.4252 -0.5038
  119OSM    C6S12506   5.361   3.783   6.596  0.2183  0.3285  0.1270
  119OSM    H6S12507   5.453   3.753   6.650 -0.3960 -0.8342  0.5306
  119OSM    H6T12508   5.278   3.755   6.664  0.7277 -0.7422  0.3126
  119OSM    C7S12509   5.358   3.938   6.571  0.4732 -0.6837 -0.1796
  119OSM    H7S12510   5.256   3.970   6.540  1.4206  1.6895 -0.9352
  119OSM    H7T12511   5.431   3.962   6.491  0.2938  1.4907  0.2814
  119OSM    C8S12512   5.384   4.007   6.708  0.0305 -0.1725 -0.0226
  119OSM    H8S12513   5.418   4.113   6.699 -0.8061  0.2129  1.2630
  119OSM    H8T12514   5.458   3.951   6.768 -0.0556  1.8042  1.9973
  119OSM    C9S12515   5.259   4.023   6.792 -0.1581  0.6291 -0.2142
  119OSM    H9S12516   5.185   3.940   6.790  0.1997  0.2691  0.9664
  119OSM    H9T12517   5.197   4.107   6.754 -1.7393 -1.1159 -1.5963
  119OSM   C10S12518   5.308   4.033   6.940 -0.2850 -0.2920 -0.6871
  119OSM   H10S12519   5.382   4.115   6.949 -1.0253  0.4310 -1.0652
  119OSM   H10T12520   5.354   3.939   6.976 -0.8121  0.3562  1.7734
  119OSM   C11S12521   5.194   4.071   7.041  0.3870  0.1949  0.1721
  119OSM   H11S12522   5.136   3.982   7.075  0.4743  0.3578  0.7447
  119OSM   H11T12523   5.117   4.135   6.994  0.6656 -0.3651 -1.0705
  119OSM   C12S12524   5.235   4.148   7.169  0.0217  0.1997 -0.4330
  119OSM   H12S12525   5.299   4.228   7.127 -0.2589  0.8706  0.4055
  119OSM   H12T12526   5.289   4.072   7.230  3.0535  0.5900 -2.4972
  119OSM   C13S12527   5.117   4.213   7.247 -0.1658  0.0303  0.3424
  119OSM   H13S12528   5.050   4.137   7.292  0.2086 -0.2522  0.4237
  119OSM   H13T12529   5.041   4.247   7.174  0.3707 -2.8474 -1.6345
  119OSM   C14S12530   5.171   4.318   7.339 -0.0282 -0.4806  0.5132
  119OSM   H14S12531   5.087   4.387   7.361 -0.6481 -1.0815  0.0269
  119OSM   H14T12532   5.246   4.384   7.289 -0.7478  0.7640  1.0362
  119OSM   C15S12533   5.220   4.263   7.476  0.0970  0.6129 -0.4571
  119OSM   H15S12534   5.320   4.217   7.460 -0.1891  0.1135 -0.8173
  119OSM   H15T12535   5.149   4.184   7.509  1.5174 -0.6980 -0.4466
  119OSM   C16S12536   5.232   4.363   7.597 -0.3813 -0.1546  0.9088
  119OSM   H16S12537   5.141   4.427   7.600  1.2255  2.2966 -0.5292
  119OSM   H16T12538   5.319   4.430   7.577 -1.0207  0.5681  0.5223
  119OSM   C17S12539   5.263   4.288   7.735 -0.4371 -0.1727  0.0391
  119OSM   H17S12540   5.311   4.353   7.811 -2.9984 -0.7548  2.2414
  119OSM   H17T12541   5.332   4.209   7.698 -0.3536 -1.0706  2.0527
  119OSM   C18S12542   5.133   4.234   7.783  0.0395  0.1358  0.5436
  119OSM   H18S12543   5.145   4.163   7.868  0.3092 -1.6628 -0.9825
  119OSM   H18T12544   5.088   4.186   7.694  1.7256 -0.6382  0.0795
  119OSM   H18U12545   5.060   4.313   7.811 -1.1854 -0.1052 -1.8947
  119OSM    C1F12546   5.349   3.219   6.455 -0.0827 -0.3256  0.5944
  119OSM     OF12547   5.456   3.164   6.450 -0.5552 -0.2196 -0.0505
  119OSM    C2F12548   5.238   3.153   6.527  0.2022  0.4693  0.1526
  119OSM    H2F12549   5.194   3.082   6.453 -1.4558  1.4279  0.1923
  119OSM    H2G12550   5.152   3.220   6.550 -0.5199 -0.7152  1.0153
  119OSM    C3F12551   5.278   3.070   6.651 -0.2159  0.1269 -0.2563
  119OSM    H3F12552   5.317   3.151   6.717  0.9132  0.4894 -1.3361
  119OSM    H3G12553   5.357   2.995   6.631 -0.4069 -0.4347  1.0291
  119OSM    C4F12554   5.162   2.994   6.723 -0.3753 -0.1019 -0.1324
  119OSM    H4F12555   5.114   2.923   6.653 -0.1483 -0.4742  0.0847
  119OSM    H4G12556   5.088   3.074   6.746  0.4183  0.9707 -1.2360
  119OSM    C5F12557   5.213   2.923   6.852  0.1250  0.2833  0.3258
  119OSM    H5F12558   5.279   2.841   6.817  0.2743  0.5750 -0.0841
  119OSM    H5G12559   5.128   2.870   6.899  0.4722  0.3317  1.0108
  119OSM    C6F12560   5.266   3.013   6.964 -0.4861  0.5522 -0.1390
  119OSM    H6F12561   5.195   3.098   6.967  0.3043  1.2830 -1.5466
  119OSM    H6G12562   5.363   3.053   6.926  0.0650  0.3137  0.9981
  119OSM    C7F12563   5.302   2.947   7.097  0.0491 -0.9007 -0.0703
  119OSM    H7F12564   5.379   2.868   7.085 -0.8956 -1.8424 -0.0610
  119OSM    H7G12565   5.214   2.900   7.145  1.5490 -1.7443  1.9462
  119OSM    C8F12566   5.343   3.045   7.208 -0.7087  0.4409 -0.3528
  119OSM    H8F12567   5.425   3.111   7.172  3.0844 -2.3825  2.6801
  119OSM    H8G12568   5.394   2.981   7.283 -0.5819  0.9725  0.0180
  119OSM    C9F12569   5.237   3.137   7.259  0.3332  0.5739  0.2711
  119OSM    H9F12570   5.211   3.219   7.190 -2.6219 -1.5137 -1.2142
  119OSM   C10F12571   5.201   3.129   7.382 -0.2778  0.5438 -0.0211
  119OSM   H10F12572   5.122   3.201   7.408 -1.9874 -0.9811 -0.9558
  119OSM   C11F12573   5.236   3.029   7.489  0.2988  0.1460 -1.0799
  119OSM   H11F12574   5.291   2.938   7.456  1.5125 -0.1753  1.6281
  119OSM   H11G12575   5.144   2.991   7.538 -0.1746  2.1916 -0.3383
  119OSM   C12F12576   5.330   3.095   7.603 -0.4574 -0.4635 -0.9339
  119OSM   H12F12577   5.428   3.123   7.558 -2.0172  3.6637 -2.0281
  119OSM   H12G12578   5.347   3.015   7.678  0.4907  1.0188  0.4538
  119OSM   C13F12579   5.262   3.195   7.686 -0.1144  0.0513 -0.3389
  119OSM   H13F12580   5.166   3.158   7.728  0.3327 -1.9036 -0.9712
  119OSM   H13G12581   5.242   3.290   7.631 -0.7289 -0.2882 -0.7047
  119OSM   C14F12582   5.347   3.231   7.807  0.3356  0.0494 -0.5604
  119OSM   H14F12583   5.444   3.275   7.775  0.5105  1.7563  2.1825
  119OSM   H14G12584   5.377   3.134   7.852 -0.9819  1.5743  3.8367
  119OSM   C15F12585   5.275   3.322   7.910 -0.0772  0.0894 -0.1702
  119OSM   H15F12586   5.201   3.260   7.966  1.8057 -1.8553  0.2299
  119OSM   H15G12587   5.211   3.386   7.845  1.2376 -1.6211 -3.2456
  119OSM   C16F12588   5.365   3.400   8.005 -0.0388  0.3100  0.3039
  119OSM   H16F12589   5.454   3.341   8.035 -0.3058 -0.2347  0.0289
  119OSM   H16G12590   5.315   3.441   8.095  0.2093  0.3432  0.4283
  119OSM   C17F12591   5.421   3.522   7.938 -0.1875  0.0410  0.2142
  119OSM   H17F12592   5.335   3.578   7.896  0.4793  0.5028 -0.5642
  119OSM   H17G12593   5.487   3.497   7.852  0.1084 -1.5409  0.8994
  119OSM   C18F12594   5.498   3.615   8.030 -0.1623  0.4692  1.0384
  119OSM   H18F12595   5.579   3.558   8.080 -1.7301 -1.9929  0.8684
  119OSM   H18G12596   5.430   3.648   8.111  0.3783 -0.5211  1.9193
  119OSM   H18H12597   5.538   3.705   7.979  1.8420 -1.4411 -0.9330
  120OSM      N12598   2.628   0.829   6.548  0.0295 -0.0751 -0.5520
  120OSM    C1512599   2.678   0.860   6.685 -0.0215  0.8877  0.6979
  120OSM   H15A12600   2.766   0.800   6.703 -0.7598 -0.5290 -0.3500
  120OSM   H15B12601   2.603   0.822   6.753 -2.1412  0.5023 -1.7761
  120OSM   H15C12602   2.682   0.968   6.689 -2.9629  1.1292 -1.1039
  120OSM    C1412603   2.507   0.912   6.510  0.2112 -0.2415 -0.6497
  120OSM   H14A12604   2.431   0.903   6.587  0.8449  2.4843  0.3497
  120OSM   H14B12605   2.452   0.891   6.420  0.3980  3.2781 -1.6563
  120OSM   H14C12606   2.537   1.016   6.504  1.2084 -0.5734 -1.5132
  120OSM    C1312607   2.740   0.841   6.456 -0.5519  0.0339  0.2159
  120OSM   H13A12608   2.764   0.944   6.432 -1.4497  0.0949 -0.4697
  120OSM   H13B12609   2.723   0.786   6.365 -0.0523  1.8326 -0.9983
  120OSM   H13C12610   2.835   0.800   6.485 -0.4662 -0.1036 -0.2472
  120OSM    C1212611   2.598   0.685   6.567 -0.7625 -0.2864  0.2504
  120OSM   H12A12612   2.527   0.680   6.648  1.3347  2.0569  2.3214
  120OSM   H12B12613   2.688   0.638   6.601 -0.9790 -0.8093  0.1041
  120OSM    C1112614   2.552   0.604   6.446 -0.0454 -0.4429 -0.1213
  120OSM   H11A12615   2.472   0.668   6.404  2.7583  0.3084 -4.6048
  120OSM   H11B12616   2.504   0.507   6.471 -0.3783 -0.1052  0.5760
  120OSM      P12617   2.723   0.456   6.317 -0.1304  0.2497  0.7782
  120OSM    O1312618   2.642   0.371   6.220  0.1616  0.4078  0.4493
  120OSM    O1412619   2.865   0.492   6.277  0.3131  1.1369  0.3357
  120OSM    O1112620   2.722   0.376   6.456  0.0072  0.0629  0.5501
  120OSM    O1212621   2.644   0.588   6.343  0.0792  0.1767  0.2101
  120OSM    C1S12622   2.825   0.384   6.548  0.4148 -0.1957  0.2460
  120OSM    H1S12623   2.873   0.484   6.552 -0.8123  0.3815  0.9612
  120OSM    H1T12624   2.903   0.306   6.528 -0.2645 -1.8524  3.6300
  120OSM     NF12625   2.873   0.391   6.801 -0.6976  0.1873  0.3898
  120OSM    HNF12626   2.909   0.318   6.858  1.0903  0.1216 -0.7779
  120OSM    C2S12627   2.773   0.352   6.696 -0.0447 -0.1215  0.3445
  120OSM    H2S12628   2.680   0.407   6.722 -0.3844 -0.9987  1.0267
  120OSM    C3S12629   2.719   0.201   6.708 -0.3807 -0.1813 -0.4602
  120OSM    H3S12630   2.806   0.132   6.710  0.5661  0.9521 -1.4298
  120OSM     O312631   2.653   0.163   6.588 -0.2236  0.2297  0.1377
  120OSM    HO312632   2.668   0.239   6.532 -0.2852  1.2078  1.4161
  120OSM    C4S12633   2.624   0.178   6.831 -0.8089  0.3184  0.2577
  120OSM    H4S12634   2.522   0.214   6.811 -0.7054  1.1332  1.2109
  120OSM    C5S12635   2.640   0.108   6.939  0.3139 -0.1869  0.0577
  120OSM    H5S12636   2.739   0.059   6.938  0.2350 -0.3242 -1.4941
  120OSM    C6S12637   2.561   0.110   7.068 -0.4328 -0.2424  0.2961
  120OSM    H6S12638   2.490   0.024   7.069 -2.2263  1.2049  0.6943
  120OSM    H6T12639   2.493   0.198   7.067 -0.6079 -0.3729 -1.5166
  120OSM    C7S12640   2.650   0.110   7.193  0.6134  0.7475 -0.0670
  120OSM    H7S12641   2.719   0.197   7.189  1.7993 -0.1625  0.5385
  120OSM    H7T12642   2.707   0.016   7.183 -3.0104 -1.6987  1.2143
  120OSM    C8S12643   2.572   0.104   7.325 -0.2133 -0.1958  0.3579
  120OSM    H8S12644   2.502   0.020   7.308 -0.6492  0.0224  1.0675
  120OSM    H8T12645   2.516   0.200   7.332  0.7602  0.4996 -1.0797
  120OSM    C9S12646   2.662   0.050   7.442 -0.1908 -0.0679  0.2916
  120OSM    H9S12647   2.757   0.106   7.448 -0.4663  0.7649 -2.4410
  120OSM    H9T12648   2.698  -0.054   7.426  1.6785  0.4315  1.1921
  120OSM   C10S12649   2.570   0.053   7.568  0.3779  0.4223 -0.2082
  120OSM   H10S12650   2.486  -0.019   7.558  2.1834 -1.3676 -3.3677
  120OSM   H10T12651   2.523   0.153   7.573 -1.5885 -0.4676 -0.5507
  120OSM   C11S12652   2.643   0.023   7.701  0.2974 -0.2234  0.3058
  120OSM   H11S12653   2.738   0.079   7.703 -0.7113  1.5340 -0.2195
  120OSM   H11T12654   2.683  -0.080   7.693 -0.5924 -0.5945  0.4946
  120OSM   C12S12655   2.567   0.074   7.823  0.4515 -0.1709  0.3363
  120OSM   H12S12656   2.457   0.059   7.821  0.3585  0.3262  1.4254
  120OSM   H12T12657   2.565   0.185   7.830  0.5563 -0.2663  1.8476
  120OSM   C13S12658   2.628   0.026   7.959  0.3027 -0.3945 -0.3002
  120OSM   H13S12659   2.733  -0.003   7.937 -0.2187 -0.4629 -2.8969
  120OSM   H13T12660   2.581  -0.071   7.985  0.5667 -0.6357 -0.7194
  120OSM   C14S12661   2.605   0.135   8.063  0.6587  0.1765  0.7475
  120OSM   H14S12662   2.497   0.159   8.071  1.0685  2.0547  0.7923
  120OSM   H14T12663   2.662   0.223   8.025 -0.3044  0.3122 -0.4288
  120OSM   C15S12664   2.657   0.103   8.202  0.7480 -0.4127 -1.0996
  120OSM   H15S12665   2.760   0.063   8.200  0.0637 -2.2231 -0.5684
  120OSM   H15T12666   2.602   0.022   8.254  0.8655  1.2709  1.7638
  120OSM   C16S12667   2.657   0.222   8.297  0.4072 -1.2632 -0.0314
  120OSM   H16S12668   2.560   0.232   8.350  1.6511 -0.8152  2.2428
  120OSM   H16T12669   2.672   0.309   8.229 -0.0280 -1.6732 -0.6653
  120OSM   C17S12670   2.767   0.218   8.404 -0.0860  0.3824  0.4908
  120OSM   H17S12671   2.863   0.186   8.357 -0.4098  0.5255 -0.2795
  120OSM   H17T12672   2.738   0.135   8.473  0.8060 -0.4503 -0.1144
  120OSM   C18S12673   2.796   0.350   8.476  0.4297 -0.4204  0.2450
  120OSM   H18S12674   2.880   0.333   8.547  0.4177 -0.2314  0.3031
  120OSM   H18T12675   2.715   0.377   8.547 -0.0604  1.1946 -0.8980
  120OSM   H18U12676   2.800   0.445   8.418 -1.6639 -0.1442  0.5358
  120OSM    C1F12677   2.915   0.514   6.831  0.5754  0.1056  0.2566
  120OSM     OF12678   2.872   0.615   6.773 -0.4574  0.2823  0.1679
  120OSM    C2F12679   3.008   0.526   6.946 -0.8864 -0.1134 -0.5671
  120OSM    H2F12680   3.090   0.451   6.947 -0.9907 -0.2442 -1.6315
  120OSM    H2G12681   2.951   0.511   7.041 -1.0350 -0.5706 -0.7228
  120OSM    C3F12682   3.065   0.673   6.959 -0.3266 -0.9558  0.8706
  120OSM    H3F12683   2.982   0.746   6.955 -0.7630 -1.4475  0.9735
  120OSM    H3G12684   3.154   0.697   6.895 -0.3908 -3.1068 -0.0634
  120OSM    C4F12685   3.117   0.705   7.100 -0.8524  0.6261 -0.2835
  120OSM    H4F12686   3.185   0.793   7.094 -0.8173  0.7017  1.1115
  120OSM    H4G12687   3.173   0.617   7.137 -0.5848  0.9989  0.1962
  120OSM    C5F12688   3.011   0.738   7.203 -0.2236 -0.0847 -0.4772
  120OSM    H5F12689   2.956   0.642   7.210 -0.1408 -0.1369 -0.5401
  120OSM    H5G12690   2.940   0.814   7.165 -1.1469 -0.2246  0.9089
  120OSM    C6F12691   3.069   0.760   7.341  0.3335 -0.7216 -0.5184
  120OSM    H6F12692   3.151   0.834   7.331  0.2870 -0.6780 -0.5747
  120OSM    H6G12693   3.110   0.664   7.379  1.9578 -0.4125 -1.4293
  120OSM    C7F12694   2.955   0.825   7.430  0.6232 -0.0130 -0.8567
  120OSM    H7F12695   2.876   0.748   7.441 -0.3383  0.7629 -2.2967
  120OSM    H7G12696   2.917   0.911   7.371  1.1334  1.2424  0.5844
  120OSM    C8F12697   2.995   0.874   7.570 -0.2877 -0.1967  1.0068
  120OSM    H8F12698   2.999   0.787   7.639  0.7450 -0.7795  0.2317
  120OSM    H8G12699   2.909   0.931   7.612 -1.3124 -0.2012 -1.0442
  120OSM    C9F12700   3.122   0.962   7.581  0.4753  0.3081  0.5883
  120OSM    H9F12701   3.172   0.980   7.485  0.6045  0.5553  0.7017
  120OSM   C10F12702   3.193   1.003   7.697  0.5355 -0.3717 -0.4818
  120OSM   H10F12703   3.286   1.060   7.682  0.5654  0.1745  1.6839
  120OSM   C11F12704   3.148   0.961   7.834 -0.4314  0.0088 -0.6894
  120OSM   H11F12705   3.233   0.910   7.883 -1.7605 -1.9778 -0.4110
  120OSM   H11G12706   3.071   0.882   7.833  1.2249 -1.7100  1.4100
  120OSM   C12F12707   3.098   1.068   7.934 -1.3050 -0.6415  1.0754
  120OSM   H12F12708   3.131   1.047   8.038 -0.5609  1.8168  1.3678
  120OSM   H12G12709   2.988   1.082   7.935 -1.2203  0.0740  0.6504
  120OSM   C13F12710   3.155   1.210   7.899  0.0036  0.1697  0.1097
  120OSM   H13F12711   3.104   1.257   7.813  1.8445 -0.8503 -1.5606
  120OSM   H13G12712   3.265   1.212   7.886  0.2613  1.9848  2.1475
  120OSM   C14F12713   3.134   1.309   8.018  1.0317  0.2487  0.3003
  120OSM   H14F12714   3.205   1.263   8.090 -2.6615 -2.5899  2.3014
  120OSM   H14G12715   3.034   1.286   8.061  0.7234  1.5723  0.2934
  120OSM   C15F12716   3.172   1.452   7.984  0.2792  0.3617  0.0725
  120OSM   H15F12717   3.092   1.492   7.917 -1.0302 -1.2210  0.6606
  120OSM   H15G12718   3.261   1.454   7.917 -1.0955  0.1086 -1.8206
  120OSM   C16F12719   3.205   1.547   8.093  0.2724 -0.0941 -0.3093
  120OSM   H16F12720   3.294   1.510   8.146 -0.3818  2.3253  2.5929
  120OSM   H16G12721   3.128   1.554   8.173 -0.3014  2.0531 -1.0008
  120OSM   C17F12722   3.241   1.687   8.044  0.1401 -0.3900  0.0826
  120OSM   H17F12723   3.145   1.723   8.001 -0.7023 -1.7707  0.7897
  120OSM   H17G12724   3.316   1.678   7.962 -0.4477  1.9120 -0.7681
  120OSM   C18F12725   3.284   1.785   8.155  0.4222  0.0268 -0.0202
  120OSM   H18F12726   3.281   1.890   8.119 -0.7300 -0.5119 -1.5447
  120OSM   H18G12727   3.382   1.763   8.202  2.0720  0.7790 -3.0167
  120OSM   H18H12728   3.205   1.790   8.234  0.9098  0.5991  0.4333
  121OSM      N12729   4.288   2.421   6.119  0.4012  0.1084  0.5094
  121OSM    C1512730   4.228   2.381   5.990  0.4847 -0.4148  0.9460
  121OSM   H15A12731   4.272   2.427   5.903 -0.2863 -0.7718  0.3605
  121OSM   H15B12732   4.125   2.415   5.986  1.0505  1.1301 -1.3567
  121OSM   H15C12733   4.231   2.273   5.977  0.3071 -0.0784 -2.2877
  121OSM    C1412734   4.276   2.563   6.125  0.2237  0.0386  0.4435
  121OSM   H14A12735   4.356   2.601   6.064 -2.7868  2.5567 -2.0911
  121OSM   H14B12736   4.305   2.613   6.217 -0.0683 -0.5661  0.8681
  121OSM   H14C12737   4.179   2.600   6.095 -0.8168  1.3396  4.9196
  121OSM    C1312738   4.185   2.368   6.219  0.1981  0.8068 -0.1526
  121OSM   H13A12739   4.162   2.263   6.209 -0.3172  0.8716  0.3180
  121OSM   H13B12740   4.092   2.418   6.196 -0.6625 -0.3930  0.6580
  121OSM   H13C12741   4.205   2.398   6.320 -0.3325  1.9089 -0.3737
  121OSM    C1212742   4.427   2.364   6.143  0.5503  0.7025  0.3639
  121OSM   H12A12743   4.426   2.256   6.148  1.6416  0.7484  1.7172
  121OSM   H12B12744   4.455   2.392   6.243 -0.1224 -0.7887  0.9892
  121OSM    C1112745   4.547   2.412   6.061  0.5441  0.6484 -0.0930
  121OSM   H11A12746   4.524   2.414   5.953  1.1026 -2.5895 -0.2956
  121OSM   H11B12747   4.630   2.339   6.066  0.1274 -0.0979 -3.4065
  121OSM      P12748   4.673   2.550   6.238 -0.2011 -0.2524  0.5786
  121OSM    O1312749   4.768   2.440   6.236 -0.1097  0.0226  0.1546
  121OSM    O1412750   4.721   2.689   6.264 -0.0256 -0.1472  0.2540
  121OSM    O1112751   4.570   2.516   6.350  0.4329  0.4107  0.0703
  121OSM    O1212752   4.588   2.547   6.110  0.2501 -0.3852 -0.3710
  121OSM    C1S12753   4.608   2.434   6.460  0.5189 -0.2190 -0.4331
  121OSM    H1S12754   4.717   2.412   6.469  0.9381  1.7558 -0.4307
  121OSM    H1T12755   4.557   2.336   6.449 -1.0916  0.5284  0.2158
  121OSM     NF12756   4.608   2.424   6.707 -0.4388  0.7000 -0.1205
  121OSM    HNF12757   4.535   2.388   6.765  0.4097 -0.3445  0.3202
  121OSM    C2S12758   4.575   2.511   6.594 -0.4613  0.6229 -0.3082
  121OSM    H2S12759   4.641   2.600   6.604  1.0183 -0.4168 -0.5948
  121OSM    C3S12760   4.426   2.556   6.604  0.7974  0.0057 -0.4082
  121OSM    H3S12761   4.370   2.460   6.609 -0.4188  0.8045  2.4150
  121OSM     O312762   4.366   2.608   6.485  0.1560 -0.2713 -0.2190
  121OSM    HO312763   4.431   2.583   6.418 -0.4467 -0.0981 -0.8673
  121OSM    C4S12764   4.398   2.631   6.728  0.7545 -0.2362  0.1579
  121OSM    H4S12765   4.369   2.567   6.812  1.3771  0.4313  0.8793
  121OSM    C5S12766   4.393   2.761   6.740  0.0871  0.0967  0.6404
  121OSM    H5S12767   4.402   2.816   6.646  0.0401  0.6269  0.9456
  121OSM    C6S12768   4.357   2.841   6.859  0.3433 -0.1152  0.0417
  121OSM    H6S12769   4.249   2.870   6.865 -0.1846 -2.2408  1.4107
  121OSM    H6T12770   4.409   2.939   6.861  0.2485  0.0034 -1.9404
  121OSM    C7S12771   4.384   2.766   6.989  0.0376 -0.5499  0.0707
  121OSM    H7S12772   4.495   2.765   7.004  0.6008  5.3278 -2.4178
  121OSM    H7T12773   4.343   2.663   6.988 -0.3564 -0.4139  1.5421
  121OSM    C8S12774   4.331   2.830   7.115 -0.1570 -0.8496 -0.0109
  121OSM    H8S12775   4.233   2.785   7.142  0.7219 -2.6007  0.3338
  121OSM    H8T12776   4.306   2.936   7.093 -1.1212 -1.3020 -1.2096
  121OSM    C9S12777   4.419   2.820   7.238  0.1267  0.2699 -0.3501
  121OSM    H9S12778   4.510   2.881   7.218 -0.0166  1.5314  2.6786
  121OSM    H9T12779   4.465   2.719   7.249 -2.7094 -0.9179  1.0679
  121OSM   C10S12780   4.359   2.886   7.361  0.3859 -0.6021  0.6506
  121OSM   H10S12781   4.303   2.979   7.340  3.3594  1.2073  0.3905
  121OSM   H10T12782   4.436   2.921   7.433 -0.5794  2.5227  0.2003
  121OSM   C11S12783   4.272   2.798   7.449  0.1798 -0.0657 -0.4744
  121OSM   H11S12784   4.335   2.707   7.462  0.2915  0.2219  1.1444
  121OSM   H11T12785   4.192   2.739   7.399  0.9412 -0.4559 -1.2506
  121OSM   C12S12786   4.226   2.859   7.582 -0.8476  0.3374  0.2960
  121OSM   H12S12787   4.150   2.939   7.571 -1.5077 -0.3052  0.1015
  121OSM   H12T12788   4.316   2.907   7.627 -0.7452 -1.5828  2.2443
  121OSM   C13S12789   4.175   2.759   7.679  0.1578 -0.5530  0.4367
  121OSM   H13S12790   4.237   2.666   7.676 -0.4133 -0.9291  0.0653
  121OSM   H13T12791   4.073   2.729   7.646  0.8100 -0.9056 -1.3297
  121OSM   C14S12792   4.168   2.805   7.834  0.1613  1.0055  0.0420
  121OSM   H14S12793   4.099   2.892   7.846 -0.0647  0.9447 -0.7630
  121OSM   H14T12794   4.274   2.833   7.850  0.4291 -0.6098  1.1962
  121OSM   C15S12795   4.137   2.683   7.925 -0.6722  0.3102 -0.1042
  121OSM   H15S12796   4.185   2.591   7.885  0.3204 -0.8763  3.6125
  121OSM   H15T12797   4.027   2.667   7.914 -0.6447 -2.6412  3.0586
  121OSM   C16S12798   4.155   2.693   8.077  0.6097 -0.4355 -0.0762
  121OSM   H16S12799   4.255   2.732   8.104 -0.6074  3.0442 -0.2885
  121OSM   H16T12800   4.132   2.590   8.113  2.6252 -0.0791  2.3287
  121OSM   C17S12801   4.043   2.785   8.134  0.7297  0.3723 -0.2814
  121OSM   H17S12802   3.953   2.779   8.071 -0.5384  2.6822  1.2457
  121OSM   H17T12803   4.090   2.885   8.145  0.8079  0.4436 -1.2695
  121OSM   C18S12804   4.017   2.734   8.270  0.0444 -0.5066 -0.2700
  121OSM   H18S12805   3.998   2.625   8.265 -0.3096 -0.4226 -0.8335
  121OSM   H18T12806   3.926   2.783   8.312  0.3445 -1.0690  1.0396
  121OSM   H18U12807   4.096   2.754   8.345 -0.8943 -0.2953  0.6748
  121OSM    C1F12808   4.739   2.390   6.737  0.7745  0.8512  0.0226
  121OSM     OF12809   4.830   2.435   6.675 -0.4338 -0.1969 -0.1891
  121OSM    C2F12810   4.747   2.294   6.850  0.2085 -0.4472 -0.0486
  121OSM    H2F12811   4.672   2.213   6.839  0.5187 -0.8600  0.7414
  121OSM    H2G12812   4.731   2.357   6.940 -1.8522 -2.3350  0.9590
  121OSM    C3F12813   4.877   2.211   6.848 -0.4722 -0.1930  0.9304
  121OSM    H3F12814   4.979   2.254   6.858  0.9749 -3.4897  1.0372
  121OSM    H3G12815   4.879   2.156   6.751 -1.4081 -1.1313  1.4302
  121OSM    C4F12816   4.871   2.115   6.968 -0.1823  0.9786  0.0917
  121OSM    H4F12817   4.950   2.040   6.950 -0.3553  0.7771  0.1685
  121OSM    H4G12818   4.770   2.067   6.965  0.1145  0.3719 -0.1902
  121OSM    C5F12819   4.891   2.190   7.104 -0.2191  0.0119 -0.9132
  121OSM    H5F12820   4.791   2.228   7.134 -0.7293 -1.2648 -0.9685
  121OSM    H5G12821   4.954   2.281   7.096  1.2288 -0.8349  0.5667
  121OSM    C6F12822   4.922   2.102   7.221  0.1894 -0.0291  0.9814
  121OSM    H6F12823   5.013   2.040   7.203 -1.7507 -2.7593  0.1795
  121OSM    H6G12824   4.843   2.023   7.223  1.0273 -0.9798 -1.4078
  121OSM    C7F12825   4.944   2.182   7.354 -0.2338 -0.3578 -0.1786
  121OSM    H7F12826   4.861   2.250   7.383 -0.1638  0.2933 -1.4759
  121OSM    H7G12827   5.023   2.259   7.337 -2.3636  2.5039  2.2412
  121OSM    C8F12828   4.979   2.089   7.478 -0.3504  0.6801  0.2241
  121OSM    H8F12829   4.975   2.152   7.569  2.1328  3.2333 -1.3441
  121OSM    H8G12830   5.084   2.057   7.462 -1.1058 -1.7047 -0.0959
  121OSM    C9F12831   4.887   1.974   7.501 -0.3244 -0.8204  0.3336
  121OSM    H9F12832   4.876   1.910   7.412 -1.5510 -1.3244  0.8442
  121OSM   C10F12833   4.820   1.944   7.615  0.0240 -0.2170 -0.0541
  121OSM   H10F12834   4.756   1.855   7.623 -0.2272  0.1294  1.8916
  121OSM   C11F12835   4.832   2.013   7.749  0.5547  1.1074 -0.1536
  121OSM   H11F12836   4.740   1.983   7.805  0.2641 -0.6314 -1.5118
  121OSM   H11G12837   4.837   2.123   7.740  1.1610  1.0682 -0.3299
  121OSM   C12F12838   4.958   1.973   7.829 -0.4880  0.3274  0.6729
  121OSM   H12F12839   5.045   1.995   7.765 -1.2571 -0.9859 -0.8780
  121OSM   H12G12840   4.953   1.865   7.857 -0.5831  0.1188 -0.1247
  121OSM   C13F12841   4.973   2.047   7.966  0.3572  0.1833  0.5667
  121OSM   H13F12842   4.886   2.027   8.032  0.0321 -1.8776 -0.4211
  121OSM   H13G12843   4.971   2.150   7.926 -1.0031 -0.0277  0.0764
  121OSM   C14F12844   5.102   2.017   8.048 -0.2244  0.0585  0.0072
  121OSM   H14F12845   5.186   2.045   7.980  0.1948 -1.0453  0.0535
  121OSM   H14G12846   5.113   1.911   8.079  0.9627  0.3317  0.5546
  121OSM   C15F12847   5.109   2.098   8.173 -0.5261  0.3086 -0.4428
  121OSM   H15F12848   5.027   2.070   8.242  0.0955 -1.2421 -0.2924
  121OSM   H15G12849   5.099   2.206   8.152 -1.1027  1.1200  3.5430
  121OSM   C16F12850   5.245   2.071   8.252  0.4978 -1.0591  0.0314
  121OSM   H16F12851   5.321   2.121   8.188 -0.0145 -0.9376 -0.4843
  121OSM   H16G12852   5.259   1.961   8.250  1.2380 -1.0262  2.1020
  121OSM   C17F12853   5.255   2.122   8.397 -0.3205  1.0224 -0.0356
  121OSM   H17F12854   5.226   2.229   8.406 -1.1177  0.7245  1.1194
  121OSM   H17G12855   5.362   2.103   8.421 -0.4671 -1.3274 -1.1249
  121OSM   C18F12856   5.164   2.043   8.495  0.2826 -0.5464  0.1369
  121OSM   H18F12857   5.204   1.941   8.508  2.1481  0.2488  0.8466
  121OSM   H18G12858   5.064   2.036   8.447  2.1266  1.3703 -4.2903
  121OSM   H18H12859   5.156   2.100   8.590  1.2572 -1.2448  0.6474
  122OSM      N12860   3.068   4.615   5.951  0.5124 -0.7647  0.2555
  122OSM    C1512861   3.047   4.519   5.841 -0.9880 -0.1374 -0.2858
  122OSM   H15A12862   3.138   4.498   5.788 -1.5144 -0.1461 -1.1903
  122OSM   H15B12863   2.968   4.543   5.772 -0.3667  1.6766 -0.4144
  122OSM   H15C12864   3.010   4.426   5.881 -1.2722 -0.7133 -1.8840
  122OSM    C1412865   3.175   4.551   6.033  0.1409  0.8281 -0.1481
  122OSM   H14A12866   3.203   4.612   6.118 -0.0536 -2.6424  2.5346
  122OSM   H14B12867   3.264   4.517   5.981  0.2048 -2.8424  2.1761
  122OSM   H14C12868   3.131   4.459   6.069  0.7354  0.4643 -0.3401
  122OSM    C1312869   3.125   4.738   5.906  0.2057 -0.0248 -0.1320
  122OSM   H13A12870   3.224   4.731   5.864  1.0872  1.7042  1.5939
  122OSM   H13B12871   3.144   4.796   5.995 -1.7231 -1.3389  1.1998
  122OSM   H13C12872   3.056   4.779   5.833 -0.5953 -2.1103 -0.6123
  122OSM    C1212873   2.938   4.636   6.028 -0.3428  0.0246 -0.4377
  122OSM   H12A12874   2.862   4.657   5.954 -0.6411 -4.9841 -1.7902
  122OSM   H12B12875   2.958   4.718   6.095 -0.3579 -0.5927  0.3337
  122OSM    C1112876   2.880   4.525   6.117 -0.2134  0.4249  1.1433
  122OSM   H11A12877   2.803   4.563   6.188 -1.0329  2.0395 -0.5906
  122OSM   H11B12878   2.964   4.494   6.183  0.1660 -0.0413  0.4388
  122OSM      P12879   2.865   4.269   6.070 -0.0822 -0.2736 -0.8026
  122OSM    O1312880   2.753   4.186   6.022  0.3120 -0.0748  0.1500
  122OSM    O1412881   2.997   4.243   6.013 -0.4824  0.5767 -0.1394
  122OSM    O1112882   2.869   4.250   6.232  0.0807  0.0480 -0.2979
  122OSM    O1212883   2.829   4.413   6.039 -0.0544 -0.3355 -0.2843
  122OSM    C1S12884   2.983   4.196   6.296  0.1712  0.2243  0.3846
  122OSM    H1S12885   3.057   4.147   6.229 -0.7534 -2.5706  1.3349
  122OSM    H1T12886   2.940   4.114   6.357  0.1308  0.1279  0.2288
  122OSM     NF12887   3.152   4.213   6.463  0.2725 -0.7680 -0.7482
  122OSM    HNF12888   3.108   4.175   6.544  2.1080 -1.0350  0.1323
  122OSM    C2S12889   3.052   4.292   6.396  0.6172 -0.2564 -0.1819
  122OSM    H2S12890   3.104   4.379   6.350  1.7485 -1.9255 -2.1636
  122OSM    C3S12891   2.945   4.356   6.495  0.1217  0.2734 -0.5619
  122OSM    H3S12892   2.874   4.273   6.516  1.1451 -0.6537 -0.7005
  122OSM     O312893   2.874   4.462   6.432 -0.2096 -0.6446  0.4516
  122OSM    HO312894   2.824   4.418   6.363  1.5111 -0.5320 -0.9089
  122OSM    C4S12895   3.018   4.405   6.614  0.2347  0.4929 -0.1919
  122OSM    H4S12896   2.960   4.367   6.699 -0.3389  0.1914 -0.7088
  122OSM    C5S12897   3.104   4.507   6.633  0.0272 -0.9888  0.3002
  122OSM    H5S12898   3.126   4.574   6.549  2.2039  0.4413  1.9673
  122OSM    C6S12899   3.172   4.541   6.761  0.4037 -0.0748 -0.0002
  122OSM    H6S12900   3.153   4.645   6.796  1.8495 -0.2347  1.3362
  122OSM    H6T12901   3.280   4.540   6.736  0.1798  0.6259 -0.9851
  122OSM    C7S12902   3.138   4.451   6.879 -0.3912 -0.0031 -0.4939
  122OSM    H7S12903   3.156   4.344   6.858  0.7879  0.3313 -1.2068
  122OSM    H7T12904   3.028   4.461   6.895 -0.2089 -0.4260  1.1635
  122OSM    C8S12905   3.220   4.496   6.997 -0.0734  0.9504  0.1681
  122OSM    H8S12906   3.208   4.605   7.013 -2.4878  0.7907 -0.4635
  122OSM    H8T12907   3.328   4.479   6.974 -0.6618  1.2719 -3.0727
  122OSM    C9S12908   3.196   4.417   7.124 -0.0215 -0.2200 -0.4936
  122OSM    H9S12909   3.226   4.311   7.105 -1.4597 -0.4364 -1.6814
  122OSM    H9T12910   3.086   4.422   7.143 -0.4040  1.3490 -2.9013
  122OSM   C10S12911   3.279   4.485   7.244  0.4403 -0.1567  0.1184
  122OSM   H10S12912   3.245   4.591   7.250 -2.7924 -1.1646  0.4968
  122OSM   H10T12913   3.384   4.493   7.208  0.9678  0.6775  1.7587
  122OSM   C11S12914   3.278   4.415   7.382  0.1711 -0.8726  0.9798
  122OSM   H11S12915   3.361   4.458   7.443 -2.3082  3.8525  1.3048
  122OSM   H11T12916   3.282   4.305   7.369 -0.1441 -0.6757 -0.8402
  122OSM   C12S12917   3.140   4.438   7.454  0.4805 -0.6754 -0.3364
  122OSM   H12S12918   3.056   4.412   7.386  0.1618  1.5473 -0.8481
  122OSM   H12T12919   3.133   4.548   7.471 -1.7061 -0.8728  0.0937
  122OSM   C13S12920   3.125   4.375   7.587 -0.4182 -0.4420 -0.2780
  122OSM   H13S12921   3.116   4.264   7.586 -1.5222 -0.3770  0.6432
  122OSM   H13T12922   3.027   4.416   7.619 -0.2457 -2.1898  2.7125
  122OSM   C14S12923   3.242   4.416   7.686 -0.1105 -0.9651  0.1380
  122OSM   H14S12924   3.268   4.524   7.685  0.1556 -1.0341 -1.8505
  122OSM   H14T12925   3.329   4.355   7.651 -2.1552 -2.2139 -3.0343
  122OSM   C15S12926   3.215   4.361   7.824  0.1958  0.1233  0.2193
  122OSM   H15S12927   3.169   4.260   7.826  1.1681 -0.3185  1.4146
  122OSM   H15T12928   3.153   4.442   7.868 -1.6553 -0.1386 -1.8595
  122OSM   C16S12929   3.334   4.366   7.921  0.4004  0.1382  0.2480
  122OSM   H16S12930   3.398   4.455   7.901 -0.5462  1.1500  1.6283
  122OSM   H16T12931   3.397   4.278   7.894  0.3782  0.3369 -0.4705
  122OSM   C17S12932   3.293   4.354   8.068 -0.2178 -1.2223  0.1768
  122OSM   H17S12933   3.244   4.256   8.084 -0.4908 -1.0877  0.1651
  122OSM   H17T12934   3.211   4.426   8.092  1.3145  0.1450  1.4431
  122OSM   C18S12935   3.414   4.380   8.157  0.1288 -0.1394  0.6402
  122OSM   H18S12936   3.496   4.318   8.115  1.7089  2.4178 -0.1720
  122OSM   H18T12937   3.398   4.348   8.262  1.3617  0.6341  1.0762
  122OSM   H18U12938   3.466   4.477   8.169  0.1732 -0.3662  2.4112
  122OSM    C1F12939   3.255   4.158   6.409  0.5472 -0.3118 -0.2839
  122OSM     OF12940   3.291   4.181   6.297  0.2800  0.0782 -0.1402
  122OSM    C2F12941   3.324   4.051   6.485  0.2513 -0.6540 -0.1620
  122OSM    H2F12942   3.307   3.950   6.440 -0.3900  0.2689 -2.0313
  122OSM    H2G12943   3.287   4.043   6.589  0.9108 -0.8917  0.0585
  122OSM    C3F12944   3.479   4.082   6.488 -0.2459  0.7425  0.7370
  122OSM    H3F12945   3.523   4.087   6.386  0.2071  4.2101  1.0315
  122OSM    H3G12946   3.527   3.996   6.540  1.6598  0.5654 -1.2524
  122OSM    C4F12947   3.511   4.208   6.569 -0.1367 -0.4942 -0.5714
  122OSM    H4F12948   3.468   4.292   6.510  0.6089 -0.7356 -1.4682
  122OSM    H4G12949   3.618   4.223   6.596 -0.0702 -0.2531 -0.9702
  122OSM    C5F12950   3.447   4.222   6.703  0.5902 -0.3182 -0.2749
  122OSM    H5F12951   3.336   4.218   6.698  0.5012  2.1501 -0.7335
  122OSM    H5G12952   3.484   4.320   6.742  1.3718 -0.7153 -0.0087
  122OSM    C6F12953   3.478   4.109   6.801 -0.9726 -0.1150 -0.6707
  122OSM    H6F12954   3.434   4.017   6.755  0.8592 -1.5622  0.3868
  122OSM    H6G12955   3.433   4.119   6.902 -1.1771  0.5839 -0.8307
  122OSM    C7F12956   3.626   4.087   6.824  0.2933  0.6154 -0.2809
  122OSM    H7F12957   3.692   4.067   6.737  2.2176  1.3166  0.9764
  122OSM    H7G12958   3.626   3.991   6.879  0.6596 -0.4987 -2.1859
  122OSM    C8F12959   3.694   4.194   6.918  0.0623  0.0922  0.8518
  122OSM    H8F12960   3.633   4.192   7.011 -1.8294 -0.2277 -0.3606
  122OSM    H8G12961   3.668   4.294   6.876  0.5424 -0.1343  0.0225
  122OSM    C9F12962   3.840   4.180   6.954  0.1065  1.1321 -0.0001
  122OSM    H9F12963   3.912   4.178   6.871 -1.1396  1.5705 -1.1015
  122OSM   C10F12964   3.886   4.155   7.074  0.5738 -0.6776  0.7854
  122OSM   H10F12965   3.995   4.150   7.086  0.5719 -0.2966  0.9566
  122OSM   C11F12966   3.804   4.133   7.202 -0.1083  0.1662  0.3194
  122OSM   H11F12967   3.737   4.048   7.178 -0.0193  0.6740 -1.8606
  122OSM   H11G12968   3.742   4.223   7.222  1.3378  1.5147 -1.1177
  122OSM   C12F12969   3.885   4.104   7.323 -0.4058  0.3098 -0.4890
  122OSM   H12F12970   3.941   4.197   7.344 -1.8069  1.1502 -0.4755
  122OSM   H12G12971   3.972   4.036   7.306  0.1253  0.4820  1.4051
  122OSM   C13F12972   3.824   4.057   7.463 -0.1399  0.2087 -0.5188
  122OSM   H13F12973   3.787   3.952   7.466 -0.2179  0.2613  1.0094
  122OSM   H13G12974   3.732   4.120   7.470  0.4653  1.0643 -0.2548
  122OSM   C14F12975   3.925   4.069   7.579 -0.9769 -0.0217 -0.8660
  122OSM   H14F12976   3.961   4.171   7.605  0.2453 -0.3693 -1.1429
  122OSM   H14G12977   4.020   4.015   7.558 -0.5595  0.2110  0.3485
  122OSM   C15F12978   3.861   4.018   7.710  0.2992 -0.5592  0.5268
  122OSM   H15F12979   3.938   3.970   7.775  1.8994  0.2622 -0.7235
  122OSM   H15G12980   3.790   3.939   7.679  2.9739 -2.5754 -0.7132
  122OSM   C16F12981   3.787   4.132   7.787  0.1340  0.5749 -0.4687
  122OSM   H16F12982   3.730   4.186   7.708  1.3587 -0.3043 -1.9944
  122OSM   H16G12983   3.868   4.197   7.827  0.1782 -0.1497  0.6276
  122OSM   C17F12984   3.695   4.077   7.902 -0.7170  0.3419 -0.1947
  122OSM   H17F12985   3.629   3.992   7.873  3.0622 -2.6955 -0.3319
  122OSM   H17G12986   3.614   4.149   7.924 -1.7524 -0.3434 -1.6916
  122OSM   C18F12987   3.770   4.041   8.028 -0.0721 -0.2295 -0.1164
  122OSM   H18F12988   3.844   3.963   8.001  0.4180 -0.9994  3.2391
  122OSM   H18G12989   3.695   3.997   8.097  0.7825 -2.1604 -0.3905
  122OSM   H18H12990   3.830   4.118   8.082 -1.3885  0.6041  0.1870
  123OSM      N12991   1.517   0.061   6.390 -0.2352 -0.7889  0.3167
  123OSM    C1512992   1.610  -0.058   6.384  0.4374  0.3005  0.1393
  123OSM   H15A12993   1.710  -0.027   6.358  0.9788 -0.8324  0.8036
  123OSM   H15B12994   1.580  -0.130   6.309 -1.3687  2.2903 -1.1030
  123OSM   H15C12995   1.626  -0.111   6.477 -1.1020  0.8181  0.7144
  123OSM    C1412996   1.552   0.136   6.509 -0.1674 -0.5664  0.3072
  123OSM   H14A12997   1.502   0.231   6.513 -1.2036 -0.9439 -2.1052
  123OSM   H14B12998   1.657   0.159   6.513  0.1148 -1.4868 -1.1515
  123OSM   H14C12999   1.527   0.076   6.595  1.3428 -0.6540  0.6865
  123OSM    C1313000   1.542   0.140   6.270  0.2060  0.2980 -0.6247
  123OSM   H13A13001   1.650   0.139   6.262  0.1677 -2.8894 -1.6557
  123OSM   H13B13002   1.497   0.237   6.276  2.0731  1.1077  0.7337
  123OSM   H13C13003   1.501   0.101   6.178  2.0782 -0.3987 -1.1977
  123OSM    C1213004   1.371   0.035   6.400  0.3058  0.8631  0.1353
  123OSM   H12A13005   1.329   0.133   6.418 -1.5529  0.1678 -0.3353
  123OSM   H12B13006   1.347  -0.015   6.493 -2.7561 -0.4697 -1.2915
  123OSM    C1113007   1.298  -0.035   6.282 -0.3290 -0.0447 -0.1043
  123OSM   H11A13008   1.323   0.021   6.190  2.0001  0.1549  0.6122
  123OSM   H11B13009   1.189  -0.021   6.293 -0.4431  0.9721 -2.2861
  123OSM      P13010   1.308  -0.286   6.370  0.1160 -0.4587 -0.1026
  123OSM    O1313011   1.182  -0.360   6.342  0.6192 -0.3632  0.2820
  123OSM    O1413012   1.430  -0.372   6.393  0.6159  0.2298  0.4959
  123OSM    O1113013   1.273  -0.207   6.505  0.0503  0.4342  0.2078
  123OSM    O1213014   1.328  -0.174   6.262 -0.6946  0.0766  0.1101
  123OSM    C1S13015   1.342  -0.218   6.633  0.7715 -0.6646 -0.2449
  123OSM    H1S13016   1.439  -0.163   6.626  0.7893 -0.6976 -0.2604
  123OSM    H1T13017   1.369  -0.323   6.658 -1.4264 -1.0437  0.6172
  123OSM     NF13018   1.357  -0.145   6.863 -0.2036 -0.6856 -0.3992
  123OSM    HNF13019   1.367  -0.216   6.932  2.7550 -1.4187 -1.5150
  123OSM    C2S13020   1.254  -0.176   6.759  0.0113  0.1177 -0.3118
  123OSM    H2S13021   1.195  -0.085   6.732 -0.7260 -0.0716  0.6269
  123OSM    C3S13022   1.150  -0.289   6.795  0.0440 -0.8195 -0.0719
  123OSM    H3S13023   1.215  -0.378   6.810 -1.0521 -1.5160  0.5885
  123OSM     O313024   1.048  -0.309   6.691 -0.5488  0.1738  0.0511
  123OSM    HO313025   1.087  -0.252   6.624  1.6134 -0.6746  0.5438
  123OSM    C4S13026   1.076  -0.254   6.926 -0.0195 -1.0536 -0.3579
  123OSM    H4S13027   1.103  -0.322   7.008  2.5125 -0.3288 -0.5313
  123OSM    C5S13028   0.979  -0.158   6.934 -0.2943 -0.2503 -0.2201
  123OSM    H5S13029   0.953  -0.103   6.842 -2.0466 -3.7844 -1.9646
  123OSM    C6S13030   0.902  -0.119   7.056 -0.4673  0.0382 -0.4162
  123OSM    H6S13031   0.792  -0.129   7.043 -0.4746 -1.7718  0.8022
  123OSM    H6T13032   0.920  -0.010   7.064 -2.3703  0.1987  2.5571
  123OSM    C7S13033   0.942  -0.193   7.185 -0.6478  0.2705 -0.2682
  123OSM    H7S13034   1.051  -0.208   7.196 -0.7440  1.2417  2.4955
  123OSM    H7T13035   0.890  -0.291   7.192  3.1825 -1.8246  0.2150
  123OSM    C8S13036   0.906  -0.117   7.320  0.3823  0.1693 -0.0586
  123OSM    H8S13037   0.797  -0.100   7.308  0.1692 -0.4924  0.8832
  123OSM    H8T13038   0.962  -0.022   7.314  0.3222  0.1887 -0.3117
  123OSM    C9S13039   0.933  -0.195   7.446  0.2550  0.7930  0.7312
  123OSM    H9S13040   1.039  -0.229   7.440  0.1660  0.5561  0.5079
  123OSM    H9T13041   0.861  -0.280   7.455  2.1285 -1.2722 -2.6884
  123OSM   C10S13042   0.914  -0.108   7.573 -0.2413  0.5229  0.2459
  123OSM   H10S13043   0.826  -0.042   7.554 -0.8015 -0.8946 -2.3767
  123OSM   H10T13044   0.998  -0.036   7.577 -0.5390  0.8945 -0.0521
  123OSM   C11S13045   0.904  -0.158   7.716 -0.5395  0.3312  0.3456
  123OSM   H11S13046   1.003  -0.204   7.739 -0.6519  0.5885  1.3573
  123OSM   H11T13047   0.832  -0.242   7.717 -0.7390  0.4922 -0.4062
  123OSM   C12S13048   0.874  -0.052   7.819 -0.8181  0.4731  0.4969
  123OSM   H12S13049   0.789   0.006   7.776  1.0924  2.1722 -1.0645
  123OSM   H12T13050   0.965   0.011   7.824  0.3345 -1.1326  0.1677
  123OSM   C13S13051   0.849  -0.095   7.960 -0.0874 -0.1308  0.1083
  123OSM   H13S13052   0.920  -0.172   7.995 -0.5696 -0.3881  0.5267
  123OSM   H13T13053   0.759  -0.160   7.963  0.7015 -1.2994 -1.1665
  123OSM   C14S13054   0.842   0.021   8.055  0.2446  0.1660  1.0417
  123OSM   H14S13055   0.774   0.094   8.006 -0.8103 -0.8042  1.0237
  123OSM   H14T13056   0.942   0.070   8.058 -0.9197  2.6207  0.7938
  123OSM   C15S13057   0.807  -0.015   8.200 -0.0179 -0.5597  0.6849
  123OSM   H15S13058   0.886  -0.079   8.243  0.3328  1.0077  2.4615
  123OSM   H15T13059   0.712  -0.074   8.200 -0.2322 -0.2562 -1.9522
  123OSM   C16S13060   0.787   0.105   8.297 -0.1748  0.0784  0.4038
  123OSM   H16S13061   0.691   0.155   8.271  1.5616  2.5982 -1.4323
  123OSM   H16T13062   0.870   0.170   8.261 -0.1304 -0.6814 -0.8876
  123OSM   C17S13063   0.788   0.072   8.443  0.0796 -0.2922  0.5078
  123OSM   H17S13064   0.881   0.014   8.464  0.5743  0.2108 -0.2444
  123OSM   H17T13065   0.703   0.006   8.470 -1.1193  0.7193 -0.7346
  123OSM   C18S13066   0.770   0.201   8.523  0.4962 -0.0618  0.1283
  123OSM   H18S13067   0.854   0.266   8.490  0.2884 -0.8039 -1.9633
  123OSM   H18T13068   0.781   0.182   8.631 -1.2086 -2.3974 -0.0854
  123OSM   H18U13069   0.676   0.257   8.499  1.6328  1.8680  0.0317
  123OSM    C1F13070   1.435  -0.041   6.851  0.1293 -0.3392  0.5373
  123OSM     OF13071   1.409   0.042   6.767  0.1292  0.2751  0.5836
  123OSM    C2F13072   1.549  -0.026   6.942  0.1185 -0.2965  0.8674
  123OSM    H2F13073   1.618  -0.109   6.914  3.0402  1.9938  1.0430
  123OSM    H2G13074   1.523  -0.040   7.049 -1.2530 -2.2120  0.3174
  123OSM    C3F13075   1.629   0.107   6.917 -0.2216  0.6191 -0.3229
  123OSM    H3F13076   1.557   0.185   6.950 -1.1501  0.2872 -1.5351
  123OSM    H3G13077   1.645   0.129   6.810 -3.1120  0.1110 -0.9038
  123OSM    C4F13078   1.759   0.121   6.996 -0.2271  0.9012 -0.4130
  123OSM    H4F13079   1.794   0.227   7.000  0.4805  0.7136 -1.4345
  123OSM    H4G13080   1.837   0.066   6.939  0.8377  1.9124  0.0367
  123OSM    C5F13081   1.736   0.073   7.141 -0.0129 -0.3159 -0.6075
  123OSM    H5F13082   1.748  -0.037   7.137  0.3510 -0.3125  0.1523
  123OSM    H5G13083   1.630   0.095   7.164 -0.2900 -1.3918 -0.8474
  123OSM    C6F13084   1.829   0.128   7.254  0.4242 -0.1683  0.3540
  123OSM    H6F13085   1.828   0.239   7.243 -1.1518 -0.3117 -1.2472
  123OSM    H6G13086   1.934   0.093   7.259  0.6911  0.8468  2.2880
  123OSM    C7F13087   1.751   0.101   7.391 -0.1588  1.1349  0.8688
  123OSM    H7F13088   1.827   0.082   7.470 -0.2757 -0.9045  0.5276
  123OSM    H7G13089   1.691   0.009   7.376  3.6797 -1.3741  0.1621
  123OSM    C8F13090   1.659   0.216   7.441 -0.2967  0.2236  0.4210
  123OSM    H8F13091   1.580   0.238   7.366 -1.8061 -1.6852  1.3868
  123OSM    H8G13092   1.723   0.306   7.445 -3.3154  2.4968 -0.4015
  123OSM    C9F13093   1.589   0.180   7.569 -0.0031 -0.2872  0.4363
  123OSM    H9F13094   1.484   0.148   7.560  0.4797 -2.6218  2.7229
  123OSM   C10F13095   1.654   0.179   7.691  0.3174 -0.9427 -0.7188
  123OSM   H10F13096   1.594   0.156   7.780  3.5950 -0.2210  1.7343
  123OSM   C11F13097   1.791   0.212   7.734  0.2885 -0.0139  0.7325
  123OSM   H11F13098   1.804   0.316   7.773  0.7012  0.9273 -1.8450
  123OSM   H11G13099   1.856   0.214   7.644 -1.3355  0.5805 -0.4477
  123OSM   C12F13100   1.847   0.108   7.832  0.4177 -0.6011 -0.1228
  123OSM   H12F13101   1.955   0.133   7.829  0.0812  0.8043 -0.5963
  123OSM   H12G13102   1.827   0.006   7.792  1.5942  0.9688 -5.0037
  123OSM   C13F13103   1.801   0.131   7.976 -0.2075  0.2191 -0.0268
  123OSM   H13F13104   1.690   0.121   7.982 -0.6002  3.5696 -0.7484
  123OSM   H13G13105   1.817   0.238   7.999 -1.8295  0.6205 -0.7497
  123OSM   C14F13106   1.866   0.042   8.077 -0.2190 -0.0199  0.0619
  123OSM   H14F13107   1.975   0.039   8.054 -0.0196  1.0938  0.8321
  123OSM   H14G13108   1.835  -0.065   8.082 -0.1529  0.0488  2.1419
  123OSM   C15F13109   1.832   0.092   8.220 -0.8508  0.3197  0.5780
  123OSM   H15F13110   1.837   0.010   8.295 -1.4199  2.7100  3.3174
  123OSM   H15G13111   1.730   0.132   8.200 -0.7222 -0.5386 -2.1326
  123OSM   C16F13112   1.918   0.208   8.263 -0.1903 -0.1671  0.8834
  123OSM   H16F13113   1.907   0.284   8.183  2.1921  0.1762  0.8500
  123OSM   H16G13114   2.020   0.176   8.294 -0.0460 -1.4081 -0.8178
  123OSM   C17F13115   1.867   0.263   8.397 -0.1652  0.0067 -0.6313
  123OSM   H17F13116   1.924   0.228   8.486  0.0744  2.6622  0.2952
  123OSM   H17G13117   1.767   0.216   8.413  1.1845 -2.5572  0.6459
  123OSM   C18F13118   1.835   0.416   8.403  0.5314 -0.0131 -0.3430
  123OSM   H18F13119   1.785   0.445   8.498 -1.2968 -2.5172 -0.5189
  123OSM   H18G13120   1.766   0.450   8.323 -1.2988 -0.1794  1.1231
  123OSM   H18H13121   1.930   0.474   8.401  1.6693 -1.8543 -0.4120
  124OSM      N13122   2.476   2.876   5.770  0.3069  0.5904 -0.8459
  124OSM    C1513123   2.339   2.904   5.704  0.1407 -0.4505 -0.9225
  124OSM   H15A13124   2.276   2.968   5.763 -3.1104 -1.7793 -2.8030
  124OSM   H15B13125   2.277   2.817   5.686  0.7177 -0.8002 -1.2427
  124OSM   H15C13126   2.368   2.934   5.605 -0.1814 -0.6847 -1.0860
  124OSM    C1413127   2.535   2.766   5.696 -0.1105 -0.0359 -0.0540
  124OSM   H14A13128   2.631   2.737   5.735 -0.9570 -1.2945  1.1722
  124OSM   H14B13129   2.561   2.791   5.595  1.0924 -3.4969 -0.6767
  124OSM   H14C13130   2.460   2.688   5.693 -1.2520  1.0280  0.3203
  124OSM    C1313131   2.568   2.995   5.758 -0.1942 -0.2698  0.0037
  124OSM   H13A13132   2.668   2.960   5.737  0.1009  1.5906 -1.8325
  124OSM   H13B13133   2.564   3.057   5.847  0.0192  0.0597 -0.2173
  124OSM   H13C13134   2.536   3.058   5.676 -0.5047 -0.8472 -0.3272
  124OSM    C1213135   2.460   2.841   5.916  0.7561  0.1062 -0.2424
  124OSM   H12A13136   2.553   2.795   5.947  0.2649 -0.4777  0.3872
  124OSM   H12B13137   2.385   2.764   5.933  0.9708  0.3774  2.0914
  124OSM    C1113138   2.430   2.953   6.020  0.0253  0.1996  0.1072
  124OSM   H11A13139   2.417   2.901   6.117 -0.6005  1.6802  0.8175
  124OSM   H11B13140   2.337   3.005   5.990 -0.6414  0.0735  1.9027
  124OSM      P13141   2.667   3.038   6.125 -0.0484  0.1372 -0.2408
  124OSM    O1313142   2.729   2.912   6.097 -0.4234 -0.0053  0.6644
  124OSM    O1413143   2.747   3.155   6.090 -0.2924  0.3504  0.3385
  124OSM    O1113144   2.625   3.047   6.275 -0.3886  0.5209 -0.0445
  124OSM    O1213145   2.537   3.046   6.037 -0.3224 -0.2706 -0.2683
  124OSM    C1S13146   2.507   3.101   6.331  0.2526  0.1232 -0.3541
  124OSM    H1S13147   2.418   3.049   6.288 -0.5785 -0.3222  1.7854
  124OSM    H1T13148   2.490   3.206   6.302 -2.4155  0.4099  1.9902
  124OSM     NF13149   2.393   3.146   6.535  0.2203  0.3136  0.4673
  124OSM    HNF13150   2.393   3.237   6.577 -0.9040  0.6936 -0.3269
  124OSM    C2S13151   2.518   3.094   6.484 -1.1328  0.1063 -0.5753
  124OSM    H2S13152   2.536   2.988   6.513 -0.0209  0.7336  1.1279
  124OSM    C3S13153   2.642   3.179   6.522 -0.1050  0.4630  0.1252
  124OSM    H3S13154   2.620   3.282   6.487 -1.2355  0.7003  1.4981
  124OSM     O313155   2.767   3.131   6.472 -0.5779 -1.1176 -0.3934
  124OSM    HO313156   2.737   3.075   6.400  0.2237 -0.8685 -0.9250
  124OSM    C4S13157   2.647   3.194   6.674 -0.2639  0.0248 -0.2849
  124OSM    H4S13158   2.613   3.294   6.703  1.9415 -0.2312  3.5418
  124OSM    C5S13159   2.687   3.114   6.769 -0.0625 -0.7991 -0.3050
  124OSM    H5S13160   2.727   3.015   6.743 -1.6218 -1.0469 -1.9404
  124OSM    C6S13161   2.686   3.136   6.918  0.0521 -0.0050 -0.7576
  124OSM    H6S13162   2.788   3.172   6.941 -0.3209  0.1537  0.7249
  124OSM    H6T13163   2.666   3.041   6.972  0.5137  0.7485  0.7477
  124OSM    C7S13164   2.584   3.234   6.962  0.2349  0.0367  0.3615
  124OSM    H7S13165   2.481   3.196   6.946 -0.4969  1.4242  1.7453
  124OSM    H7T13166   2.595   3.329   6.905 -0.9201  0.3804  0.7148
  124OSM    C8S13167   2.596   3.264   7.116  0.7697 -0.7598 -0.2781
  124OSM    H8S13168   2.703   3.284   7.134  0.4300 -0.5054  1.5423
  124OSM    H8T13169   2.564   3.175   7.174 -2.8194 -1.0077 -2.4592
  124OSM    C9S13170   2.495   3.372   7.167 -0.4513 -0.3745 -0.5875
  124OSM    H9S13171   2.387   3.358   7.148 -1.0533  2.3952  0.5107
  124OSM    H9T13172   2.527   3.464   7.113  1.7214 -0.7682 -0.0243
  124OSM   C10S13173   2.497   3.377   7.321 -0.5076  0.4106 -0.2237
  124OSM   H10S13174   2.483   3.274   7.360 -1.8173  1.0712  1.0975
  124OSM   H10T13175   2.423   3.441   7.373 -2.8925  0.2335 -3.2220
  124OSM   C11S13176   2.631   3.432   7.377  1.1520 -0.5202 -0.4340
  124OSM   H11S13177   2.641   3.535   7.335 -3.4880  0.6567  1.0541
  124OSM   H11T13178   2.715   3.370   7.340  0.1718  0.3340 -4.3311
  124OSM   C12S13179   2.634   3.435   7.535  0.1086  0.5192 -0.0051
  124OSM   H12S13180   2.653   3.336   7.580  2.2146  1.3427  0.9334
  124OSM   H12T13181   2.535   3.476   7.564 -0.5273 -1.0855  0.1433
  124OSM   C13S13182   2.747   3.526   7.585 -0.5596 -0.6986  0.4562
  124OSM   H13S13183   2.725   3.545   7.692 -3.2700 -1.5143  0.0854
  124OSM   H13T13184   2.736   3.624   7.534  2.5644 -0.9655 -0.8181
  124OSM   C14S13185   2.886   3.461   7.554  0.3974  0.6321  0.6474
  124OSM   H14S13186   2.889   3.456   7.443  0.0246 -0.6811  0.6859
  124OSM   H14T13187   2.901   3.357   7.591 -0.6335 -0.0597 -0.8391
  124OSM   C15S13188   3.007   3.535   7.607  0.1966 -0.3117  0.6122
  124OSM   H15S13189   3.007   3.531   7.718 -1.5784  0.7843  0.6678
  124OSM   H15T13190   2.983   3.642   7.594 -1.1208 -0.4517  1.7522
  124OSM   C16S13191   3.134   3.493   7.533 -0.4981  0.1814 -0.2383
  124OSM   H16S13192   3.130   3.517   7.425  1.9758 -0.9391 -0.5920
  124OSM   H16T13193   3.153   3.384   7.532 -0.1686  0.2202 -3.9960
  124OSM   C17S13194   3.266   3.556   7.585  0.9273  0.8840  0.4355
  124OSM   H17S13195   3.257   3.666   7.572 -1.5890  0.5466 -0.9753
  124OSM   H17T13196   3.344   3.512   7.520  0.2543 -0.5801  0.5927
  124OSM   C18S13197   3.303   3.534   7.725 -0.3295 -0.5116  0.1424
  124OSM   H18S13198   3.330   3.429   7.749  0.6369 -0.8811 -2.3548
  124OSM   H18T13199   3.219   3.570   7.789  1.2386  0.5495  1.6425
  124OSM   H18U13200   3.386   3.598   7.761 -0.1943 -0.9576  0.6294
  124OSM    C1F13201   2.281   3.071   6.525 -0.2732 -0.0402 -0.0865
  124OSM     OF13202   2.286   2.955   6.483 -0.2817 -0.2629  0.0425
  124OSM    C2F13203   2.149   3.126   6.575 -0.4835 -0.1142 -0.5045
  124OSM    H2F13204   2.065   3.095   6.510 -0.5850  0.4895 -0.6641
  124OSM    H2G13205   2.157   3.236   6.568 -0.2484 -0.0212  1.1225
  124OSM    C3F13206   2.123   3.081   6.720 -0.1275  0.1093 -1.0380
  124OSM    H3F13207   2.196   3.131   6.787 -0.5564 -1.4081  0.5973
  124OSM    H3G13208   2.141   2.972   6.718  0.1879  0.1391 -0.0505
  124OSM    C4F13209   1.980   3.118   6.770  0.0831  0.0878  0.3278
  124OSM    H4F13210   1.911   3.035   6.743  0.9040  0.1541 -2.0897
  124OSM    H4G13211   1.952   3.210   6.715 -0.6161 -0.4816 -0.2913
  124OSM    C5F13212   1.975   3.160   6.913 -0.1030 -0.2778  0.1669
  124OSM    H5F13213   1.999   3.078   6.983  0.9654  0.6106  0.8730
  124OSM    H5G13214   1.871   3.189   6.940  0.3501  2.2505 -0.6677
  124OSM    C6F13215   2.072   3.278   6.954 -0.5722 -0.1537  0.0465
  124OSM    H6F13216   2.067   3.356   6.875 -1.4211 -0.2561 -0.0082
  124OSM    H6G13217   2.173   3.237   6.973  0.7100  1.7523 -2.4413
  124OSM    C7F13218   2.034   3.351   7.081 -0.4282 -0.2238  0.1858
  124OSM    H7F13219   1.941   3.405   7.055 -0.9059  0.6144  3.3981
  124OSM    H7G13220   2.112   3.429   7.097 -0.4898 -0.6518  2.7634
  124OSM    C8F13221   2.011   3.266   7.208 -0.4234  0.0963  0.0491
  124OSM    H8F13222   2.102   3.206   7.231 -0.2728 -0.5259 -2.0452
  124OSM    H8G13223   1.936   3.189   7.178 -1.3982  1.6506 -1.5963
  124OSM    C9F13224   1.969   3.354   7.325  0.3778  0.9171 -0.1140
  124OSM    H9F13225   1.896   3.433   7.303 -1.0825 -1.1047 -2.7584
  124OSM   C10F13226   2.008   3.348   7.456  0.1670 -0.1882 -0.2998
  124OSM   H10F13227   1.955   3.415   7.525  1.7713  0.7666  0.0234
  124OSM   C11F13228   2.112   3.258   7.515  0.0421 -0.1011  0.3189
  124OSM   H11F13229   2.200   3.242   7.449 -0.2645  1.3659 -0.4683
  124OSM   H11G13230   2.059   3.161   7.530  1.8719 -1.0464  0.7923
  124OSM   C12F13231   2.170   3.319   7.642 -1.1551  0.1471  0.8836
  124OSM   H12F13232   2.092   3.323   7.721 -0.5783  3.7674  1.3555
  124OSM   H12G13233   2.192   3.425   7.621  1.5903 -0.5096  0.2356
  124OSM   C13F13234   2.294   3.243   7.676  0.4296  0.2868  0.6561
  124OSM   H13F13235   2.351   3.210   7.587 -2.3352 -1.1267 -0.6491
  124OSM   H13G13236   2.258   3.147   7.721 -1.0488  1.5566  2.2285
  124OSM   C14F13237   2.365   3.315   7.783  0.5909  0.5792 -0.8645
  124OSM   H14F13238   2.300   3.329   7.872  1.0620 -0.1641 -0.3946
  124OSM   H14G13239   2.399   3.416   7.751 -1.0216  1.9697  1.6159
  124OSM   C15F13240   2.480   3.222   7.833 -0.3857 -0.2966 -0.5119
  124OSM   H15F13241   2.540   3.200   7.742  1.0875 -0.5802  0.5163
  124OSM   H15G13242   2.443   3.119   7.854 -0.8481 -0.5874 -2.6322
  124OSM   C16F13243   2.574   3.271   7.941  0.0935 -0.9051  0.0324
  124OSM   H16F13244   2.656   3.197   7.943 -0.9977 -2.3062 -2.9156
  124OSM   H16G13245   2.531   3.265   8.043 -1.7711 -0.0670 -0.6691
  124OSM   C17F13246   2.626   3.410   7.916  0.1702  0.1739  0.0491
  124OSM   H17F13247   2.552   3.490   7.939  0.7119  0.1242  2.0737
  124OSM   H17G13248   2.652   3.424   7.809 -1.7168 -2.7698 -0.8630
  124OSM   C18F13249   2.746   3.429   8.015  0.0667  0.1438  0.1437
  124OSM   H18F13250   2.710   3.440   8.120 -0.7750 -0.0300 -0.1210
  124OSM   H18G13251   2.808   3.516   7.985  0.0236 -0.2337 -1.0332
  124OSM   H18H13252   2.805   3.337   7.998  0.1444  0.5966 -2.1090
  125OSM      N13253   5.488   1.981   6.211 -0.1757  0.1476  0.1976
  125OSM    C1513254   5.468   1.879   6.099 -0.0401  0.1267  0.1889
  125OSM   H15A13255   5.558   1.821   6.109 -0.1949 -0.3897 -1.4422
  125OSM   H15B13256   5.470   1.919   5.999  0.7447 -0.9930 -0.2513
  125OSM   H15C13257   5.383   1.814   6.113  2.1845 -2.9029  0.0465
  125OSM    C1413258   5.618   2.053   6.190 -0.1537  0.7162 -0.7147
  125OSM   H14A13259   5.709   1.995   6.197  0.5573  2.0036  1.1077
  125OSM   H14B13260   5.629   2.135   6.260 -0.5661  1.5426 -1.6048
  125OSM   H14C13261   5.617   2.100   6.093  3.4222  2.1060 -0.1904
  125OSM    C1313262   5.374   2.081   6.209  0.4806 -0.2695 -0.4715
  125OSM   H13A13263   5.365   2.132   6.114 -1.3025  1.0743  0.3886
  125OSM   H13B13264   5.379   2.157   6.285 -1.9439  0.4492 -0.9810
  125OSM   H13C13265   5.276   2.038   6.225 -1.3486  3.5719 -0.7321
  125OSM    C1213266   5.489   1.903   6.341 -0.3062  1.3397 -0.3689
  125OSM   H12A13267   5.391   1.859   6.352  0.7489 -0.8657  0.3326
  125OSM   H12B13268   5.486   1.975   6.422 -1.3079 -2.5185  3.1768
  125OSM    C1113269   5.593   1.795   6.375  0.6724 -0.0660 -0.0540
  125OSM   H11A13270   5.590   1.762   6.482  0.7889 -0.8199 -0.2769
  125OSM   H11B13271   5.697   1.829   6.359  0.8905 -0.8097 -0.2342
  125OSM      P13272   5.468   1.580   6.320 -0.1819 -0.3085 -0.0624
  125OSM    O1313273   5.386   1.568   6.201  0.0351  0.7447  0.1109
  125OSM    O1413274   5.540   1.460   6.366  0.7682 -0.2553 -0.7912
  125OSM    O1113275   5.386   1.647   6.439 -0.2662 -0.5000 -0.1320
  125OSM    O1213276   5.580   1.682   6.289  0.0746  0.5569 -0.1586
  125OSM    C1S13277   5.310   1.571   6.533 -0.3149  0.2433 -0.5695
  125OSM    H1S13278   5.339   1.464   6.534 -1.1544  0.0116 -0.5801
  125OSM    H1T13279   5.204   1.569   6.499 -0.1926 -2.6592 -0.9240
  125OSM     NF13280   5.269   1.522   6.774  0.5161 -0.4711  0.5767
  125OSM    HNF13281   5.181   1.545   6.816  0.5442  0.9688 -0.1508
  125OSM    C2S13282   5.330   1.618   6.681  0.4479 -0.4698  0.3208
  125OSM    H2S13283   5.440   1.622   6.698  0.5789 -0.5289 -0.4857
  125OSM    C3S13284   5.272   1.758   6.708 -0.0655 -0.1888  0.0179
  125OSM    H3S13285   5.162   1.748   6.698  0.1038 -1.4554 -0.6551
  125OSM     O313286   5.311   1.854   6.607 -0.3531 -0.1378 -0.2245
  125OSM    HO313287   5.320   1.791   6.535  0.8654 -1.7109  1.2544
  125OSM    C4S13288   5.310   1.819   6.847  0.0843  1.1768  0.6142
  125OSM    H4S13289   5.232   1.792   6.919 -0.1075  0.8672  0.2904
  125OSM    C5S13290   5.426   1.876   6.889  0.7455 -0.3976  0.3694
  125OSM    H5S13291   5.508   1.865   6.816  1.2898  1.3855  0.6947
  125OSM    C6S13292   5.454   1.904   7.034 -0.0542  0.3809  0.4419
  125OSM    H6S13293   5.559   1.932   7.058  0.4765 -2.0906  1.1240
  125OSM    H6T13294   5.434   1.809   7.086  0.3009 -0.9880 -1.8706
  125OSM    C7S13295   5.359   2.014   7.090 -0.3186 -0.2502  0.6766
  125OSM    H7S13296   5.256   2.016   7.046  0.2301 -0.7677 -0.6737
  125OSM    H7T13297   5.403   2.113   7.067 -1.9644 -0.2854 -3.1917
  125OSM    C8S13298   5.319   2.010   7.237  0.1747  1.4301 -0.0490
  125OSM    H8S13299   5.291   1.907   7.267 -2.3086  1.8078 -0.8817
  125OSM    H8T13300   5.222   2.060   7.258 -0.8773 -0.2041 -0.8861
  125OSM    C9S13301   5.433   2.071   7.316  0.2720 -0.3156 -0.3579
  125OSM    H9S13302   5.481   2.156   7.263  0.2430 -0.2823 -0.3313
  125OSM    H9T13303   5.506   1.988   7.323  0.5790 -0.0944 -0.9038
  125OSM   C10S13304   5.385   2.097   7.457 -0.0226 -0.2016 -0.1051
  125OSM   H10S13305   5.349   2.000   7.499 -0.6664 -1.5832 -3.6725
  125OSM   H10T13306   5.304   2.173   7.452  1.3435  1.2401 -0.7783
  125OSM   C11S13307   5.493   2.166   7.538 -0.4014  0.1067  0.2231
  125OSM   H11S13308   5.519   2.260   7.485 -0.3585 -0.1647 -0.2400
  125OSM   H11T13309   5.585   2.104   7.541  1.4088  2.6492 -1.0025
  125OSM   C12S13310   5.479   2.208   7.685  0.6991  0.1168 -0.0426
  125OSM   H12S13311   5.392   2.274   7.703  0.8529 -0.0404  1.2998
  125OSM   H12T13312   5.566   2.274   7.708  0.0766  2.2099 -3.3379
  125OSM   C13S13313   5.472   2.087   7.776 -0.3242 -0.5983 -0.0248
  125OSM   H13S13314   5.569   2.034   7.769 -0.7597 -1.5244  0.8533
  125OSM   H13T13315   5.386   2.021   7.756  0.3401 -1.5583  0.2462
  125OSM   C14S13316   5.452   2.150   7.919 -0.3800 -0.0691 -0.5155
  125OSM   H14S13317   5.416   2.073   7.991  1.3717 -1.2224 -0.8430
  125OSM   H14T13318   5.374   2.228   7.930 -1.9763 -1.9450  2.0835
  125OSM   C15S13319   5.582   2.199   7.970 -0.9096 -0.3040  0.0421
  125OSM   H15S13320   5.625   2.272   7.898  0.8465  1.3778  2.7011
  125OSM   H15T13321   5.654   2.115   7.984  0.3859  0.3384 -2.4344
  125OSM   C16S13322   5.574   2.276   8.102  0.5241  0.7274 -0.0041
  125OSM   H16S13323   5.550   2.210   8.188  0.4253  0.3058 -0.3547
  125OSM   H16T13324   5.489   2.346   8.093 -0.1494 -0.3313 -2.4152
  125OSM   C17S13325   5.711   2.350   8.124  0.1074 -0.7684  0.1604
  125OSM   H17S13326   5.745   2.402   8.032  0.9588 -1.3353  0.1519
  125OSM   H17T13327   5.793   2.282   8.154 -0.0998 -1.6596 -1.2511
  125OSM   C18S13328   5.716   2.451   8.236 -0.3736 -0.8978 -0.0123
  125OSM   H18S13329   5.683   2.551   8.203  1.6874 -0.6904 -1.5703
  125OSM   H18T13330   5.823   2.473   8.256 -1.0194  0.0946  2.5117
  125OSM   H18U13331   5.667   2.415   8.329  0.2226 -0.4556  0.4742
  125OSM    C1F13332   5.314   1.397   6.784  1.0692  0.2638 -0.3929
  125OSM     OF13333   5.418   1.360   6.740 -0.1000  0.8798  0.0588
  125OSM    C2F13334   5.216   1.301   6.851  0.5661  0.0401 -0.1250
  125OSM    H2F13335   5.179   1.239   6.767 -1.0295 -0.5443  0.9976
  125OSM    H2G13336   5.125   1.355   6.884  0.8990  0.4989  0.0492
  125OSM    C3F13337   5.289   1.221   6.956  0.3148  0.4149 -0.4998
  125OSM    H3F13338   5.286   1.259   7.060 -0.2074  0.1990 -0.4359
  125OSM    H3G13339   5.399   1.215   6.939  0.2211 -1.0226 -0.6273
  125OSM    C4F13340   5.229   1.076   6.961  0.1095  0.0173  0.4547
  125OSM    H4F13341   5.225   1.024   6.863 -0.0864  0.8692  0.0106
  125OSM    H4G13342   5.125   1.088   6.999  0.2923  0.3524  0.8663
  125OSM    C5F13343   5.304   0.989   7.064 -0.0524 -0.2179  0.5372
  125OSM    H5F13344   5.414   0.992   7.044  0.1237 -1.0511  1.3150
  125OSM    H5G13345   5.278   0.882   7.052  0.2311 -0.1474 -0.7334
  125OSM    C6F13346   5.272   1.030   7.214 -0.1857 -0.3471  0.1558
  125OSM    H6F13347   5.163   1.040   7.234 -0.0472  2.7842 -0.4271
  125OSM    H6G13348   5.308   1.135   7.217  1.8308 -1.0422  1.0443
  125OSM    C7F13349   5.345   0.946   7.317 -0.0852 -0.1437  0.2816
  125OSM    H7F13350   5.444   0.911   7.282  0.4511  1.8597 -0.2486
  125OSM    H7G13351   5.289   0.854   7.344 -0.3179  0.2338  1.0983
  125OSM    C8F13352   5.379   1.019   7.450 -0.5192  0.1849 -0.8715
  125OSM    H8F13353   5.420   0.941   7.518 -1.5588  0.3372 -0.0655
  125OSM    H8G13354   5.287   1.059   7.498 -0.3076 -1.0984  0.6419
  125OSM    C9F13355   5.472   1.134   7.441 -0.5156 -1.1169 -0.1367
  125OSM    H9F13356   5.502   1.174   7.343 -0.2281 -0.7171  0.1179
  125OSM   C10F13357   5.541   1.197   7.546 -0.0995  0.5227  0.1239
  125OSM   H10F13358   5.616   1.273   7.519  2.2880 -0.7750  2.7585
  125OSM   C11F13359   5.522   1.158   7.689  0.1300  0.2077 -0.3431
  125OSM   H11F13360   5.626   1.152   7.726  0.6478 -0.0200 -1.8266
  125OSM   H11G13361   5.490   1.051   7.683  2.4783 -0.5513  0.3050
  125OSM   C12F13362   5.418   1.238   7.764 -0.4993 -0.1991  0.2017
  125OSM   H12F13363   5.312   1.208   7.749 -0.8608 -0.7813  3.5823
  125OSM   H12G13364   5.439   1.343   7.735  0.2456 -0.2731  0.4545
  125OSM   C13F13365   5.442   1.244   7.919  1.1515 -0.4991 -0.6651
  125OSM   H13F13366   5.362   1.307   7.966  0.3649 -0.9021 -1.4498
  125OSM   H13G13367   5.528   1.306   7.951  1.9689 -0.8237 -2.2243
  125OSM   C14F13368   5.445   1.100   7.978  0.3280  0.1483  0.1136
  125OSM   H14F13369   5.538   1.062   7.931  0.1910 -0.4690  0.3424
  125OSM   H14G13370   5.367   1.032   7.939  0.3140  1.5033 -2.3519
  125OSM   C15F13371   5.446   1.101   8.128 -0.0809 -0.0061  0.4224
  125OSM   H15F13372   5.484   1.198   8.168  2.0517 -1.8709  3.0788
  125OSM   H15G13373   5.521   1.025   8.159 -0.7972 -1.0854 -0.4418
  125OSM   C16F13374   5.304   1.081   8.183 -0.5264  0.0323  0.4426
  125OSM   H16F13375   5.268   0.977   8.166 -1.7880  0.6161 -0.4420
  125OSM   H16G13376   5.230   1.145   8.131  0.3871 -1.0080 -2.2072
  125OSM   C17F13377   5.295   1.108   8.335 -0.2341  0.3047 -0.2830
  125OSM   H17F13378   5.385   1.064   8.382 -0.5235  0.0317  0.0185
  125OSM   H17G13379   5.197   1.064   8.363  0.3783  0.1999  1.7589
  125OSM   C18F13380   5.307   1.253   8.371  1.0227  0.3251 -0.7017
  125OSM   H18F13381   5.218   1.310   8.337  0.9258  0.8332  0.3996
  125OSM   H18G13382   5.400   1.304   8.337  1.9520  0.6742  2.2919
  125OSM   H18H13383   5.296   1.274   8.479  0.3191 -1.5962 -0.3797
  126OSM      N13384   1.787   5.999   6.367 -0.4097 -0.0839 -0.1667
  126OSM    C1513385   1.871   6.106   6.288 -0.9387 -0.6528 -0.2406
  126OSM   H15A13386   1.952   6.136   6.353 -1.1969  1.0070 -0.6645
  126OSM   H15B13387   1.809   6.195   6.279 -0.9120 -0.6967 -0.8999
  126OSM   H15C13388   1.908   6.071   6.193 -1.7740  0.8906 -1.1532
  126OSM    C1413389   1.660   5.967   6.299 -0.3855 -0.5902  0.2340
  126OSM   H14A13390   1.592   5.915   6.366 -0.8408  1.4091  1.3766
  126OSM   H14B13391   1.675   5.906   6.211 -2.8815  0.4807 -0.9913
  126OSM   H14C13392   1.616   6.062   6.274 -0.4928 -0.2196  1.7815
  126OSM    C1313393   1.863   5.869   6.367 -0.9196  0.8112 -0.9359
  126OSM   H13A13394   1.966   5.897   6.387 -0.4463 -1.1080 -0.5973
  126OSM   H13B13395   1.862   5.837   6.264  1.8616  0.1352 -0.7995
  126OSM   H13C13396   1.820   5.793   6.431  0.4555  0.0461 -0.8902
  126OSM    C1213397   1.757   6.065   6.508 -0.4428 -0.2280  0.1781
  126OSM   H12A13398   1.691   6.004   6.567 -0.8049 -0.0384 -0.0306
  126OSM   H12B13399   1.697   6.152   6.485  2.3828  1.3614 -1.6306
  126OSM    C1113400   1.878   6.102   6.599  0.7181  0.7384  0.4402
  126OSM   H11A13401   1.941   6.014   6.625 -1.0418 -0.8491 -0.4949
  126OSM   H11B13402   1.822   6.128   6.692 -0.2173 -0.6804  0.2976
  126OSM      P13403   1.932   6.363   6.556  0.2039 -0.3288 -0.1685
  126OSM    O1313404   2.023   6.434   6.463 -0.2556 -0.4968 -0.0208
  126OSM    O1413405   1.788   6.405   6.552  0.0933 -0.0259  0.0886
  126OSM    O1113406   1.985   6.394   6.702 -0.0606 -0.1932 -0.0279
  126OSM    O1213407   1.950   6.207   6.535  0.0357 -0.8066  0.2301
  126OSM    C1S13408   1.961   6.304   6.812  0.1785  0.5686 -0.3029
  126OSM    H1S13409   2.016   6.207   6.806 -0.3579  0.2814 -0.6097
  126OSM    H1T13410   1.854   6.285   6.831  0.1413  1.9624  0.9602
  126OSM     NF13411   1.961   6.280   7.064 -0.4378  0.1361  0.1115
  126OSM    HNF13412   1.892   6.312   7.129 -0.7638 -0.5736  0.1198
  126OSM    C2S13413   2.000   6.369   6.952  0.3076 -1.2766  0.7103
  126OSM    H2S13414   2.110   6.381   6.949  0.5114 -2.4157  2.7726
  126OSM    C3S13415   1.935   6.509   6.978  0.1088  0.1746  0.9912
  126OSM    H3S13416   1.828   6.487   6.999 -0.1506 -0.6557 -1.0969
  126OSM     O313417   1.946   6.600   6.863  0.3249 -0.2881  0.3277
  126OSM    HO313418   1.987   6.550   6.793  0.8529 -0.4089  0.7239
  126OSM    C4S13419   1.987   6.566   7.107  0.1910 -0.0677  0.6001
  126OSM    H4S13420   1.919   6.549   7.192  0.0631 -1.2384  0.2760
  126OSM    C5S13421   2.098   6.637   7.111 -0.0025 -0.9357  0.5124
  126OSM    H5S13422   2.160   6.658   7.023 -0.8032  2.0468  0.6140
  126OSM    C6S13423   2.170   6.705   7.232  0.4289  0.8160  0.0430
  126OSM    H6S13424   2.158   6.815   7.229 -1.1804  0.6259 -0.6452
  126OSM    H6T13425   2.281   6.696   7.227  0.3233  0.3408 -1.7179
  126OSM    C7S13426   2.116   6.647   7.367 -0.5770  0.0781 -0.2482
  126OSM    H7S13427   2.120   6.536   7.366 -0.2097  0.0965 -0.6496
  126OSM    H7T13428   2.006   6.665   7.376 -0.3709  1.8021 -0.9911
  126OSM    C8S13429   2.194   6.696   7.493 -0.0995 -0.2071  0.2451
  126OSM    H8S13430   2.189   6.807   7.487  1.9638 -0.2074 -2.0797
  126OSM    H8T13431   2.300   6.672   7.470 -0.4110 -1.3675  0.0256
  126OSM    C9S13432   2.139   6.622   7.614  0.0581 -0.2792 -0.0163
  126OSM    H9S13433   2.144   6.512   7.601  0.6624 -0.1545 -0.8720
  126OSM    H9T13434   2.035   6.657   7.630 -0.1370 -1.6199  1.7289
  126OSM   C10S13435   2.224   6.655   7.734 -0.0287  0.1482 -1.0127
  126OSM   H10S13436   2.247   6.762   7.719  1.9953 -0.1224  0.0723
  126OSM   H10T13437   2.317   6.596   7.726 -0.5222 -1.0134  1.3252
  126OSM   C11S13438   2.153   6.622   7.867 -0.7119  0.1809  0.5133
  126OSM   H11S13439   2.163   6.513   7.889  0.4096 -0.1357 -1.4001
  126OSM   H11T13440   2.046   6.650   7.866 -1.2315 -1.6449  2.1561
  126OSM   C12S13441   2.221   6.695   7.986  0.0313 -0.4805 -0.0450
  126OSM   H12S13442   2.184   6.798   8.003 -0.0299 -0.5307  0.1316
  126OSM   H12T13443   2.326   6.699   7.950 -0.0108 -1.5770 -0.3082
  126OSM   C13S13444   2.216   6.619   8.121  0.6443 -0.5908 -0.7407
  126OSM   H13S13445   2.236   6.511   8.103 -0.6036 -0.6080 -2.0784
  126OSM   H13T13446   2.108   6.621   8.148  0.9628  1.2488  0.5080
  126OSM   C14S13447   2.298   6.673   8.243  0.2590 -0.0471  0.0239
  126OSM   H14S13448   2.268   6.779   8.227  1.8318  0.7453  2.0358
  126OSM   H14T13449   2.406   6.660   8.219 -0.1761 -1.0698 -1.4191
  126OSM   C15S13450   2.244   6.605   8.365  1.0863 -0.5236  0.0520
  126OSM   H15S13451   2.325   6.530   8.378  1.9672 -0.2349 -3.0991
  126OSM   H15T13452   2.158   6.537   8.350  1.1953 -0.8552  0.9450
  126OSM   C16S13453   2.214   6.682   8.496 -0.6368  0.9950  0.3717
  126OSM   H16S13454   2.298   6.751   8.519  2.1139 -1.9565 -0.3014
  126OSM   H16T13455   2.223   6.617   8.586 -1.2408  1.0277  0.4544
  126OSM   C17S13456   2.075   6.746   8.499  0.4809  0.3600 -0.0991
  126OSM   H17S13457   2.067   6.812   8.410  1.4389 -2.1541 -2.1105
  126OSM   H17T13458   2.070   6.811   8.589 -3.0869 -0.6114  0.4873
  126OSM   C18S13459   1.952   6.651   8.483 -0.5636  0.8116 -0.4520
  126OSM   H18S13460   1.942   6.622   8.376  0.7305 -3.6941  0.5559
  126OSM   H18T13461   1.856   6.698   8.514 -0.7615 -0.9688  1.7450
  126OSM   H18U13462   1.975   6.560   8.543  0.3898  0.7168 -0.9439
  126OSM    C1F13463   2.028   6.162   7.080  0.1466  0.7354 -0.0682
  126OSM     OF13464   2.104   6.121   6.991  0.1033  0.2521 -0.3765
  126OSM    C2F13465   2.005   6.084   7.206 -0.4332 -0.9050 -0.6661
  126OSM    H2F13466   1.898   6.059   7.219 -0.0859 -2.1725 -0.1911
  126OSM    H2G13467   2.029   6.153   7.290 -1.7792 -0.3858 -0.6974
  126OSM    C3F13468   2.092   5.954   7.223 -0.7302 -0.3491  0.3184
  126OSM    H3F13469   2.201   5.976   7.218 -0.0075 -3.4115  0.9694
  126OSM    H3G13470   2.071   5.898   7.130 -1.5120  0.2162  0.1525
  126OSM    C4F13471   2.064   5.872   7.345  0.2263 -0.2118  0.2967
  126OSM    H4F13472   2.117   5.775   7.335  0.9356 -0.2327  3.5509
  126OSM    H4G13473   1.954   5.860   7.354  0.0036  1.1482 -0.5140
  126OSM    C5F13474   2.121   5.927   7.471  0.4000  0.2498  0.0611
  126OSM    H5F13475   2.089   6.032   7.487 -1.9727 -0.4597  0.1794
  126OSM    H5G13476   2.231   5.936   7.464  0.5911  0.2107  2.5917
  126OSM    C6F13477   2.085   5.844   7.601  0.7619 -0.2754  0.0651
  126OSM    H6F13478   2.132   5.744   7.594 -0.9504 -1.0719 -0.2631
  126OSM    H6G13479   1.975   5.834   7.598  0.7404  0.1673 -0.7547
  126OSM    C7F13480   2.122   5.907   7.736  0.3959  0.2688  0.0642
  126OSM    H7F13481   2.086   6.012   7.735  1.4363  0.6343 -0.4202
  126OSM    H7G13482   2.232   5.896   7.752  0.4227 -1.0711 -0.9540
  126OSM    C8F13483   2.045   5.834   7.858 -0.1781 -0.0852 -0.0663
  126OSM    H8F13484   2.071   5.726   7.853 -0.1575 -0.0201 -1.3378
  126OSM    H8G13485   1.937   5.854   7.839 -0.2436 -0.9644 -0.6390
  126OSM    C9F13486   2.082   5.882   7.995 -0.4645 -0.3674 -0.0258
  126OSM    H9F13487   2.051   5.987   8.012 -0.1637 -0.4132  0.8307
  126OSM   C10F13488   2.153   5.826   8.092 -0.0270  0.3348 -0.2607
  126OSM   H10F13489   2.170   5.884   8.184 -1.6766 -0.7953  0.7629
  126OSM   C11F13490   2.224   5.690   8.080 -0.7078 -0.5524  0.1278
  126OSM   H11F13491   2.333   5.710   8.077 -0.3354 -2.5846 -0.1796
  126OSM   H11G13492   2.197   5.637   7.986 -1.2834 -1.1638  0.6377
  126OSM   C12F13493   2.195   5.607   8.210  0.3465  0.5602 -0.3478
  126OSM   H12F13494   2.087   5.579   8.201  0.7628 -0.8228 -1.2755
  126OSM   H12G13495   2.212   5.669   8.300  0.9656  0.6930 -0.5589
  126OSM   C13F13496   2.274   5.477   8.204  0.0349  0.0539  0.7599
  126OSM   H13F13497   2.381   5.501   8.186 -0.0003 -0.3074  0.0418
  126OSM   H13G13498   2.238   5.430   8.110  1.8142  0.1895 -0.0109
  126OSM   C14F13499   2.252   5.379   8.329  0.3563  0.4484 -0.5004
  126OSM   H14F13500   2.310   5.285   8.331  0.0705  0.2649 -0.6785
  126OSM   H14G13501   2.146   5.346   8.321  1.2841 -2.4644 -1.3552
  126OSM   C15F13502   2.284   5.442   8.462  0.3502 -0.2373  0.3311
  126OSM   H15F13503   2.210   5.519   8.492  0.0821  0.0886 -1.1105
  126OSM   H15G13504   2.383   5.492   8.458 -0.7790  2.0927  0.6587
  126OSM   C16F13505   2.280   5.346   8.581  0.3036 -0.2776 -0.1180
  126OSM   H16F13506   2.344   5.392   8.660  1.8202 -2.1438 -0.2153
  126OSM   H16G13507   2.341   5.260   8.545 -1.3974 -1.5854  0.0954
  126OSM   C17F13508   2.144   5.294   8.623  0.2429  0.0025  0.5725
  126OSM   H17F13509   2.080   5.384   8.627  0.8954  0.4443  1.3213
  126OSM   H17G13510   2.159   5.261   8.728  2.6630  1.1528  0.6189
  126OSM   C18F13511   2.083   5.171   8.544 -0.2875 -0.1410 -0.6204
  126OSM   H18F13512   1.986   5.141   8.589  0.8944 -1.2816  1.1985
  126OSM   H18G13513   2.146   5.080   8.546 -3.1254 -2.1713  0.1248
  126OSM   H18H13514   2.066   5.201   8.438 -1.4091 -1.1363 -0.7362
  127OSM      N13515   0.480   6.462   6.402 -0.0194  0.0397  0.8179
  127OSM    C1513516   0.403   6.336   6.415  0.6468  0.2405  0.4094
  127OSM   H15A13517   0.384   6.289   6.319 -1.3026 -2.2840  1.9745
  127OSM   H15B13518   0.309   6.360   6.462  1.3779  2.2007  0.9172
  127OSM   H15C13519   0.462   6.266   6.472  1.7993  1.2783  0.5254
  127OSM    C1413520   0.491   6.523   6.530 -0.1144  0.6459 -1.3534
  127OSM   H14A13521   0.517   6.628   6.520  0.9583  0.4385 -0.8069
  127OSM   H14B13522   0.567   6.477   6.591 -1.4433  0.2813  0.0564
  127OSM   H14C13523   0.399   6.522   6.586  0.6277 -0.2312 -0.1410
  127OSM    C1313524   0.620   6.436   6.348  0.6782  0.2225 -0.0151
  127OSM   H13A13525   0.666   6.532   6.335  0.7714 -0.0670 -1.9957
  127OSM   H13B13526   0.604   6.391   6.251  0.3351 -0.3634  0.3135
  127OSM   H13C13527   0.662   6.362   6.414  0.0553 -0.2939 -0.1847
  127OSM    C1213528   0.398   6.552   6.307  0.5391 -0.1684  0.6504
  127OSM   H12A13529   0.306   6.575   6.358 -0.3226  1.2824 -1.4927
  127OSM   H12B13530   0.393   6.500   6.212  1.1947  0.0837  0.4696
  127OSM    C1113531   0.460   6.685   6.254 -0.2359 -1.0941 -0.8376
  127OSM   H11A13532   0.392   6.709   6.170  0.3733 -1.3606 -1.4090
  127OSM   H11B13533   0.562   6.653   6.225  0.8926  0.0172  1.6953
  127OSM      P13534   0.527   6.929   6.297 -0.0775  0.0847 -0.1525
  127OSM    O1313535   0.668   6.909   6.257 -0.1297  0.3999  0.4631
  127OSM    O1413536   0.433   6.987   6.203  0.0123  0.2489 -0.4404
  127OSM    O1113537   0.518   7.011   6.432  0.0766  0.1139 -0.3159
  127OSM    O1213538   0.468   6.795   6.349 -0.8260 -0.3882 -0.2654
  127OSM    C1S13539   0.595   6.994   6.549  0.2730  0.5649  0.0579
  127OSM    H1S13540   0.698   6.957   6.526 -0.8350 -2.2690 -0.6201
  127OSM    H1T13541   0.557   6.907   6.607  0.3808  0.6823  0.3051
  127OSM     NF13542   0.682   7.096   6.758 -0.5985  0.2779 -0.2081
  127OSM    HNF13543   0.649   7.110   6.851  0.3769 -0.5116  0.2664
  127OSM    C2S13544   0.605   7.122   6.635  0.2470  0.2042 -0.4945
  127OSM    H2S13545   0.668   7.191   6.576  0.3897  1.8518  1.5421
  127OSM    C3S13546   0.455   7.189   6.660  0.1126  0.0191  0.2750
  127OSM    H3S13547   0.402   7.115   6.723 -1.0258 -0.2521 -0.9893
  127OSM     O313548   0.365   7.212   6.541 -0.2755 -0.1852 -0.1116
  127OSM    HO313549   0.403   7.153   6.476  1.2063  1.4903 -0.8250
  127OSM    C4S13550   0.474   7.318   6.740 -0.7384 -0.2213 -0.2044
  127OSM    H4S13551   0.452   7.310   6.847 -1.0651  0.4225 -0.2209
  127OSM    C5S13552   0.511   7.446   6.701 -0.1618  0.3226 -0.0242
  127OSM    H5S13553   0.538   7.463   6.595 -1.9593  0.5693 -0.4686
  127OSM    C6S13554   0.532   7.565   6.782 -0.2317 -0.1242 -0.6410
  127OSM    H6S13555   0.460   7.641   6.744 -0.2307  0.0741 -0.2572
  127OSM    H6T13556   0.631   7.611   6.761  0.2073  0.1645  1.8298
  127OSM    C7S13557   0.535   7.548   6.932 -0.0455 -0.1760 -0.2363
  127OSM    H7S13558   0.610   7.471   6.959 -1.1512 -0.9594  0.6625
  127OSM    H7T13559   0.429   7.522   6.950 -0.6259  1.7173 -0.7989
  127OSM    C8S13560   0.559   7.680   7.003  0.1367 -0.2690  0.6711
  127OSM    H8S13561   0.516   7.756   6.935  2.1945  0.4060  0.0864
  127OSM    H8T13562   0.667   7.703   7.018 -0.6468  3.3777  1.2228
  127OSM    C9S13563   0.496   7.683   7.150 -0.0255 -0.2840  0.1188
  127OSM    H9S13564   0.511   7.583   7.198  1.6426 -0.2677 -0.3226
  127OSM    H9T13565   0.392   7.719   7.140  0.9019  1.9067 -2.3048
  127OSM   C10S13566   0.557   7.790   7.245  0.7778 -0.0175 -1.0208
  127OSM   H10S13567   0.519   7.888   7.208 -1.1658  0.3774  1.8489
  127OSM   H10T13568   0.667   7.790   7.255  0.5414  0.3207  1.9317
  127OSM   C11S13569   0.500   7.789   7.390  0.2531 -0.5181 -0.1104
  127OSM   H11S13570   0.527   7.691   7.435  1.3582 -0.0437  0.2884
  127OSM   H11T13571   0.390   7.802   7.388  0.0214 -1.9949  1.7173
  127OSM   C12S13572   0.560   7.896   7.486 -0.0320  0.1073  0.3893
  127OSM   H12S13573   0.550   7.998   7.445 -1.1437  0.4672  1.5319
  127OSM   H12T13574   0.667   7.866   7.478  0.1596  0.5001  1.3756
  127OSM   C13S13575   0.518   7.885   7.633  0.0996  0.0792  0.0886
  127OSM   H13S13576   0.411   7.913   7.635 -0.0966 -0.7323  1.3506
  127OSM   H13T13577   0.569   7.967   7.689 -0.2252  0.2501  0.1317
  127OSM   C14S13578   0.539   7.749   7.701 -0.1140  0.1706 -0.1083
  127OSM   H14S13579   0.621   7.697   7.648  1.2219  1.3003  0.8307
  127OSM   H14T13580   0.441   7.697   7.709 -1.1869  2.3770  1.8358
  127OSM   C15S13581   0.607   7.775   7.844  0.3916  0.1321 -0.1490
  127OSM   H15S13582   0.697   7.840   7.837  0.5375  0.0275  0.7281
  127OSM   H15T13583   0.642   7.671   7.864  1.2312  0.8130  2.0356
  127OSM   C16S13584   0.506   7.823   7.947 -0.0814 -0.4128  0.4514
  127OSM   H16S13585   0.403   7.782   7.938 -2.2195  4.5901  0.1534
  127OSM   H16T13586   0.488   7.930   7.922 -1.2533 -0.6404  0.2884
  127OSM   C17S13587   0.547   7.831   8.090  0.1676 -0.1978 -0.5111
  127OSM   H17S13588   0.466   7.873   8.154  0.8170  2.1171 -1.1313
  127OSM   H17T13589   0.629   7.905   8.106 -0.6064  0.8249 -1.2073
  127OSM   C18S13590   0.612   7.702   8.144  0.5930 -0.6364 -0.2469
  127OSM   H18S13591   0.715   7.686   8.106  1.6647  2.6948  1.0821
  127OSM   H18T13592   0.550   7.612   8.124 -2.6800  1.4819  0.1134
  127OSM   H18U13593   0.618   7.705   8.255  0.6200  2.7760 -0.2917
  127OSM    C1F13594   0.812   7.072   6.744  0.0478  0.5985  0.7699
  127OSM     OF13595   0.872   7.065   6.637 -0.7510  0.3867  0.3874
  127OSM    C2F13596   0.876   7.049   6.873 -0.3014  0.2393 -0.4657
  127OSM    H2F13597   0.836   6.960   6.926 -2.6378  0.8261 -1.1884
  127OSM    H2G13598   0.862   7.143   6.931 -2.6839 -0.5073  0.2187
  127OSM    C3F13599   1.034   7.025   6.856  0.6910  0.5626 -0.7445
  127OSM    H3F13600   1.076   7.115   6.806 -0.3292 -0.0194 -2.6881
  127OSM    H3G13601   1.056   6.944   6.782 -1.0716 -0.5162 -0.1042
  127OSM    C4F13602   1.117   6.994   6.982 -0.3071 -0.2267  0.5156
  127OSM    H4F13603   1.216   7.040   6.958  0.9714 -1.9085  2.3347
  127OSM    H4G13604   1.125   6.884   6.996  0.3566 -0.0141  2.0284
  127OSM    C5F13605   1.069   7.054   7.117  0.3768 -0.1297 -0.2282
  127OSM    H5F13606   0.973   7.000   7.134 -0.2267  0.8244 -0.5988
  127OSM    H5G13607   1.046   7.161   7.100  1.1213  0.1290  0.3863
  127OSM    C6F13608   1.165   7.023   7.225  0.6676 -0.1569 -0.3221
  127OSM    H6F13609   1.119   7.051   7.323 -1.0252  2.3986 -1.7881
  127OSM    H6G13610   1.253   7.092   7.219  0.9028 -0.5099 -0.9400
  127OSM    C7F13611   1.212   6.884   7.226 -0.1627  0.4160  0.1842
  127OSM    H7F13612   1.265   6.854   7.134  0.1630 -1.0060  0.8131
  127OSM    H7G13613   1.138   6.805   7.252 -2.0370  0.4896 -4.4720
  127OSM    C8F13614   1.327   6.876   7.337 -0.8563  0.5587  0.8413
  127OSM    H8F13615   1.288   6.915   7.433 -2.5934 -1.4224  0.9762
  127OSM    H8G13616   1.406   6.950   7.313  1.3778 -1.8596  0.4106
  127OSM    C9F13617   1.393   6.734   7.355  0.0263  0.3376 -0.4016
  127OSM    H9F13618   1.475   6.716   7.284  0.2942  1.2413 -0.3241
  127OSM   C10F13619   1.369   6.646   7.457  0.1711  0.6843  0.1128
  127OSM   H10F13620   1.421   6.550   7.458 -1.2577 -0.2249 -4.2564
  127OSM   C11F13621   1.272   6.655   7.579  0.4373  0.3860 -0.5622
  127OSM   H11F13622   1.198   6.575   7.560 -0.6837  1.5517 -1.2457
  127OSM   H11G13623   1.224   6.755   7.572  2.7542  1.5103 -1.1148
  127OSM   C12F13624   1.351   6.669   7.713 -0.2115 -0.0796 -0.5759
  127OSM   H12F13625   1.408   6.765   7.708 -0.3013 -0.1166 -3.3346
  127OSM   H12G13626   1.426   6.587   7.722 -3.0376 -3.0028 -2.5670
  127OSM   C13F13627   1.260   6.683   7.833 -0.1410  0.1495  0.1009
  127OSM   H13F13628   1.181   6.604   7.836  1.4311 -1.4041  1.0211
  127OSM   H13G13629   1.194   6.771   7.819 -2.5511 -1.1926  2.3543
  127OSM   C14F13630   1.340   6.688   7.961 -0.7387  0.6100 -0.1758
  127OSM   H14F13631   1.432   6.750   7.948 -0.5850  0.6003  0.8650
  127OSM   H14G13632   1.375   6.588   7.992 -0.1474  0.3497 -1.6579
  127OSM   C15F13633   1.252   6.744   8.076 -0.0207 -0.2928 -0.0440
  127OSM   H15F13634   1.158   6.685   8.068 -0.1754 -0.0299 -0.1448
  127OSM   H15G13635   1.238   6.852   8.054 -0.4698 -0.1199  1.0755
  127OSM   C16F13636   1.320   6.736   8.213  0.8226  0.4281  0.5001
  127OSM   H16F13637   1.383   6.644   8.216 -1.4282 -1.1549  0.1482
  127OSM   H16G13638   1.248   6.732   8.297  2.2055 -3.5333  1.6147
  127OSM   C17F13639   1.411   6.860   8.248  0.4015  0.0615 -0.1245
  127OSM   H17F13640   1.360   6.958   8.254  0.8896  0.3898 -1.1704
  127OSM   H17G13641   1.484   6.877   8.165  1.1074  1.3802  0.7458
  127OSM   C18F13642   1.489   6.846   8.378  0.4763 -0.4192  0.1359
  127OSM   H18F13643   1.546   6.938   8.402 -0.9133  0.3852  0.3695
  127OSM   H18G13644   1.569   6.769   8.369 -0.0925 -1.0492  0.3539
  127OSM   H18H13645   1.420   6.824   8.462 -0.8981  0.5004 -0.7283
  128OSM      N13646   0.786   4.122   5.854  0.0638 -0.1302 -0.2017
  128OSM    C1513647   0.864   4.226   5.778  0.9567 -0.4256 -0.2019
  128OSM   H15A13648   0.956   4.182   5.741  0.8370 -1.9078  1.1996
  128OSM   H15B13649   0.897   4.309   5.839  1.2844 -1.9591  1.7387
  128OSM   H15C13650   0.811   4.266   5.693 -0.2861 -1.3979  0.0945
  128OSM    C1413651   0.724   4.028   5.762  0.1576  0.6271 -0.0751
  128OSM   H14A13652   0.679   3.944   5.812  0.1930  1.1168  0.7977
  128OSM   H14B13653   0.790   3.984   5.689  1.0055  1.5210  0.1479
  128OSM   H14C13654   0.645   4.066   5.698 -1.1978 -1.4292  0.3262
  128OSM    C1313655   0.873   4.054   5.950  0.2070  0.2085 -0.2767
  128OSM   H13A13656   0.902   4.118   6.032 -1.3685 -0.5026  0.8669
  128OSM   H13B13657   0.958   4.004   5.905 -0.6799 -1.7151  0.1114
  128OSM   H13C13658   0.811   3.974   5.989  1.3190  1.1908  3.6758
  128OSM    C1213659   0.674   4.189   5.924  0.4201 -0.9187  0.5611
  128OSM   H12A13660   0.615   4.229   5.843  1.2131 -0.3380  0.2646
  128OSM   H12B13661   0.720   4.264   5.987  2.1557 -1.3200 -0.2075
  128OSM    C1113662   0.596   4.114   6.032  0.2749  0.0825 -0.0665
  128OSM   H11A13663   0.526   4.186   6.079 -0.9697 -0.9390 -0.3303
  128OSM   H11B13664   0.654   4.069   6.116  0.7680  3.0087  1.2306
  128OSM      P13665   0.397   3.991   5.907 -0.0392 -0.1204  0.1660
  128OSM    O1313666   0.357   4.121   5.845  0.7553 -0.3259 -0.5820
  128OSM    O1413667   0.395   3.868   5.828 -0.2279 -0.1626 -0.0144
  128OSM    O1113668   0.294   3.971   6.026  0.1160 -0.3241 -0.2026
  128OSM    O1213669   0.533   4.001   5.974 -0.2288 -0.3153  0.0169
  128OSM    C1S13670   0.309   3.862   6.117  0.6201 -0.0840  0.2322
  128OSM    H1S13671   0.373   3.780   6.079  0.1941 -0.9294  1.3129
  128OSM    H1T13672   0.210   3.813   6.125 -0.2083  1.6494  0.9126
  128OSM     NF13673   0.388   3.806   6.345  0.0330  0.0970 -0.5187
  128OSM    HNF13674   0.312   3.778   6.403 -0.2677 -0.8520 -1.3407
  128OSM    C2S13675   0.350   3.915   6.258 -0.5248  0.2935  0.4321
  128OSM    H2S13676   0.436   3.985   6.246  0.4858 -0.7322  1.5241
  128OSM    C3S13677   0.230   4.010   6.309  0.0698 -0.3113 -0.2890
  128OSM    H3S13678   0.137   3.951   6.326 -0.7743  1.0760 -0.0204
  128OSM     O313679   0.192   4.107   6.212  0.5440 -0.2402 -0.1157
  128OSM    HO313680   0.244   4.075   6.138 -1.7517  0.3711 -2.0582
  128OSM    C4S13681   0.274   4.082   6.434 -0.7027 -0.7001 -0.3870
  128OSM    H4S13682   0.265   4.016   6.521 -0.1113  0.4398  0.5649
  128OSM    C5S13683   0.336   4.203   6.452 -0.6006  0.1111 -0.7966
  128OSM    H5S13684   0.386   4.256   6.370  0.3088  0.0007 -0.3117
  128OSM    C6S13685   0.385   4.256   6.585  0.4093  0.2597 -0.1830
  128OSM    H6S13686   0.347   4.361   6.593 -0.0874  0.0284  0.5762
  128OSM    H6T13687   0.496   4.255   6.577  0.3509 -2.2273 -1.1008
  128OSM    C7S13688   0.354   4.189   6.716 -0.1365 -0.1032  0.0392
  128OSM    H7S13689   0.398   4.091   6.743  0.3036  0.6050  1.9451
  128OSM    H7T13690   0.246   4.165   6.712 -0.4360  1.1716  0.4065
  128OSM    C8S13691   0.377   4.278   6.831  0.4153 -0.3113 -0.5127
  128OSM    H8S13692   0.367   4.387   6.811  2.4351 -0.4895 -2.7496
  128OSM    H8T13693   0.476   4.258   6.879  0.4439 -1.6528 -1.1152
  128OSM    C9S13694   0.278   4.267   6.950  0.0361 -0.0243 -0.1119
  128OSM    H9S13695   0.245   4.163   6.972  1.5519  0.3186  4.1925
  128OSM    H9T13696   0.188   4.320   6.911 -0.9333 -1.7702 -0.2981
  128OSM   C10S13697   0.340   4.317   7.084 -0.1503 -0.6100 -0.7268
  128OSM   H10S13698   0.362   4.426   7.086 -2.1272 -0.1830 -1.1192
  128OSM   H10T13699   0.441   4.271   7.078  0.6530  0.9902  0.2400
  128OSM   C11S13700   0.265   4.252   7.203 -0.0488 -0.9928  0.3667
  128OSM   H11S13701   0.312   4.153   7.218  1.3976 -0.2546  0.7212
  128OSM   H11T13702   0.163   4.228   7.166 -0.3708  0.7261  0.1102
  128OSM   C12S13703   0.275   4.328   7.338  0.5155 -0.1849 -0.3746
  128OSM   H12S13704   0.221   4.421   7.313  1.0647  0.3993  0.6150
  128OSM   H12T13705   0.380   4.348   7.367 -0.6823  1.4804  2.9691
  128OSM   C13S13706   0.205   4.253   7.457  0.2569  0.6157  0.3295
  128OSM   H13S13707   0.245   4.149   7.460  2.7975  1.6097  1.6326
  128OSM   H13T13708   0.098   4.244   7.428  0.8294 -0.7147 -1.4938
  128OSM   C14S13709   0.223   4.307   7.595  0.2458  1.0549 -1.0398
  128OSM   H14S13710   0.152   4.393   7.594  0.2640  1.0679 -1.2731
  128OSM   H14T13711   0.327   4.347   7.604  1.3679 -1.2113 -3.4389
  128OSM   C15S13712   0.190   4.212   7.712  0.1807 -0.2087  0.8522
  128OSM   H15S13713   0.246   4.119   7.689 -0.1849 -0.2547  0.1388
  128OSM   H15T13714   0.081   4.191   7.719  0.3257 -0.7395  1.4846
  128OSM   C16S13715   0.232   4.258   7.857 -0.2737  0.5828  0.5571
  128OSM   H16S13716   0.185   4.203   7.941  0.3302  1.3988  1.4291
  128OSM   H16T13717   0.203   4.364   7.870 -1.7793  0.3441 -0.6605
  128OSM   C17S13718   0.382   4.270   7.863 -0.0668 -0.0393 -0.4306
  128OSM   H17S13719   0.422   4.354   7.803  2.4645 -0.0895  1.1022
  128OSM   H17T13720   0.426   4.172   7.832 -0.8341 -1.3730  2.5398
  128OSM   C18S13721   0.427   4.290   8.013  0.5200  0.1054  0.5155
  128OSM   H18S13722   0.411   4.197   8.072 -0.5326 -0.2485 -0.2934
  128OSM   H18T13723   0.379   4.380   8.057 -1.0071  0.5657 -1.9577
  128OSM   H18U13724   0.536   4.311   8.005  0.1774  1.6507 -0.2365
  128OSM    C1F13725   0.499   3.729   6.333 -0.1209 -0.0722 -0.0812
  128OSM     OF13726   0.584   3.760   6.249 -0.2683  0.2558 -0.0667
  128OSM    C2F13727   0.508   3.617   6.427 -0.7945 -0.1673 -0.0557
  128OSM    H2F13728   0.504   3.520   6.373 -1.6091 -0.2319  0.1260
  128OSM    H2G13729   0.422   3.605   6.496 -1.4550 -1.3771 -1.0793
  128OSM    C3F13730   0.639   3.621   6.501  0.3491 -0.0375  0.0326
  128OSM    H3F13731   0.729   3.609   6.437 -0.9710  0.4533 -1.9487
  128OSM    H3G13732   0.637   3.535   6.572 -2.4483  0.3360  0.4767
  128OSM    C4F13733   0.659   3.741   6.593  0.5454 -0.5252  0.0920
  128OSM    H4F13734   0.562   3.755   6.646  1.3825 -0.5980  1.6895
  128OSM    H4G13735   0.653   3.841   6.545  0.6722 -0.0577  1.0426
  128OSM    C5F13736   0.777   3.739   6.692 -0.7577 -0.6697  0.6716
  128OSM    H5F13737   0.866   3.765   6.631 -2.6030  1.8083 -1.0789
  128OSM    H5G13738   0.797   3.640   6.738 -1.2900  0.3878  3.3085
  128OSM    C6F13739   0.768   3.847   6.798 -0.6123 -0.1689  0.1569
  128OSM    H6F13740   0.710   3.931   6.753 -1.3134 -0.4267  0.5806
  128OSM    H6G13741   0.868   3.891   6.822  0.0353 -1.2060 -0.5918
  128OSM    C7F13742   0.697   3.804   6.934 -1.1317 -0.2831  0.0770
  128OSM    H7F13743   0.755   3.732   6.995 -1.2767  0.3369  0.9603
  128OSM    H7G13744   0.608   3.752   6.893  0.9485 -2.2435 -2.1186
  128OSM    C8F13745   0.655   3.923   7.026  0.2593  0.5415  0.4571
  128OSM    H8F13746   0.569   3.882   7.083  1.5750 -0.7322  1.5302
  128OSM    H8G13747   0.602   3.997   6.961  0.4672 -1.0248 -1.5515
  128OSM    C9F13748   0.757   3.991   7.116 -0.3799  0.1247 -0.1269
  128OSM    H9F13749   0.863   3.967   7.102 -0.8260 -1.0856 -1.4520
  128OSM   C10F13750   0.733   4.065   7.228 -0.0325  0.5374  0.8245
  128OSM   H10F13751   0.811   4.126   7.275 -2.0747  3.6197  0.3637
  128OSM   C11F13752   0.601   4.112   7.280  0.0006  0.5406 -0.2378
  128OSM   H11F13753   0.524   4.069   7.213 -1.0915  0.0347  1.3040
  128OSM   H11G13754   0.591   4.223   7.276  2.2254  0.8760  2.1757
  128OSM   C12F13755   0.576   4.053   7.423  0.8495 -0.3579 -0.4110
  128OSM   H12F13756   0.608   3.947   7.429  1.4008 -0.1946 -0.4667
  128OSM   H12G13757   0.467   4.065   7.445  1.1136  1.0867  0.1655
  128OSM   C13F13758   0.651   4.131   7.529 -0.6502  0.0062  0.2847
  128OSM   H13F13759   0.598   4.227   7.542 -1.2050 -0.1552 -0.7223
  128OSM   H13G13760   0.757   4.146   7.502 -0.5252  0.6057  1.0988
  128OSM   C14F13761   0.649   4.050   7.659 -0.1913 -0.2087  0.4694
  128OSM   H14F13762   0.699   3.953   7.638  0.0538 -0.2635  1.2904
  128OSM   H14G13763   0.548   4.043   7.704 -1.0931 -0.8574 -1.6106
  128OSM   C15F13764   0.732   4.132   7.771  0.1729  0.2026  0.5259
  128OSM   H15F13765   0.691   4.234   7.786  0.0109  0.4869 -1.7526
  128OSM   H15G13766   0.830   4.151   7.724 -0.5621  0.1930 -1.0188
  128OSM   C16F13767   0.735   4.064   7.913 -0.3436 -0.5302  0.0752
  128OSM   H16F13768   0.790   3.969   7.898  0.8668  0.3452 -1.1762
  128OSM   H16G13769   0.627   4.052   7.938 -0.4388 -0.7954 -0.4535
  128OSM   C17F13770   0.799   4.155   8.022  0.8718  0.2200  0.1169
  128OSM   H17F13771   0.736   4.246   8.038  0.6008 -0.4287  3.0466
  128OSM   H17G13772   0.902   4.186   7.994  1.2561 -2.1730 -1.2849
  128OSM   C18F13773   0.806   4.085   8.164  0.1840  0.0860  0.4809
  128OSM   H18F13774   0.826   3.978   8.142  0.6379  0.2993 -0.1581
  128OSM   H18G13775   0.713   4.081   8.224  0.6081  0.5409  1.1775
  128OSM   H18H13776   0.893   4.124   8.222  0.6834  0.5436 -0.5524
  129OSM      N13777   5.796   5.899   5.987  0.0746 -0.2694 -0.7383
  129OSM    C1513778   5.937   5.860   5.955 -0.3443 -0.6151  0.2143
  129OSM   H15A13779   5.947   5.849   5.848  2.7099 -1.7592  0.5572
  129OSM   H15B13780   5.963   5.761   5.989  1.7237 -0.1645  0.0323
  129OSM   H15C13781   6.020   5.924   5.981  0.8753 -0.5777 -3.5152
  129OSM    C1413782   5.696   5.793   5.934  0.0987 -0.4145  0.5678
  129OSM   H14A13783   5.593   5.819   5.955 -0.6567 -1.8848 -1.2524
  129OSM   H14B13784   5.718   5.697   5.979 -2.1784 -0.5025  1.5720
  129OSM   H14C13785   5.702   5.791   5.826  0.5278 -0.6759  0.5938
  129OSM    C1313786   5.779   5.897   6.141 -0.0532  0.3573  0.0061
  129OSM   H13A13787   5.836   5.973   6.193 -0.8595 -0.6658  2.4451
  129OSM   H13B13788   5.814   5.799   6.171  1.8919  1.9730  3.3475
  129OSM   H13C13789   5.674   5.906   6.165 -0.5973 -2.3437 -1.1802
  129OSM    C1213790   5.758   6.032   5.927 -0.7808  0.7401 -0.2700
  129OSM   H12A13791   5.655   6.054   5.948 -1.0982 -0.3384 -0.6863
  129OSM   H12B13792   5.772   6.030   5.820  0.9010 -0.1466 -0.0509
  129OSM    C1113793   5.834   6.155   5.991 -0.0350 -0.0274  0.0426
  129OSM   H11A13794   5.824   6.248   5.932  0.2690 -0.4012 -0.6079
  129OSM   H11B13795   5.940   6.121   5.993 -0.0248  0.0257  1.0961
  129OSM      P13796   5.900   6.281   6.218 -0.0598  0.0074 -0.0595
  129OSM    O1313797   6.009   6.198   6.269  0.3146  0.3502  0.1694
  129OSM    O1413798   5.939   6.399   6.141  0.1527 -0.7754  0.1340
  129OSM    O1113799   5.815   6.327   6.346 -0.2245  0.1040 -0.4638
  129OSM    O1213800   5.793   6.191   6.128  0.3731 -0.0435 -0.0105
  129OSM    C1S13801   5.727   6.225   6.394  0.2610  0.7861 -0.8429
  129OSM    H1S13802   5.775   6.130   6.428 -4.8017 -2.7544 -3.0176
  129OSM    H1T13803   5.653   6.197   6.316 -0.4792  0.5930 -0.0786
  129OSM     NF13804   5.577   6.175   6.577  0.1379 -0.0454  0.6628
  129OSM    HNF13805   5.479   6.164   6.567  0.0433  2.4274 -1.7148
  129OSM    C2S13806   5.640   6.286   6.502  0.2603 -0.1032  0.1926
  129OSM    H2S13807   5.707   6.339   6.573 -0.5876 -1.6840  2.2507
  129OSM    C3S13808   5.534   6.393   6.441  0.3510  0.1196 -0.3557
  129OSM    H3S13809   5.460   6.336   6.381 -0.3715  0.1795  0.4748
  129OSM     O313810   5.588   6.489   6.350 -0.1747  0.4660  0.3103
  129OSM    HO313811   5.679   6.463   6.332  0.3562  2.2838  0.2669
  129OSM    C4S13812   5.458   6.460   6.557 -0.1601 -0.0236  0.3726
  129OSM    H4S13813   5.522   6.502   6.637  1.6447 -3.6578  0.9318
  129OSM    C5S13814   5.330   6.455   6.584 -0.4517  0.8141  0.2022
  129OSM    H5S13815   5.256   6.404   6.521  0.3651 -1.1081  0.7807
  129OSM    C6S13816   5.266   6.519   6.698 -0.4608 -0.7213 -0.5059
  129OSM    H6S13817   5.197   6.590   6.649  1.8090  0.8366 -1.5657
  129OSM    H6T13818   5.339   6.570   6.766 -3.3712  2.2747  0.4910
  129OSM    C7S13819   5.198   6.407   6.793  0.9104  0.1880  0.7626
  129OSM    H7S13820   5.289   6.348   6.819  0.5060 -0.8331 -0.0936
  129OSM    H7T13821   5.143   6.333   6.730  1.8323  1.4773 -1.6404
  129OSM    C8S13822   5.120   6.447   6.911 -0.0647  0.4789 -0.5975
  129OSM    H8S13823   5.169   6.511   6.987 -1.0527 -1.0674  1.4053
  129OSM    H8T13824   5.094   6.357   6.971  0.7864  0.1072 -0.7767
  129OSM    C9S13825   4.980   6.510   6.886  0.2070 -0.0753  0.5432
  129OSM    H9S13826   4.917   6.453   6.815  0.0101  0.5724  0.2005
  129OSM    H9T13827   4.989   6.611   6.842 -2.1376  0.0320  0.2521
  129OSM   C10S13828   4.894   6.502   7.014 -0.5316 -0.4938 -0.0374
  129OSM   H10S13829   4.966   6.503   7.098  3.1822  1.2916 -3.0885
  129OSM   H10T13830   4.857   6.398   7.027  1.2223 -1.3903 -1.8965
  129OSM   C11S13831   4.783   6.612   7.019 -0.2444 -0.3551  0.0525
  129OSM   H11S13832   4.749   6.621   6.914  0.6627  0.6249 -0.1617
  129OSM   H11T13833   4.829   6.710   7.042 -0.6848  0.3705 -2.0558
  129OSM   C12S13834   4.661   6.580   7.110 -0.0976  0.2549  0.4476
  129OSM   H12S13835   4.604   6.498   7.062 -1.0648  1.9942 -1.4732
  129OSM   H12T13836   4.609   6.678   7.114  0.3417  0.5460 -0.8585
  129OSM   C13S13837   4.692   6.537   7.254  0.2819 -0.5426 -0.4587
  129OSM   H13S13838   4.764   6.452   7.254  1.2535  0.2588 -1.8183
  129OSM   H13T13839   4.602   6.497   7.305  2.1948 -0.7393  2.9192
  129OSM   C14S13840   4.746   6.656   7.338  0.2875 -0.5362 -0.7105
  129OSM   H14S13841   4.661   6.727   7.347 -0.5924 -1.5120 -1.1229
  129OSM   H14T13842   4.830   6.689   7.274  1.9949  1.5230  2.4253
  129OSM   C15S13843   4.799   6.603   7.473 -0.7041 -0.6847  0.3603
  129OSM   H15S13844   4.880   6.530   7.456  2.7369  2.6425  1.6771
  129OSM   H15T13845   4.718   6.558   7.534  0.6125 -0.3913  2.3736
  129OSM   C16S13846   4.866   6.706   7.565  0.0681  0.6822  0.3522
  129OSM   H16S13847   4.792   6.775   7.611 -1.8422 -1.1128  0.0103
  129OSM   H16T13848   4.946   6.761   7.509  0.3135 -0.1346 -0.0991
  129OSM   C17S13849   4.930   6.626   7.682 -0.5956  0.3358  0.2982
  129OSM   H17S13850   4.995   6.694   7.743 -0.1919  0.6670 -0.4972
  129OSM   H17T13851   5.003   6.552   7.642  1.0252  0.8162  2.2374
  129OSM   C18S13852   4.839   6.554   7.782 -0.2842 -0.1842  0.0944
  129OSM   H18S13853   4.773   6.628   7.830 -0.8127  0.0375 -0.9485
  129OSM   H18T13854   4.902   6.507   7.861 -1.0206  1.1797  1.5071
  129OSM   H18U13855   4.791   6.465   7.735 -1.2337  0.7535 -0.7303
  129OSM    C1F13856   5.640   6.094   6.666  0.3762  0.5606  0.1533
  129OSM     OF13857   5.751   6.108   6.711  0.0014 -0.2981 -0.6593
  129OSM    C2F13858   5.565   5.967   6.674 -0.3127  0.2057  0.1547
  129OSM    H2F13859   5.613   5.888   6.612  0.8282  0.6662  0.4306
  129OSM    H2G13860   5.465   5.992   6.633 -0.0638 -1.0078 -1.2472
  129OSM    C3F13861   5.541   5.919   6.817 -0.5110  0.5474  0.4192
  129OSM    H3F13862   5.642   5.890   6.851 -0.2619  0.3489 -0.4877
  129OSM    H3G13863   5.474   5.831   6.825  0.5048 -0.3560 -0.8554
  129OSM    C4F13864   5.471   6.025   6.900 -0.0542  0.3801 -1.0486
  129OSM    H4F13865   5.372   6.046   6.854 -2.0081 -0.6300  2.4975
  129OSM    H4G13866   5.511   6.128   6.899 -2.5153  1.3995  0.4592
  129OSM    C5F13867   5.464   5.979   7.043 -0.6107  0.5010  1.1098
  129OSM    H5F13868   5.549   6.007   7.109 -0.2947  0.5899  0.6634
  129OSM    H5G13869   5.447   5.870   7.055 -0.0809  0.4899  1.7964
  129OSM    C6F13870   5.344   6.053   7.100 -0.4263 -0.4460 -0.0308
  129OSM    H6F13871   5.257   6.013   7.045 -1.1045  2.2636 -0.9649
  129OSM    H6G13872   5.363   6.155   7.061 -1.5867 -0.1749  0.0864
  129OSM    C7F13873   5.328   6.031   7.249  0.0640 -0.1283  0.2068
  129OSM    H7F13874   5.421   6.066   7.298 -0.4270  1.1234  0.2674
  129OSM    H7G13875   5.316   5.924   7.274  1.6392 -0.9321 -2.2990
  129OSM    C8F13876   5.203   6.100   7.310  0.3553  0.7329  0.2270
  129OSM    H8F13877   5.214   6.072   7.417  0.2508 -0.8477 -0.1716
  129OSM    H8G13878   5.110   6.044   7.288 -0.5783  1.5699  1.9019
  129OSM    C9F13879   5.166   6.243   7.287 -0.6418 -0.2464  0.2297
  129OSM    H9F13880   5.169   6.281   7.184 -3.2680  0.3300  0.3232
  129OSM   C10F13881   5.139   6.335   7.381  0.3414 -0.1550 -0.0577
  129OSM   H10F13882   5.092   6.428   7.345 -1.6734 -1.0033  0.3040
  129OSM   C11F13883   5.146   6.314   7.530  0.2585  0.7449 -0.8652
  129OSM   H11F13884   5.195   6.219   7.560  3.4536  2.6983  0.3702
  129OSM   H11G13885   5.040   6.318   7.563  0.2794  1.7979 -0.9127
  129OSM   C12F13886   5.230   6.412   7.601 -1.0085  0.4466  0.9854
  129OSM   H12F13887   5.207   6.517   7.572 -3.3449 -1.0305 -2.8144
  129OSM   H12G13888   5.338   6.400   7.576 -1.7338  0.4004 -2.3509
  129OSM   C13F13889   5.220   6.407   7.755 -0.1022  0.0746 -0.0081
  129OSM   H13F13890   5.256   6.308   7.789  1.8752  0.5497 -0.6772
  129OSM   H13G13891   5.116   6.406   7.795  0.4878 -0.8615  1.5335
  129OSM   C14F13892   5.301   6.518   7.836 -0.8072 -0.0844  0.7916
  129OSM   H14F13893   5.295   6.610   7.774  1.3344  0.0333  0.7241
  129OSM   H14G13894   5.408   6.492   7.852 -0.4842  1.4563  1.2106
  129OSM   C15F13895   5.257   6.550   7.987  0.0298 -0.3018 -0.5635
  129OSM   H15F13896   5.146   6.538   7.991  0.1903 -1.8194 -0.2700
  129OSM   H15G13897   5.282   6.655   8.010  2.8244 -1.2036  0.6575
  129OSM   C16F13898   5.309   6.448   8.088 -0.6016 -0.7259 -0.4918
  129OSM   H16F13899   5.415   6.430   8.062  0.0258  0.9722  0.8612
  129OSM   H16G13900   5.246   6.357   8.077  0.7622 -1.6410 -0.7621
  129OSM   C17F13901   5.304   6.481   8.238  0.4885  0.5533 -0.4545
  129OSM   H17F13902   5.367   6.571   8.253  1.4866  0.1261 -1.9702
  129OSM   H17G13903   5.349   6.394   8.291 -1.9335  0.6402  1.8966
  129OSM   C18F13904   5.161   6.513   8.291 -0.7166 -0.2556  0.0109
  129OSM   H18F13905   5.114   6.417   8.264 -2.0997  0.5459 -0.4422
  129OSM   H18G13906   5.113   6.595   8.233 -0.8577 -0.3767 -0.0396
  129OSM   H18H13907   5.173   6.517   8.402  2.4549  1.7869 -0.3330
  130OSM      N13908   6.102   3.298   5.939 -0.4850  0.7029  0.6789
  130OSM    C1513909   6.056   3.193   5.844  0.1536 -0.7115  0.4623
  130OSM   H15A13910   6.074   3.092   5.877  0.0338 -0.3960  1.5084
  130OSM   H15B13911   6.106   3.195   5.749 -0.8045 -1.1441 -0.0619
  130OSM   H15C13912   5.953   3.211   5.816  0.0925 -0.5044  0.8145
  130OSM    C1413913   6.252   3.295   5.952  0.2029 -0.1350 -0.0304
  130OSM   H14A13914   6.299   3.328   5.861 -1.6695  3.5659  0.2683
  130OSM   H14B13915   6.282   3.196   5.985 -1.5026 -1.2092 -1.5684
  130OSM   H14C13916   6.281   3.360   6.033 -0.1142 -0.7229  0.5723
  130OSM    C1313917   6.077   3.438   5.878 -0.2916 -0.0709  0.1920
  130OSM   H13A13918   5.974   3.463   5.855  0.8053  3.0634 -1.6557
  130OSM   H13B13919   6.133   3.438   5.786 -0.0352 -1.8330  0.3344
  130OSM   H13C13920   6.116   3.513   5.946 -0.2145 -0.0374  0.1110
  130OSM    C1213921   6.033   3.293   6.076 -0.1368 -0.2006 -0.0227
  130OSM   H12A13922   5.927   3.300   6.058  0.2153  1.6325 -1.5652
  130OSM   H12B13923   6.048   3.392   6.115 -0.6155 -0.3988  0.6600
  130OSM    C1113924   6.067   3.174   6.167 -1.1949 -0.0955  0.2614
  130OSM   H11A13925   6.007   3.190   6.259 -0.5792 -0.6207  0.7570
  130OSM   H11B13926   6.176   3.176   6.189 -0.9503 -0.7009 -0.8546
  130OSM      P13927   6.103   2.917   6.140 -0.1543 -0.0139 -0.0224
  130OSM    O1313928   6.020   2.808   6.088  0.4387  0.6885 -0.2031
  130OSM    O1413929   6.240   2.916   6.102  0.1212 -0.3355  0.3286
  130OSM    O1113930   6.094   2.912   6.296 -0.0375 -0.3250 -0.1322
  130OSM    O1213931   6.025   3.052   6.109 -0.1551  0.7250  0.1318
  130OSM    C1S13932   5.962   2.918   6.359  0.4243  0.2698  0.5044
  130OSM    H1S13933   5.899   2.833   6.327 -0.4878  1.0032  0.3559
  130OSM    H1T13934   5.914   3.015   6.334  0.7031 -0.5356 -3.4352
  130OSM     NF13935   5.824   2.908   6.573 -0.2239 -0.4188 -0.1575
  130OSM    HNF13936   5.782   2.992   6.607 -0.8052 -1.0929  0.8087
  130OSM    C2S13937   5.956   2.917   6.517 -0.1025  0.4189  0.0906
  130OSM    H2S13938   6.005   2.824   6.555 -1.5398 -0.9268 -1.2486
  130OSM    C3S13939   6.034   3.036   6.570 -0.3267  0.2965  0.5397
  130OSM    H3S13940   5.981   3.129   6.543  1.9173  1.4627 -0.0139
  130OSM     O313941   6.156   3.063   6.501 -0.4927 -0.5542  0.1606
  130OSM    HO313942   6.151   3.010   6.421  0.2003  0.4935 -0.5826
  130OSM    C4S13943   6.063   3.028   6.717 -0.1307  0.2263 -0.5962
  130OSM    H4S13944   6.160   2.983   6.741 -0.1717  0.5595  0.2459
  130OSM    C5S13945   6.004   3.097   6.809  0.2499  0.2273 -0.7621
  130OSM    H5S13946   5.910   3.149   6.788 -1.0365 -0.6069  2.6235
  130OSM    C6S13947   6.049   3.091   6.955 -0.0579 -0.7763 -0.4500
  130OSM    H6S13948   5.965   3.059   7.019 -1.4238 -3.3930 -3.4010
  130OSM    H6T13949   6.079   3.194   6.983  0.0804 -1.1973  0.9511
  130OSM    C7S13950   6.164   2.997   6.987 -0.1117  0.6041  0.8294
  130OSM    H7S13951   6.262   3.030   6.946  0.0338  0.3121  0.9425
  130OSM    H7T13952   6.147   2.892   6.953 -0.3129  1.3529 -1.5201
  130OSM    C8S13953   6.184   3.015   7.141 -0.4671  0.0947 -0.0007
  130OSM    H8S13954   6.088   2.990   7.189 -0.8597  1.2509 -0.1620
  130OSM    H8T13955   6.207   3.118   7.175 -0.5951  0.8103 -2.0160
  130OSM    C9S13956   6.299   2.916   7.185  0.1274 -0.3033  0.5574
  130OSM    H9S13957   6.387   2.962   7.137  0.3031  0.5396  1.6819
  130OSM    H9T13958   6.276   2.814   7.146 -0.4447 -1.0712  2.8345
  130OSM   C10S13959   6.309   2.913   7.329 -0.7813 -0.0506  0.8890
  130OSM   H10S13960   6.209   2.902   7.376 -0.6213 -4.8193  0.3645
  130OSM   H10T13961   6.356   3.008   7.365 -0.1873  0.1670 -0.4263
  130OSM   C11S13962   6.387   2.797   7.376 -0.1712  1.0723 -0.3769
  130OSM   H11S13963   6.488   2.795   7.330 -0.6240  0.0192 -1.3650
  130OSM   H11T13964   6.340   2.701   7.345  0.2763  1.4209 -2.2230
  130OSM   C12S13965   6.402   2.788   7.536  0.7526  0.2846 -0.2242
  130OSM   H12S13966   6.306   2.749   7.576 -0.0644 -1.0261 -3.3058
  130OSM   H12T13967   6.412   2.891   7.578 -1.1472  0.7132 -0.7972
  130OSM   C13S13968   6.512   2.690   7.589  0.1960 -0.4983 -1.1705
  130OSM   H13S13969   6.606   2.732   7.549  0.9030  0.8017  1.7771
  130OSM   H13T13970   6.508   2.583   7.558  1.4039 -2.0143  3.5807
  130OSM   C14S13971   6.512   2.695   7.742 -0.0489 -0.2208  0.0019
  130OSM   H14S13972   6.418   2.650   7.781 -0.2883  1.8418  1.8799
  130OSM   H14T13973   6.504   2.803   7.767  1.1389 -0.2512  0.5022
  130OSM   C15S13974   6.639   2.646   7.812 -0.6349  0.2577 -0.4212
  130OSM   H15S13975   6.717   2.721   7.788  0.8407 -1.0236  0.2970
  130OSM   H15T13976   6.674   2.557   7.756 -0.0428 -0.4645  1.0560
  130OSM   C16S13977   6.613   2.642   7.965 -0.4567  0.5844  0.1510
  130OSM   H16S13978   6.711   2.610   8.006 -1.1088 -0.4879  0.8821
  130OSM   H16T13979   6.539   2.564   7.991  1.4276 -1.2506  0.1844
  130OSM   C17S13980   6.567   2.765   8.029 -0.0259  0.8316  0.6899
  130OSM   H17S13981   6.459   2.772   8.002  0.8750  0.4011 -3.3243
  130OSM   H17T13982   6.622   2.850   7.982  0.5065 -0.9592 -2.0576
  130OSM   C18S13983   6.582   2.766   8.182  0.3112  0.1359 -0.0651
  130OSM   H18S13984   6.515   2.835   8.237  1.9624  1.6414  0.0838
  130OSM   H18T13985   6.686   2.790   8.216 -0.1469  3.2485 -0.7339
  130OSM   H18U13986   6.569   2.660   8.214 -2.5144  0.3374 -0.4533
  130OSM    C1F13987   5.747   2.794   6.557 -0.4645 -0.0326  0.4929
  130OSM     OF13988   5.779   2.690   6.499  0.5265  0.2756  0.0210
  130OSM    C2F13989   5.607   2.819   6.608 -0.6221 -0.2791  0.0364
  130OSM    H2F13990   5.545   2.809   6.517 -1.1710 -0.3160  0.4159
  130OSM    H2G13991   5.600   2.922   6.650 -0.9029 -0.2824 -0.0043
  130OSM    C3F13992   5.555   2.705   6.694  0.0456 -0.9876 -0.5359
  130OSM    H3F13993   5.565   2.606   6.646  1.7233 -0.8888 -0.4089
  130OSM    H3G13994   5.444   2.712   6.706 -0.0788  1.5145 -2.6525
  130OSM    C4F13995   5.624   2.693   6.827 -0.3097  0.0573  0.5817
  130OSM    H4F13996   5.734   2.679   6.816 -0.3772 -0.8542  0.9735
  130OSM    H4G13997   5.595   2.598   6.877  0.5154 -1.2258 -1.2836
  130OSM    C5F13998   5.591   2.809   6.921  0.1733  0.1869 -0.7333
  130OSM    H5F13999   5.485   2.795   6.949 -0.0935  0.2800 -1.6653
  130OSM    H5G14000   5.589   2.899   6.857  0.5558 -1.0076 -2.4704
  130OSM    C6F14001   5.696   2.818   7.030  0.3730 -0.1332 -0.3261
  130OSM    H6F14002   5.796   2.827   6.983  1.3326 -1.4949  1.3707
  130OSM    H6G14003   5.700   2.724   7.088  1.6347  0.4777  0.6116
  130OSM    C7F14004   5.692   2.951   7.108 -0.0553 -0.6844  0.3857
  130OSM    H7F14005   5.586   2.970   7.135 -0.1887 -0.5031 -0.2806
  130OSM    H7G14006   5.730   3.036   7.048 -0.5681  0.5836  1.8378
  130OSM    C8F14007   5.780   2.940   7.238 -0.5352 -0.2138 -0.3023
  130OSM    H8F14008   5.875   2.906   7.191  0.5183 -0.0420  1.6558
  130OSM    H8G14009   5.746   2.854   7.300  0.6581  0.8031  1.8086
  130OSM    C9F14010   5.801   3.066   7.328 -0.1019 -0.6117  0.7230
  130OSM    H9F14011   5.793   3.162   7.275  0.4092 -0.4762  0.8898
  130OSM   C10F14012   5.805   3.068   7.462  0.1696  0.2633  0.2945
  130OSM   H10F14013   5.826   3.164   7.512  0.3212 -0.5946  1.9136
  130OSM   C11F14014   5.805   2.949   7.558  0.2515  1.1365 -0.0303
  130OSM   H11F14015   5.839   2.856   7.508 -0.3586  1.2878 -0.7346
  130OSM   H11G14016   5.701   2.930   7.594  0.1362  1.8955  0.0479
  130OSM   C12F14017   5.899   2.981   7.669  0.5197 -0.9686  0.1732
  130OSM   H12F14018   5.888   2.897   7.741 -2.5792 -2.2976 -1.7349
  130OSM   H12G14019   5.879   3.083   7.707  1.5106 -0.2796 -1.1171
  130OSM   C13F14020   6.046   2.988   7.628 -0.0826  0.0283 -0.2643
  130OSM   H13F14021   6.075   3.062   7.550  0.0799 -2.0446 -2.2436
  130OSM   H13G14022   6.072   2.889   7.585  0.9338 -0.1586  0.7588
  130OSM   C14F14023   6.145   3.023   7.744  0.2551 -0.5801  0.0291
  130OSM   H14F14024   6.150   3.128   7.781  2.2445 -2.0418  4.1756
  130OSM   H14G14025   6.245   3.005   7.699 -0.0573  0.8587 -1.2902
  130OSM   C15F14026   6.128   2.928   7.863 -0.0139 -0.4960  0.2833
  130OSM   H15F14027   6.153   2.823   7.835  0.6139 -0.7916  1.8827
  130OSM   H15G14028   6.032   2.937   7.918  0.0609  1.2081  0.1549
  130OSM   C16F14029   6.236   2.952   7.975 -0.4286  0.4479 -0.9628
  130OSM   H16F14030   6.324   2.995   7.924  0.6374 -0.9469 -0.3335
  130OSM   H16G14031   6.274   2.854   8.012 -2.6776  0.9081  2.7705
  130OSM   C17F14032   6.187   3.042   8.086  0.2750 -0.2622  0.1532
  130OSM   H17F14033   6.091   3.002   8.127  0.3544  0.5548  1.1489
  130OSM   H17G14034   6.167   3.145   8.052  1.2071  0.1716  0.9090
  130OSM   C18F14035   6.275   3.050   8.208  0.1296 -0.2418 -0.3857
  130OSM   H18F14036   6.377   3.027   8.170 -0.1229 -2.6804  0.3410
  130OSM   H18G14037   6.241   2.979   8.286  1.5263 -1.1884 -0.6351
  130OSM   H18H14038   6.280   3.154   8.248 -1.9048 -0.1030 -0.4241
  131OSM      N14039   5.793   0.853   6.456 -0.6472 -0.2489  0.2744
  131OSM    C1514040   5.651   0.880   6.472  0.9899  0.0796 -0.1073
  131OSM   H15A14041   5.628   0.986   6.471  0.1040 -0.1094 -2.2415
  131OSM   H15B14042   5.614   0.849   6.568 -0.4269  2.4599  0.1688
  131OSM   H15C14043   5.596   0.828   6.395  2.3733  0.1280 -1.1473
  131OSM    C1414044   5.855   0.950   6.553 -0.2567 -0.1319 -0.4794
  131OSM   H14A14045   5.787   0.963   6.635 -0.9611  1.0880 -1.2282
  131OSM   H14B14046   5.862   1.047   6.505 -0.7014  0.5637  0.8408
  131OSM   H14C14047   5.952   0.920   6.589  0.0368 -0.1501 -1.2745
  131OSM    C1314048   5.815   0.710   6.496  0.2252  0.1891 -0.3029
  131OSM   H13A14049   5.798   0.688   6.600 -0.9331  3.2252  0.1984
  131OSM   H13B14050   5.915   0.685   6.464  0.3355 -0.5125  0.5612
  131OSM   H13C14051   5.758   0.642   6.434  0.7000  0.3056 -0.8693
  131OSM    C1214052   5.847   0.874   6.318  0.1609 -0.3905 -0.7711
  131OSM   H12A14053   5.829   0.981   6.309 -0.9319 -0.4701  0.2837
  131OSM   H12B14054   5.779   0.838   6.243  1.4642 -0.9843 -1.6621
  131OSM    C1114055   5.996   0.849   6.282  0.2559  0.2519  0.1735
  131OSM   H11A14056   6.061   0.896   6.359 -1.3771  1.9445  0.5491
  131OSM   H11B14057   6.019   0.902   6.187  1.4059  1.2491  0.9964
  131OSM      P14058   6.149   0.646   6.290  0.2463 -0.4171  0.1275
  131OSM    O1314059   6.157   0.523   6.213 -0.1661  0.4951 -0.1986
  131OSM    O1414060   6.260   0.737   6.276 -0.0903 -0.4143  0.1565
  131OSM    O1114061   6.154   0.607   6.445  0.3925  0.0773  0.3990
  131OSM    O1214062   6.011   0.712   6.258 -0.0923  0.1537  0.0097
  131OSM    C1S14063   6.258   0.511   6.493  1.0069 -0.0218 -0.4973
  131OSM    H1S14064   6.347   0.515   6.426  1.6471  0.7835  0.3862
  131OSM    H1T14065   6.217   0.408   6.500  2.0381 -0.3136  1.8032
  131OSM     NF14066   6.421   0.447   6.665 -0.8224 -0.3508 -0.5016
  131OSM    HNF14067   6.421   0.409   6.757  0.4130 -0.0039 -0.3591
  131OSM    C2S14068   6.311   0.542   6.636  0.2433  0.0041  0.4302
  131OSM    H2S14069   6.352   0.645   6.638 -1.7088  0.8061 -0.2405
  131OSM    C3S14070   6.194   0.542   6.743 -0.4244  0.0573 -0.4037
  131OSM    H3S14071   6.148   0.441   6.739 -0.2710 -0.1024  1.2482
  131OSM     O314072   6.098   0.641   6.724 -0.3703  0.2004 -0.9145
  131OSM    HO314073   6.105   0.690   6.642  0.3297  1.0610 -0.3525
  131OSM    C4S14074   6.263   0.560   6.877  0.6514 -0.3369  0.8993
  131OSM    H4S14075   6.288   0.465   6.926  2.6342 -1.4246 -2.0455
  131OSM    C5S14076   6.286   0.674   6.953  0.2960  0.2789  0.6246
  131OSM    H5S14077   6.243   0.765   6.909 -1.3580 -1.7734 -2.1491
  131OSM    C6S14078   6.357   0.674   7.088  0.2653  0.5309  0.1193
  131OSM    H6S14079   6.289   0.714   7.167 -1.0193  2.8759 -2.0714
  131OSM    H6T14080   6.436   0.752   7.077  2.2602 -1.3350  0.8064
  131OSM    C7S14081   6.442   0.555   7.136 -0.4336 -0.6827  0.2214
  131OSM    H7S14082   6.538   0.557   7.080 -1.0499  2.0544 -0.7861
  131OSM    H7T14083   6.395   0.457   7.113  0.0076 -1.2966  1.8778
  131OSM    C8S14084   6.484   0.558   7.283 -0.2555  0.4558  0.0271
  131OSM    H8S14085   6.389   0.554   7.340 -0.4292 -1.3035 -0.3749
  131OSM    H8T14086   6.527   0.659   7.299 -0.8862  0.8033 -0.4481
  131OSM    C9S14087   6.581   0.447   7.325 -0.3068  0.4476  0.2451
  131OSM    H9S14088   6.674   0.460   7.265 -0.6679 -0.9792 -0.6551
  131OSM    H9T14089   6.544   0.346   7.298  1.3425 -0.2429  0.5297
  131OSM   C10S14090   6.617   0.445   7.472 -0.5690  0.2147 -0.0282
  131OSM   H10S14091   6.645   0.546   7.508 -0.6123 -0.7218  2.7350
  131OSM   H10T14092   6.696   0.369   7.490  0.5058  0.9943 -1.4015
  131OSM   C11S14093   6.500   0.412   7.552  0.2420  0.1104 -0.1202
  131OSM   H11S14094   6.454   0.326   7.499  1.6226  0.2537 -1.5910
  131OSM   H11T14095   6.420   0.488   7.560 -0.2697 -0.5487  1.1052
  131OSM   C12S14096   6.538   0.377   7.697 -0.0252  0.5743 -0.1523
  131OSM   H12S14097   6.582   0.469   7.741  2.1491 -2.4195  4.3966
  131OSM   H12T14098   6.614   0.298   7.712 -0.6762  0.3231  1.9718
  131OSM   C13S14099   6.418   0.342   7.797 -0.4805 -0.1040 -0.6030
  131OSM   H13S14100   6.332   0.312   7.734 -0.7700  0.4018 -0.4527
  131OSM   H13T14101   6.398   0.438   7.849 -2.4081 -0.1406 -1.2563
  131OSM   C14S14102   6.446   0.242   7.910 -0.0653  0.1589  0.2755
  131OSM   H14S14103   6.365   0.243   7.986  0.4531 -2.7895  0.9647
  131OSM   H14T14104   6.534   0.280   7.967 -1.0220  0.4051  1.6104
  131OSM   C15S14105   6.489   0.097   7.870 -0.3969  0.5941 -0.0343
  131OSM   H15S14106   6.570   0.110   7.795 -0.4167  2.2629  0.2102
  131OSM   H15T14107   6.399   0.052   7.823 -0.5335  0.7311  0.0954
  131OSM   C16S14108   6.527   0.016   7.996 -0.1227  0.1113  0.4047
  131OSM   H16S14109   6.437  -0.040   8.029 -0.3405  0.7012  0.8257
  131OSM   H16T14110   6.577   0.068   8.080  1.4556  1.6599 -1.4477
  131OSM   C17S14111   6.624  -0.095   7.946  0.1735 -0.0599 -0.0259
  131OSM   H17S14112   6.590  -0.137   7.849  0.9141 -0.1531 -0.2490
  131OSM   H17T14113   6.630  -0.176   8.022  0.7581  0.6192  0.6459
  131OSM   C18S14114   6.768  -0.050   7.931 -0.2913  0.5036  0.6634
  131OSM   H18S14115   6.770   0.055   7.898 -0.9798 -0.1402 -1.4825
  131OSM   H18T14116   6.829  -0.100   7.853  0.6435  4.1720 -1.0481
  131OSM   H18U14117   6.822  -0.066   8.027  0.6405 -3.2570 -0.4029
  131OSM    C1F14118   6.535   0.447   6.602  0.3686 -0.7461  0.7958
  131OSM     OF14119   6.565   0.537   6.522 -0.0843 -0.0935  0.1798
  131OSM    C2F14120   6.624   0.342   6.645 -0.0813 -0.7488  0.2939
  131OSM    H2F14121   6.710   0.328   6.575  0.7869  1.4845  0.8807
  131OSM    H2G14122   6.574   0.242   6.647  1.6069 -1.6136  0.3790
  131OSM    C3F14123   6.670   0.377   6.794  0.3191  0.2272  0.3016
  131OSM    H3F14124   6.582   0.403   6.856 -0.7557  1.1499 -1.5548
  131OSM    H3G14125   6.740   0.462   6.785  1.0581 -0.4037 -0.0234
  131OSM    C4F14126   6.753   0.266   6.866  0.0848 -0.2360 -1.0443
  131OSM    H4F14127   6.847   0.261   6.807 -0.9564  1.1673 -2.8515
  131OSM    H4G14128   6.701   0.168   6.856  1.5373 -1.2512  0.9914
  131OSM    C5F14129   6.780   0.307   7.016 -0.5280  0.3291 -0.3555
  131OSM    H5F14130   6.678   0.316   7.059 -1.4060  1.3130 -2.6125
  131OSM    H5G14131   6.825   0.407   7.033 -0.8654  0.3621  0.3601
  131OSM    C6F14132   6.869   0.207   7.090 -0.2096  0.1250 -0.3566
  131OSM    H6F14133   6.800   0.121   7.094 -0.9238  0.6919 -0.3416
  131OSM    H6G14134   6.885   0.252   7.190 -0.0147 -0.4968 -0.1058
  131OSM    C7F14135   6.999   0.178   7.016  0.2012 -0.4074  0.4491
  131OSM    H7F14136   7.032   0.278   6.980 -1.0090 -0.6029 -1.2785
  131OSM    H7G14137   6.986   0.123   6.920  0.1483  0.2542  0.0718
  131OSM    C8F14138   7.106   0.105   7.098 -0.2327 -1.1973  0.1913
  131OSM    H8F14139   7.037   0.028   7.138 -2.6493  1.1296  0.5879
  131OSM    H8G14140   7.126   0.176   7.180  0.6166  2.1237 -2.7530
  131OSM    C9F14141   7.224   0.070   7.012  0.8087  0.1643  0.5807
  131OSM    H9F14142   7.214  -0.022   6.953 -1.0124  0.4435  0.4352
  131OSM   C10F14143   7.335   0.146   7.005  0.3151 -0.5923  0.3196
  131OSM   H10F14144   7.419   0.108   6.945  0.4616  0.4322 -0.1267
  131OSM   C11F14145   7.364   0.265   7.096  0.7652  0.2906  0.0559
  131OSM   H11F14146   7.275   0.303   7.150  1.2076 -0.4712  1.3552
  131OSM   H11G14147   7.401   0.341   7.024 -0.4163  0.2613 -0.6016
  131OSM   C12F14148   7.477   0.241   7.200  0.2353 -0.0373  0.3578
  131OSM   H12F14149   7.557   0.179   7.154 -2.0043 -2.5293 -0.3429
  131OSM   H12G14150   7.436   0.176   7.280 -1.8745  1.2974  0.3822
  131OSM   C13F14151   7.515   0.366   7.279  0.6782  0.0675  0.2334
  131OSM   H13F14152   7.429   0.436   7.272  0.6181 -0.1113 -0.8630
  131OSM   H13G14153   7.598   0.428   7.238  0.3827 -0.6013 -1.4012
  131OSM   C14F14154   7.543   0.340   7.425 -0.8462 -0.2013  0.3479
  131OSM   H14F14155   7.468   0.272   7.471  1.1624 -1.2742  2.1313
  131OSM   H14G14156   7.542   0.433   7.486 -0.2144 -1.4685  2.3466
  131OSM   C15F14157   7.682   0.270   7.439 -0.6585 -0.0662 -0.7797
  131OSM   H15F14158   7.751   0.340   7.387  1.5548 -0.9589  0.8362
  131OSM   H15G14159   7.678   0.178   7.377  1.1757 -1.8560  1.6429
  131OSM   C16F14160   7.728   0.233   7.584 -0.0388  0.1457  0.0925
  131OSM   H16F14161   7.829   0.189   7.573  0.2281 -0.2329  3.4823
  131OSM   H16G14162   7.663   0.155   7.629 -0.8902  1.8551  1.9318
  131OSM   C17F14163   7.754   0.345   7.681  0.4248 -0.5822 -0.3151
  131OSM   H17F14164   7.655   0.393   7.693 -0.1612 -2.0361  0.8765
  131OSM   H17G14165   7.830   0.415   7.641  2.2554 -2.2539  0.1823
  131OSM   C18F14166   7.807   0.301   7.821  0.3688 -0.6527  0.0617
  131OSM   H18F14167   7.721   0.292   7.892 -0.3486  0.8297 -0.5851
  131OSM   H18G14168   7.877   0.373   7.869  0.7787 -1.5332  0.7876
  131OSM   H18H14169   7.855   0.201   7.819  2.0701  0.1851 -2.1784
  132OSM      N14170   1.806   4.619   5.974 -0.2129  0.2845  0.5226
  132OSM    C1514171   1.801   4.538   5.847  0.5612  0.4491 -0.3696
  132OSM   H15A14172   1.884   4.569   5.785  2.6158  1.7157  2.8918
  132OSM   H15B14173   1.707   4.543   5.794 -0.4426 -0.3256  1.3222
  132OSM   H15C14174   1.824   4.436   5.871  0.5402  0.6892  0.7009
  132OSM    C1414175   1.943   4.607   6.036 -0.2251  1.0833  0.6312
  132OSM   H14A14176   1.945   4.652   6.134 -0.5872  1.2650  0.5595
  132OSM   H14B14177   2.032   4.628   5.978 -0.5074  1.9482  0.4925
  132OSM   H14C14178   1.958   4.503   6.060 -1.9971 -0.1696 -3.1335
  132OSM    C1314179   1.776   4.750   5.934  0.0705  0.7818 -0.3503
  132OSM   H13A14180   1.681   4.768   5.885  0.4848 -1.6945 -2.1405
  132OSM   H13B14181   1.851   4.795   5.871  2.3770  1.9465  3.0928
  132OSM   H13C14182   1.771   4.810   6.024  1.2245 -0.5671  0.6366
  132OSM    C1214183   1.696   4.583   6.072  0.0720  0.3334 -0.3132
  132OSM   H12A14184   1.675   4.478   6.065 -1.2933  0.5516  0.4676
  132OSM   H12B14185   1.600   4.619   6.040 -0.9788  0.0979  2.4517
  132OSM    C1114186   1.703   4.642   6.219  0.9788  0.2978 -0.6762
  132OSM   H11A14187   1.797   4.611   6.268  1.1047 -0.2877 -1.2730
  132OSM   H11B14188   1.615   4.590   6.261  0.3455  1.1275 -0.9566
  132OSM      P14189   1.779   4.883   6.317 -0.1498 -0.3065 -0.3214
  132OSM    O1314190   1.902   4.816   6.345  0.0457  0.7433  0.0727
  132OSM    O1414191   1.802   5.011   6.252 -1.0495 -0.3644  0.2562
  132OSM    O1114192   1.698   4.904   6.449 -0.3740 -0.4920 -0.0415
  132OSM    O1214193   1.690   4.784   6.219  0.0033  0.2180  0.2016
  132OSM    C1S14194   1.573   4.840   6.474 -0.1789 -0.6647 -0.0625
  132OSM    H1S14195   1.593   4.734   6.500  0.6632 -0.1247  1.5606
  132OSM    H1T14196   1.496   4.859   6.396  0.8690 -0.4136 -1.0485
  132OSM     NF14197   1.422   4.813   6.665  0.3033  0.7889 -0.6018
  132OSM    HNF14198   1.333   4.856   6.654 -0.2856  0.4138  2.2518
  132OSM    C2S14199   1.528   4.898   6.614 -0.9907 -0.6408  0.0239
  132OSM    H2S14200   1.614   4.892   6.684 -0.2086  0.2730 -0.8600
  132OSM    C3S14201   1.498   5.054   6.606  1.1906  0.4967 -0.5912
  132OSM    H3S14202   1.406   5.066   6.544  0.5132  0.9504  0.4898
  132OSM     O314203   1.596   5.128   6.536 -0.1279  0.0293 -0.2773
  132OSM    HO314204   1.668   5.065   6.526 -0.6434 -0.5943 -0.1432
  132OSM    C4S14205   1.475   5.122   6.739 -0.4323 -0.6324 -0.9227
  132OSM    H4S14206   1.570   5.132   6.794 -1.3600 -1.5181  0.8828
  132OSM    C5S14207   1.359   5.149   6.790 -0.2751 -0.1186 -0.0597
  132OSM    H5S14208   1.266   5.112   6.744 -0.2863 -1.6923  1.2042
  132OSM    C6S14209   1.342   5.205   6.929  0.0053 -0.8189 -0.0485
  132OSM    H6S14210   1.242   5.181   6.969 -0.0994 -0.2385  0.0408
  132OSM    H6T14211   1.338   5.316   6.924 -1.7880 -0.9341 -1.5027
  132OSM    C7S14212   1.451   5.169   7.030 -0.8816 -0.6916  0.1778
  132OSM    H7S14213   1.550   5.204   6.993 -0.8742  2.1892  2.6797
  132OSM    H7T14214   1.461   5.059   7.040  1.4819 -0.6929 -1.7401
  132OSM    C8S14215   1.421   5.227   7.165  0.6677 -0.1250  0.8207
  132OSM    H8S14216   1.322   5.196   7.206  0.6435 -0.6786  0.3585
  132OSM    H8T14217   1.419   5.336   7.148  0.6855 -0.1327  0.7689
  132OSM    C9S14218   1.534   5.197   7.269 -0.7449  0.0293  0.2837
  132OSM    H9S14219   1.624   5.241   7.222  0.9041 -3.0034  0.4897
  132OSM    H9T14220   1.557   5.089   7.270 -1.6890 -0.1710  0.7422
  132OSM   C10S14221   1.519   5.241   7.414  0.7280 -0.3091 -0.3133
  132OSM   H10S14222   1.424   5.197   7.449  0.7155 -0.1459 -0.1388
  132OSM   H10T14223   1.511   5.352   7.414 -2.5665 -0.4929 -1.3932
  132OSM   C11S14224   1.622   5.189   7.513 -1.4454 -0.0073 -0.7768
  132OSM   H11S14225   1.722   5.230   7.489 -1.7520  1.9534  1.1123
  132OSM   H11T14226   1.632   5.079   7.503 -1.5758 -0.3091  1.9279
  132OSM   C12S14227   1.585   5.221   7.660  0.2548 -0.1977  0.6835
  132OSM   H12S14228   1.480   5.184   7.659 -0.6440  2.2717  0.7446
  132OSM   H12T14229   1.587   5.332   7.669  2.0123 -0.1075 -0.5331
  132OSM   C13S14230   1.664   5.146   7.770  0.1642  0.2066  0.2089
  132OSM   H13S14231   1.769   5.181   7.757  0.5075 -1.3994 -1.4897
  132OSM   H13T14232   1.669   5.036   7.755  0.7932 -0.0797  2.2951
  132OSM   C14S14233   1.617   5.185   7.914  0.2601 -0.0042 -0.3414
  132OSM   H14S14234   1.511   5.161   7.938 -0.1820  3.7147  1.7284
  132OSM   H14T14235   1.638   5.294   7.911  0.7748 -0.1340 -1.4358
  132OSM   C15S14236   1.704   5.116   8.018  0.3600  0.1799 -0.6986
  132OSM   H15S14237   1.810   5.149   8.016  0.8978 -1.4839 -0.5034
  132OSM   H15T14238   1.703   5.006   8.002 -2.4042  0.0050  0.4565
  132OSM   C16S14239   1.661   5.133   8.170  0.6111  0.2821 -0.8723
  132OSM   H16S14240   1.558   5.094   8.184  0.7791  0.0224 -0.3324
  132OSM   H16T14241   1.666   5.238   8.206 -1.8017  0.5034 -1.1171
  132OSM   C17S14242   1.762   5.056   8.261  0.3029  0.0500  0.1710
  132OSM   H17S14243   1.852   5.121   8.264  0.7436 -0.5406 -0.0849
  132OSM   H17T14244   1.806   4.967   8.209  0.8926 -0.2308  1.1399
  132OSM   C18S14245   1.706   5.002   8.390 -0.1995  0.1243 -0.1985
  132OSM   H18S14246   1.698   5.083   8.466  1.3390 -0.3978  0.5328
  132OSM   H18T14247   1.762   4.918   8.434  1.5981  1.4440  0.0974
  132OSM   H18U14248   1.606   4.957   8.369 -0.1759 -0.3131  0.6073
  132OSM    C1F14249   1.444   4.683   6.708 -0.1836 -0.6047  0.2291
  132OSM     OF14250   1.553   4.645   6.739  0.5279  0.5399  0.1962
  132OSM    C2F14251   1.326   4.596   6.710  0.1618  0.0795 -0.0453
  132OSM    H2F14252   1.354   4.490   6.731 -1.1639 -0.2328  0.1906
  132OSM    H2G14253   1.285   4.592   6.607 -1.0246  0.1672  0.4141
  132OSM    C3F14254   1.203   4.647   6.785 -0.0598 -0.8533 -0.3637
  132OSM    H3F14255   1.116   4.583   6.760  0.3332 -1.5400  0.0136
  132OSM    H3G14256   1.161   4.745   6.753 -2.0346 -0.8104  2.1772
  132OSM    C4F14257   1.216   4.643   6.942 -0.1210 -0.6267  0.4895
  132OSM    H4F14258   1.268   4.546   6.959  0.0790 -0.8181 -1.0908
  132OSM    H4G14259   1.111   4.636   6.975 -1.2943  1.0378 -2.6982
  132OSM    C5F14260   1.285   4.759   7.010  0.0606 -0.3632 -0.3034
  132OSM    H5F14261   1.232   4.850   6.974 -2.2620 -0.5984  2.2766
  132OSM    H5G14262   1.393   4.768   6.987  0.3727  2.3095  1.9418
  132OSM    C6F14263   1.276   4.750   7.162 -0.3755  0.3217 -0.4059
  132OSM    H6F14264   1.174   4.774   7.198 -0.1679  1.5618 -0.6240
  132OSM    H6G14265   1.347   4.823   7.206 -2.6498  1.2410  1.8555
  132OSM    C7F14266   1.292   4.604   7.224  0.0223  0.2320 -0.0701
  132OSM    H7F14267   1.379   4.550   7.181 -0.6297  0.0439 -1.1760
  132OSM    H7G14268   1.200   4.549   7.195  0.6684 -0.3000 -1.1359
  132OSM    C8F14269   1.299   4.606   7.381  0.2060 -0.1607 -0.1784
  132OSM    H8F14270   1.206   4.655   7.417  0.3951  0.4377 -0.5006
  132OSM    H8G14271   1.385   4.674   7.396 -0.6407  1.2979 -1.6923
  132OSM    C9F14272   1.337   4.474   7.437 -0.0435 -0.6527  0.1415
  132OSM    H9F14273   1.438   4.446   7.403  0.2804 -0.5006  0.9458
  132OSM   C10F14274   1.264   4.399   7.519 -0.3133 -0.5212 -0.2778
  132OSM   H10F14275   1.298   4.295   7.533  0.0293 -0.1305  1.8642
  132OSM   C11F14276   1.130   4.432   7.568  0.4754  0.7064 -0.6627
  132OSM   H11F14277   1.041   4.406   7.507  0.9964 -3.8878  0.3765
  132OSM   H11G14278   1.119   4.542   7.582 -0.7600  0.3030  2.0030
  132OSM   C12F14279   1.096   4.360   7.706  0.5704  0.2801  0.5121
  132OSM   H12F14280   1.092   4.250   7.691  0.9172  0.3457 -0.0543
  132OSM   H12G14281   0.998   4.397   7.743  0.6255  1.8004 -0.8072
  132OSM   C13F14282   1.199   4.377   7.827  0.7338  0.3525  0.2020
  132OSM   H13F14283   1.202   4.484   7.855 -0.1286  0.7545 -1.1848
  132OSM   H13G14284   1.302   4.366   7.787  0.0174 -0.4813 -1.4802
  132OSM   C14F14285   1.180   4.285   7.948  0.5388  0.0490  0.3237
  132OSM   H14F14286   1.175   4.180   7.910 -0.1749  0.0266  0.4867
  132OSM   H14G14287   1.085   4.319   7.994  0.4007  0.5139 -0.3140
  132OSM   C15F14288   1.302   4.290   8.046 -0.3304 -0.2267 -0.5664
  132OSM   H15F14289   1.305   4.383   8.107  0.4368 -0.9550  0.5148
  132OSM   H15G14290   1.397   4.282   7.989  0.0730 -1.1155  0.2267
  132OSM   C16F14291   1.287   4.186   8.150 -0.2040 -0.0681  0.0708
  132OSM   H16F14292   1.288   4.085   8.104 -1.9274 -0.2740  0.4284
  132OSM   H16G14293   1.189   4.192   8.202 -1.2129  2.4806 -2.0037
  132OSM   C17F14294   1.396   4.201   8.258  0.0885  0.5832 -0.3784
  132OSM   H17F14295   1.392   4.301   8.304  0.2191 -0.2876  1.5735
  132OSM   H17G14296   1.495   4.181   8.212  0.0146  0.5766 -0.5357
  132OSM   C18F14297   1.393   4.097   8.374  0.1511  0.6679  0.0482
  132OSM   H18F14298   1.308   4.114   8.443  0.6638  0.2419  0.7870
  132OSM   H18G14299   1.484   4.099   8.437  0.8393  0.4934 -0.9256
  132OSM   H18H14300   1.383   3.996   8.328 -0.1085  0.5242  0.4203
  133SAPE     N14301   3.355   3.499  10.804 -0.5935 -0.2714  0.1272
  133SAPE   HN114302   3.283   3.470  10.734 -1.8201 -0.0145  1.2730
  133SAPE   HN214303   3.318   3.533  10.895 -3.4344 -0.6604 -0.8368
  133SAPE   HN314304   3.417   3.569  10.759  1.2374 -2.0223 -0.1482
  133SAPE   C1214305   3.432   3.372  10.835 -0.5569 -0.3062 -0.2044
  133SAPE  H12A14306   3.417   3.302  10.750 -0.3943 -1.3896  0.6349
  133SAPE  H12B14307   3.384   3.319  10.920 -2.5099 -1.4472 -1.9813
  133SAPE   C1114308   3.578   3.401  10.863  0.2387  0.0749 -0.5828
  133SAPE  H11A14309   3.593   3.432  10.968  1.2715 -1.7236 -0.1722
  133SAPE  H11B14310   3.615   3.486  10.802 -1.0843 -0.0222 -1.5637
  133SAPE     P14311   3.766   3.269  10.720 -0.2012  0.0126  0.0544
  133SAPE   O1314312   3.894   3.340  10.744  0.4624 -0.3750  0.1011
  133SAPE   O1414313   3.772   3.124  10.686  0.3263  0.1118  0.4653
  133SAPE   O1214314   3.662   3.283  10.844 -0.3399 -0.2667  0.2494
  133SAPE   O1114315   3.693   3.345  10.599 -0.1717  0.2197 -0.7806
  133SAPE    C114316   3.587   3.277  10.531 -0.3956  0.5305  0.6169
  133SAPE    HA14317   3.534   3.196  10.585 -2.4282  0.3298 -1.6196
  133SAPE    HB14318   3.520   3.356  10.491  0.0492  1.5172  1.8078
  133SAPE    C214319   3.644   3.205  10.407  0.3885  0.0195 -0.0240
  133SAPE    HS14320   3.714   3.124  10.434 -1.0467 -0.4522  2.4341
  133SAPE   O2114321   3.712   3.317  10.342 -0.0596 -0.2292 -0.4782
  133SAPE   C2114322   3.835   3.279  10.300  0.8339 -0.7993 -0.0002
  133SAPE   O2214323   3.881   3.164  10.295 -0.2918 -0.3097  0.2113
  133SAPE   C2214324   3.909   3.405  10.252  0.1947 -0.0193  0.1950
  133SAPE   H2R14325   3.858   3.502  10.268  3.7967  2.0172 -0.3625
  133SAPE   H2S14326   4.003   3.409  10.310 -0.4563 -0.4330  1.2844
  133SAPE    C314327   3.536   3.134  10.323 -0.1549  0.5677 -0.6252
  133SAPE    HX14328   3.456   3.211  10.318 -1.1110 -0.3768 -0.1384
  133SAPE    HY14329   3.498   3.040  10.369  3.2535 -1.1550 -1.1910
  133SAPE   O3114330   3.580   3.104  10.188  0.0284  0.2307 -0.5760
  133SAPE   C3114331   3.661   3.002  10.168  0.0384  0.7741  0.1684
  133SAPE   O3214332   3.693   2.915  10.247  0.1809  0.8300 -0.3951
  133SAPE   C3214333   3.719   3.018  10.027 -0.9167 -0.9648  0.4927
  133SAPE   H2X14334   3.801   3.092  10.035 -1.5589 -0.2841  0.8324
  133SAPE   H2Y14335   3.641   3.054   9.957  0.2257 -0.0446 -0.3260
  133SAPE   C2314336   3.942   3.407  10.100  0.1330  1.0351  0.2467
  133SAPE   H3R14337   3.968   3.304  10.067 -1.0483 -0.0772  2.7005
  133SAPE   H3S14338   4.028   3.475  10.082  1.3331 -0.7588 -1.1059
  133SAPE   C2414339   3.823   3.451  10.006 -0.4069  0.9167  0.0231
  133SAPE   H4R14340   3.856   3.540   9.949 -0.4393  0.8484 -0.1023
  133SAPE   H4S14341   3.755   3.500  10.079  0.5198 -0.0130  1.5604
  133SAPE   C2514342   3.739   3.359   9.927  0.3101 -0.4377 -0.2132
  133SAPE   H5R14343   3.696   3.276   9.985 -3.0132  0.8888 -0.6972
  133SAPE   C2614344   3.713   3.371   9.799  0.4316 -0.0839  0.2452
  133SAPE   H6R14345   3.660   3.289   9.748  0.2734 -1.0390  1.8805
  133SAPE   C2714346   3.768   3.475   9.705 -0.2117 -0.0030 -0.0994
  133SAPE   H7R14347   3.870   3.450   9.671 -0.3983 -0.9940  0.0461
  133SAPE   H7S14348   3.776   3.571   9.760 -1.2184 -1.3921  2.5716
  133SAPE   C2814349   3.684   3.495   9.583 -0.5200  0.1707 -0.3292
  133SAPE   H8R14350   3.611   3.578   9.581 -1.0294 -0.1572  3.0272
  133SAPE   C2914351   3.669   3.404   9.479  0.2223 -0.3452 -0.2203
  133SAPE   H9R14352   3.595   3.424   9.401  1.5789  1.4326 -1.1035
  133SAPE  C21014353   3.717   3.264   9.470  0.2956  0.5920  0.1123
  133SAPE  H10R14354   3.637   3.193   9.500 -0.4875 -0.1313 -3.5041
  133SAPE  H10S14355   3.796   3.241   9.544  0.9089 -0.6345 -0.9140
  133SAPE  C21114356   3.764   3.227   9.334 -0.1459  0.4740 -0.8927
  133SAPE  H11R14357   3.873   3.214   9.321 -0.1967 -0.2279 -0.6587
  133SAPE  C21214358   3.683   3.221   9.225  0.1390 -0.0607  0.5026
  133SAPE  H12R14359   3.717   3.198   9.123 -0.6025 -0.9050  0.4390
  133SAPE  C21314360   3.530   3.240   9.229 -0.5004 -0.6751  0.0971
  133SAPE  H13R14361   3.506   3.338   9.183 -2.0281 -2.1096 -2.2868
  133SAPE  H13S14362   3.494   3.238   9.334 -1.3105 -0.4576 -0.1770
  133SAPE  C21414363   3.453   3.127   9.168  0.8921 -0.7148  0.0527
  133SAPE  H14R14364   3.434   3.041   9.234 -1.8068 -0.7120 -0.6474
  133SAPE  C21514365   3.419   3.120   9.039 -0.0656  0.9594  0.1161
  133SAPE  H15R14366   3.359   3.031   9.016  0.7647  0.4015  0.0746
  133SAPE  C21614367   3.442   3.211   8.919  0.0954  1.0547  0.2061
  133SAPE  H16R14368   3.545   3.187   8.883 -0.2763  0.7197 -0.6455
  133SAPE  H16S14369   3.455   3.315   8.956 -0.4357  1.2640 -0.1976
  133SAPE  C21714370   3.355   3.224   8.795 -1.0082 -0.5554 -0.7851
  133SAPE  H17R14371   3.251   3.232   8.835 -0.9077 -0.1002 -0.6121
  133SAPE  H17S14372   3.349   3.132   8.733 -1.5966 -0.6161 -0.6438
  133SAPE  C21814373   3.401   3.347   8.714 -0.4472  0.6660  0.7470
  133SAPE  H18R14374   3.499   3.324   8.667 -0.5545  2.2025 -0.2742
  133SAPE  H18S14375   3.414   3.435   8.781  0.1934  0.6373  0.6685
  133SAPE  C21914376   3.294   3.387   8.605 -0.0963 -0.0108 -0.2874
  133SAPE  H19R14377   3.341   3.482   8.571 -2.4484  1.3650  0.1698
  133SAPE  H19S14378   3.202   3.410   8.664 -0.2102 -1.2362  0.0188
  133SAPE  C22014379   3.267   3.282   8.498 -0.4332 -0.7298  0.9020
  133SAPE  H20R14380   3.186   3.315   8.430  0.9024  1.7148  0.4314
  133SAPE  H20S14381   3.237   3.188   8.549  2.4686 -1.3729  1.4883
  133SAPE  H20T14382   3.357   3.261   8.437 -1.7393 -2.2489 -0.5450
  133SAPE   C3314383   3.770   2.889   9.963 -0.1309 -0.0265  0.2691
  133SAPE   H3X14384   3.681   2.840   9.919 -0.6507  0.5975  0.6146
  133SAPE   H3Y14385   3.829   2.823  10.030  1.0096  1.8507  1.1537
  133SAPE   C3414386   3.857   2.936   9.847  0.2064 -0.2412  0.2082
  133SAPE   H4X14387   3.929   2.853   9.830 -0.0098 -0.1983 -0.9258
  133SAPE   H4Y14388   3.908   3.028   9.882  0.9071 -1.1157  1.5742
  133SAPE   C3514389   3.787   2.963   9.714  0.5883 -0.3541 -0.2389
  133SAPE   H5X14390   3.847   3.041   9.662 -0.0839 -0.3177 -0.9711
  133SAPE   H5Y14391   3.687   3.012   9.722  0.5640 -0.4211 -0.1340
  133SAPE   C3614392   3.789   2.839   9.624  0.0332 -1.8247  0.4019
  133SAPE   H6X14393   3.723   2.762   9.670 -0.7762 -0.7112  1.1350
  133SAPE   H6Y14394   3.893   2.798   9.623 -0.6186 -3.5462  1.2362
  133SAPE   C3714395   3.739   2.880   9.478 -0.3642 -0.5400 -0.0050
  133SAPE   H7X14396   3.803   2.959   9.434 -0.9264  0.2043  0.4791
  133SAPE   H7Y14397   3.641   2.933   9.483  0.8432  1.8207 -0.6529
  133SAPE   C3814398   3.752   2.777   9.367  0.4300  0.3077  0.0233
  133SAPE   H8X14399   3.677   2.698   9.393 -0.8130  1.5645  0.3153
  133SAPE   H8Y14400   3.861   2.757   9.360  0.4770  0.6703 -0.2641
  133SAPE   C3914401   3.713   2.834   9.226  0.1579 -0.1484 -0.3836
  133SAPE   H9X14402   3.751   2.936   9.207 -0.0518 -0.1588 -0.8768
  133SAPE   H9Y14403   3.602   2.836   9.229  0.1363  3.6392 -1.3790
  133SAPE  C31014404   3.761   2.746   9.112  0.2176  0.6173  0.0309
  133SAPE  H10X14405   3.753   2.638   9.139  0.7788  0.3520 -0.8445
  133SAPE  H10Y14406   3.871   2.759   9.110  0.4549 -1.3603 -1.4113
  133SAPE  C31114407   3.703   2.787   8.972  1.1074 -0.2509 -0.3157
  133SAPE  H11X14408   3.716   2.896   8.958  2.3466 -0.1223  1.6109
  133SAPE  H11Y14409   3.598   2.752   8.984 -0.1041  2.3711 -2.8257
  133SAPE  C31214410   3.775   2.706   8.857 -0.2846 -0.2727  0.1527
  133SAPE  H12X14411   3.786   2.599   8.882 -3.0580 -1.1965 -2.2034
  133SAPE  H12Y14412   3.877   2.749   8.853 -0.7455  1.1401  2.5514
  133SAPE  C31314413   3.703   2.721   8.721  0.1067  0.3131  0.0308
  133SAPE  H13X14414   3.711   2.829   8.695 -2.0531  0.8139  1.3257
  133SAPE  H13Y14415   3.598   2.685   8.732  0.7550 -1.8195 -0.5266
  133SAPE  C31414416   3.771   2.635   8.615  0.2069  0.0400 -0.2997
  133SAPE  H14X14417   3.772   2.529   8.650 -0.5732 -0.7327 -2.4602
  133SAPE  H14Y14418   3.872   2.679   8.601 -0.8888  2.4841 -0.7148
  133SAPE  C31514419   3.684   2.638   8.491  0.0556  0.1660  0.9274
  133SAPE  H15X14420   3.706   2.731   8.434  1.0533  0.6960  2.1624
  133SAPE  H15Y14421   3.578   2.641   8.525  0.8873 -0.0234  3.6777
  133SAPE  C31614422   3.702   2.514   8.408  0.4066 -0.2949 -0.3591
  133SAPE  H16X14423   3.651   2.429   8.457  1.2595  1.2654  3.3998
  133SAPE  H16Y14424   3.811   2.489   8.403  1.1635  2.8067 -0.7044
  133SAPE  C31714425   3.643   2.538   8.267 -0.5458 -1.0188  0.3422
  133SAPE  H17X14426   3.691   2.626   8.219 -0.4815 -0.9861  0.4671
  133SAPE  H17Y14427   3.537   2.570   8.276 -0.6091 -1.6054  1.7154
  133SAPE  C31814428   3.653   2.414   8.174 -0.6974  0.2227 -0.2312
  133SAPE  H18X14429   3.761   2.402   8.148 -0.1553  0.3675  1.8037
  133SAPE  H18Y14430   3.596   2.406   8.079  1.0507 -0.8614 -1.2282
  133SAPE  H18Z14431   3.637   2.319   8.230 -0.8748 -0.2723 -1.1210
  134SAPE     N14432   6.295   3.244  10.706 -0.4482  0.6728  0.6115
  134SAPE   HN114433   6.248   3.240  10.613  1.7928 -5.2344 -0.4641
  134SAPE   HN214434   6.366   3.170  10.693 -0.5024  1.0363 -2.0899
  134SAPE   HN314435   6.225   3.210  10.775 -0.2850  2.8186  1.8926
  134SAPE   C1214436   6.331   3.391  10.726  0.0940  0.5369  0.4834
  134SAPE  H12A14437   6.238   3.452  10.718 -0.4268 -0.4647 -1.4740
  134SAPE  H12B14438   6.386   3.426  10.635  1.1764  0.5662  1.1423
  134SAPE   C1114439   6.407   3.409  10.856 -0.0907 -0.9654  0.3529
  134SAPE  H11A14440   6.352   3.358  10.939 -2.0877  0.7160  0.0856
  134SAPE  H11B14441   6.403   3.517  10.879 -1.9262 -0.6053 -1.5779
  134SAPE     P14442   6.664   3.452  10.852 -0.0935 -0.0275  0.4349
  134SAPE   O1314443   6.634   3.569  10.769  0.2931 -0.2680 -0.5118
  134SAPE   O1414444   6.698   3.474  10.988 -0.6550 -0.1418 -0.4119
  134SAPE   O1214445   6.539   3.353  10.843 -0.4785  0.6614  0.1551
  134SAPE   O1114446   6.783   3.363  10.786 -0.1055 -0.5793  0.2646
  134SAPE    C114447   6.742   3.259  10.694  0.1518 -0.0252 -0.1910
  134SAPE    HA14448   6.827   3.188  10.690  0.6372  0.4843  0.6398
  134SAPE    HB14449   6.658   3.193  10.724 -0.5698 -0.2388 -2.5856
  134SAPE    C214450   6.733   3.323  10.551  0.0386 -0.0734 -0.2748
  134SAPE    HS14451   6.830   3.376  10.538  0.2316 -0.1301  0.8945
  134SAPE   O2114452   6.617   3.409  10.551  1.1815 -0.3393  0.0136
  134SAPE   C2114453   6.624   3.491  10.452  0.3633 -0.0956  0.7511
  134SAPE   O2214454   6.722   3.522  10.383 -0.3119  0.5233  0.0821
  134SAPE   C2214455   6.476   3.550  10.426  0.0592  0.0561 -0.4020
  134SAPE   H2R14456   6.407   3.463  10.418  0.8380 -0.7477  1.3616
  134SAPE   H2S14457   6.458   3.614  10.515  1.4748  1.1047 -0.8501
  134SAPE    C314458   6.718   3.217  10.439 -0.2684 -0.0416 -0.5814
  134SAPE    HX14459   6.613   3.182  10.445 -0.3527  0.2332 -0.4436
  134SAPE    HY14460   6.790   3.136  10.462  1.8959  1.5372 -1.5433
  134SAPE   O3114461   6.758   3.256  10.309 -0.0786 -0.2819  0.1912
  134SAPE   C3114462   6.718   3.179  10.209  0.5204  0.7138  0.1551
  134SAPE   O3214463   6.652   3.072  10.225 -0.3926  0.0929  0.1556
  134SAPE   C3214464   6.768   3.231  10.081  0.1169  0.1090 -0.3365
  134SAPE   H2X14465   6.840   3.157  10.041  0.2871 -0.1685  0.4902
  134SAPE   H2Y14466   6.832   3.319  10.107  2.3898 -1.8634  0.9003
  134SAPE   C2314467   6.489   3.643  10.307 -0.3074  0.4802  0.1816
  134SAPE   H3R14468   6.550   3.599  10.225  0.7286  1.1049  0.5994
  134SAPE   H3S14469   6.546   3.733  10.337 -0.8717  0.6942  0.6087
  134SAPE   C2414470   6.350   3.684  10.244  0.2296  0.8055 -0.2442
  134SAPE   H4R14471   6.282   3.705  10.330 -0.3029  0.1675 -0.5057
  134SAPE   H4S14472   6.301   3.602  10.188  2.0434 -0.4799  0.0304
  134SAPE   C2514473   6.364   3.808  10.158 -0.3193  0.9689  0.4751
  134SAPE   H5R14474   6.349   3.903  10.211  2.1226  0.4290  2.2359
  134SAPE   C2614475   6.389   3.812  10.022  0.3800 -0.2293 -0.1844
  134SAPE   H6R14476   6.385   3.907   9.966  3.7754  0.6161  0.8758
  134SAPE   C2714477   6.405   3.688   9.932  0.3673  0.6563  0.6515
  134SAPE   H7R14478   6.312   3.662   9.876  1.4332  0.7362 -1.2081
  134SAPE   H7S14479   6.429   3.597   9.990 -0.7557  0.1055  0.2755
  134SAPE   C2814480   6.514   3.687   9.835  0.1981 -0.8046 -0.1951
  134SAPE   H8R14481   6.618   3.673   9.870  0.1983 -1.6122 -0.5169
  134SAPE   C2914482   6.501   3.683   9.699 -0.6489  0.5609 -1.0119
  134SAPE   H9R14483   6.596   3.680   9.643  0.3207 -0.4409  0.6423
  134SAPE  C21014484   6.370   3.701   9.623 -0.0039 -0.4654  0.3856
  134SAPE  H10R14485   6.351   3.811   9.619  0.4054 -0.4563 -2.1340
  134SAPE  H10S14486   6.284   3.657   9.678 -0.2093 -0.7330 -0.1439
  134SAPE  C21114487   6.375   3.652   9.475  0.2596  0.2934  0.2133
  134SAPE  H11R14488   6.306   3.572   9.445  1.3856 -1.5818  2.4708
  134SAPE  C21214489   6.457   3.697   9.373 -0.3523  1.1561 -0.1669
  134SAPE  H12R14490   6.438   3.650   9.276 -0.4239 -0.2260  0.5069
  134SAPE  C21314491   6.556   3.810   9.384 -0.4066 -1.4641  0.0396
  134SAPE  H13R14492   6.543   3.852   9.486  1.5722  0.3650 -0.4204
  134SAPE  H13S14493   6.523   3.900   9.327 -0.5956  0.0025  2.4265
  134SAPE  C21414494   6.691   3.756   9.373 -0.2960  0.1305 -0.7935
  134SAPE  H14R14495   6.727   3.702   9.462  2.2081 -0.0883 -1.8788
  134SAPE  C21514496   6.766   3.775   9.267 -0.2127 -0.6137 -0.0945
  134SAPE  H15R14497   6.873   3.751   9.271 -0.8783 -3.8707 -0.7070
  134SAPE  C21614498   6.712   3.845   9.142  0.5831  0.1021 -0.4667
  134SAPE  H16R14499   6.775   3.934   9.116  0.8371  0.4717  1.3393
  134SAPE  H16S14500   6.608   3.882   9.148  1.4309  2.3919  1.2721
  134SAPE  C21714501   6.721   3.730   9.038 -0.5214  1.4326 -0.3320
  134SAPE  H17R14502   6.820   3.680   9.028  0.3037  2.3681  2.7090
  134SAPE  H17S14503   6.695   3.788   8.947  0.3882  1.5417 -0.5261
  134SAPE  C21814504   6.606   3.628   9.058  1.1001  0.0696  0.0728
  134SAPE  H18R14505   6.511   3.684   9.076 -0.0586 -1.6523 -0.5075
  134SAPE  H18S14506   6.622   3.562   9.145 -0.1138 -0.5576 -0.1617
  134SAPE  C21914507   6.573   3.544   8.934  0.4733  0.2036 -0.0356
  134SAPE  H19R14508   6.555   3.612   8.848 -1.8853 -1.8710 -1.2557
  134SAPE  H19S14509   6.475   3.496   8.956  1.9289 -3.5426 -1.3602
  134SAPE  C22014510   6.686   3.440   8.902 -0.9925 -0.0450 -0.1741
  134SAPE  H20R14511   6.774   3.504   8.882 -1.0808  0.2757  0.4612
  134SAPE  H20S14512   6.667   3.377   8.813 -1.5980  0.0882 -0.1432
  134SAPE  H20T14513   6.699   3.370   8.987  0.1697  3.1419  2.3659
  134SAPE   C3314514   6.664   3.262   9.983  0.2739 -0.2757  0.5574
  134SAPE   H3X14515   6.584   3.331  10.016 -0.5134 -0.6180 -0.5831
  134SAPE   H3Y14516   6.615   3.173   9.936 -2.6486  0.5906  1.8530
  134SAPE   C3414517   6.717   3.333   9.862 -0.6766  0.3625 -0.7484
  134SAPE   H4X14518   6.796   3.402   9.898  1.2295 -2.4285  0.5957
  134SAPE   H4Y14519   6.633   3.385   9.810  0.1923  2.7940  0.2332
  134SAPE   C3514520   6.791   3.246   9.756 -0.1525 -0.2054 -0.0083
  134SAPE   H5X14521   6.714   3.171   9.728  1.1668 -2.0480  1.2021
  134SAPE   H5Y14522   6.870   3.189   9.808 -0.6253 -0.9153 -0.0636
  134SAPE   C3614523   6.836   3.332   9.631  0.0499  0.1831 -0.1788
  134SAPE   H6X14524   6.912   3.396   9.681 -1.4186  1.8635 -0.0406
  134SAPE   H6Y14525   6.753   3.400   9.602 -1.1788 -0.7347  1.1678
  134SAPE   C3714526   6.863   3.254   9.503 -0.7559 -0.0140 -0.4750
  134SAPE   H7X14527   6.775   3.188   9.486 -0.6038 -0.7531  1.4898
  134SAPE   H7Y14528   6.949   3.184   9.503 -0.0075  0.8959 -0.3326
  134SAPE   C3814529   6.900   3.355   9.391  0.6759 -0.2698 -0.0552
  134SAPE   H8X14530   7.007   3.382   9.397  0.7996 -0.8930  0.6297
  134SAPE   H8Y14531   6.845   3.452   9.388  0.5156 -0.3851 -1.0244
  134SAPE   C3914532   6.872   3.300   9.251 -0.7598  0.4926  0.1105
  134SAPE   H9X14533   6.847   3.375   9.173  0.1701 -1.4422 -2.1058
  134SAPE   H9Y14534   6.779   3.242   9.263  0.1964 -0.6642  2.2543
  134SAPE  C31014535   6.990   3.208   9.205  0.5481  0.1191 -0.3066
  134SAPE  H10X14536   6.988   3.130   9.284 -1.6872  0.1667 -0.2702
  134SAPE  H10Y14537   7.081   3.272   9.207  0.8894 -0.3501 -0.8890
  134SAPE  C31114538   6.969   3.144   9.066 -0.0748  0.4801 -0.2292
  134SAPE  H11X14539   6.863   3.110   9.063 -0.1716  0.5709  1.7588
  134SAPE  H11Y14540   7.022   3.049   9.043 -1.0525 -0.2941  0.6681
  134SAPE  C31214541   6.994   3.240   8.944  0.0059 -0.0069 -0.0678
  134SAPE  H12X14542   7.072   3.316   8.970  0.2307 -0.4047  0.4326
  134SAPE  H12Y14543   6.908   3.310   8.945 -0.2061 -0.2681  0.5527
  134SAPE  C31314544   7.024   3.177   8.810 -0.0547  0.0833  0.1197
  134SAPE  H13X14545   6.969   3.080   8.810 -0.9380  0.5600  1.5549
  134SAPE  H13Y14546   7.131   3.149   8.818 -0.8074 -2.6017  1.6242
  134SAPE  C31414547   7.005   3.273   8.688 -0.5232 -0.3170 -0.6304
  134SAPE  H14X14548   7.001   3.373   8.735  2.4813  0.1059 -1.1897
  134SAPE  H14Y14549   6.901   3.270   8.649 -1.6544 -1.0357  2.3160
  134SAPE  C31514550   7.120   3.258   8.586  0.3759 -0.1738 -0.0572
  134SAPE  H15X14551   7.109   3.156   8.545  0.1625  0.4840 -1.6479
  134SAPE  H15Y14552   7.215   3.274   8.642  0.3065  0.4197 -0.1108
  134SAPE  C31614553   7.127   3.368   8.486 -0.2175  0.7752 -0.5505
  134SAPE  H16X14554   7.153   3.464   8.537 -1.0340 -0.2590  1.9191
  134SAPE  H16Y14555   7.030   3.373   8.433  0.6211 -1.9649 -2.4450
  134SAPE  C31714556   7.227   3.338   8.382 -0.7881 -0.5029 -0.0300
  134SAPE  H17X14557   7.226   3.405   8.294 -3.5035  0.9203  1.0083
  134SAPE  H17Y14558   7.201   3.239   8.339 -0.5901 -1.0770  1.1324
  134SAPE  C31814559   7.374   3.325   8.438  0.0152 -0.4413 -1.4309
  134SAPE  H18X14560   7.405   3.235   8.495  0.1632  1.5901  1.8210
  134SAPE  H18Y14561   7.392   3.415   8.500 -0.3191 -0.6117 -1.0934
  134SAPE  H18Z14562   7.442   3.334   8.350 -3.0614 -0.4994 -3.9304
  135SAPE     N14563   6.246   2.062  10.818  0.1975  0.9782 -0.9277
  135SAPE   HN114564   6.174   1.995  10.852  0.8347  0.0575 -1.3567
  135SAPE   HN214565   6.333   2.027  10.863 -0.3050  0.7494 -0.1245
  135SAPE   HN314566   6.236   2.158  10.857  0.2751  0.3301  0.7353
  135SAPE   C1214567   6.264   2.060  10.669 -0.0190 -0.3818  0.9690
  135SAPE  H12A14568   6.327   2.149  10.651 -0.3075  0.7006  4.7845
  135SAPE  H12B14569   6.163   2.078  10.625 -1.6330 -3.7562  3.0778
  135SAPE   C1114570   6.321   1.925  10.615  0.7379  0.0107  0.0865
  135SAPE  H11A14571   6.427   1.921  10.650  0.8529 -0.3425 -0.2993
  135SAPE  H11B14572   6.316   1.913  10.504 -1.4954 -1.8866  0.3584
  135SAPE     P14573   6.135   1.741  10.628  0.0078 -0.0112 -0.1153
  135SAPE   O1314574   6.151   1.604  10.668  0.6315 -0.0890  0.3151
  135SAPE   O1414575   6.023   1.807  10.690  0.1258 -0.1675  0.8588
  135SAPE   O1214576   6.263   1.814  10.679 -0.2828 -0.0183  0.2823
  135SAPE   O1114577   6.130   1.765  10.476 -0.1431  0.0605 -0.1730
  135SAPE    C114578   6.010   1.745  10.400 -0.2373  0.0361  0.0505
  135SAPE    HA14579   5.940   1.823  10.435  0.2717  0.5574 -0.0804
  135SAPE    HB14580   6.038   1.771  10.296  0.5768 -1.3551 -0.0992
  135SAPE    C214581   5.945   1.610  10.406  0.1722  0.1814  0.5442
  135SAPE    HS14582   5.915   1.583  10.509 -1.7652  0.1243 -0.0179
  135SAPE   O2114583   6.028   1.506  10.342  0.2983 -0.6179  0.6324
  135SAPE   C2114584   5.997   1.385  10.385 -0.3648 -0.4649  0.5324
  135SAPE   O2214585   5.920   1.353  10.476  0.2022 -0.4531 -0.0605
  135SAPE   C2214586   6.089   1.288  10.309  0.4049 -0.4692 -0.4683
  135SAPE   H2R14587   6.160   1.335  10.238 -1.1670 -1.7301 -2.9780
  135SAPE   H2S14588   6.162   1.243  10.380  0.3328  0.0722 -0.0549
  135SAPE    C314589   5.804   1.616  10.331  0.4090  0.4983 -0.6013
  135SAPE    HX14590   5.735   1.670  10.399  0.1427  2.2542 -2.2497
  135SAPE    HY14591   5.756   1.516  10.323  2.1211 -0.5311  1.4970
  135SAPE   O3114592   5.802   1.682  10.205  0.0531  0.4131  0.0773
  135SAPE   C3114593   5.801   1.614  10.090 -0.6625 -1.2694  1.0098
  135SAPE   O3214594   5.793   1.494  10.083  0.1045 -0.4107 -0.3976
  135SAPE   C3214595   5.817   1.714   9.977 -0.1155  0.0915  0.8671
  135SAPE   H2X14596   5.911   1.773   9.973  0.7735 -1.4087 -1.3892
  135SAPE   H2Y14597   5.738   1.792   9.970 -1.7976 -1.6382  0.2378
  135SAPE   C2314598   6.004   1.182  10.236 -0.1556 -0.0281  0.0859
  135SAPE   H3R14599   5.942   1.237  10.162  0.7171  1.1302  0.2022
  135SAPE   H3S14600   5.938   1.132  10.310 -0.6360 -1.7268 -1.4548
  135SAPE   C2414601   6.066   1.054  10.178 -0.9624 -0.1153 -0.1957
  135SAPE   H4R14602   6.131   1.090  10.096 -0.4293 -0.9135 -0.1316
  135SAPE   H4S14603   5.980   1.004  10.129 -1.4154  1.8293 -1.4097
  135SAPE   C2514604   6.135   0.975  10.289 -0.1029 -0.3953 -0.0885
  135SAPE   H5R14605   6.081   0.976  10.385 -2.7656  0.7825 -1.5554
  135SAPE   C2614606   6.249   0.911  10.271 -0.4544 -0.6642 -1.1714
  135SAPE   H6R14607   6.295   0.863  10.359 -0.9041  0.1788 -0.4575
  135SAPE   C2714608   6.339   0.899  10.148 -0.0105 -0.4030  0.2297
  135SAPE   H7R14609   6.271   0.884  10.061  0.5489  1.9947 -0.6598
  135SAPE   H7S14610   6.392   0.802  10.158 -0.8528 -0.8294  0.6621
  135SAPE   C2814611   6.433   1.020  10.121  0.3400 -0.3338  0.2213
  135SAPE   H8R14612   6.432   1.109  10.186  0.6019 -0.7960  0.8573
  135SAPE   C2914613   6.529   1.019  10.030 -0.0501  0.6713  0.0266
  135SAPE   H9R14614   6.591   1.110  10.028  1.2464 -0.1109  2.7147
  135SAPE  C21014615   6.567   0.918   9.931 -1.0712 -0.2969  0.0710
  135SAPE  H10R14616   6.481   0.913   9.861 -1.1810 -1.4039  0.2813
  135SAPE  H10S14617   6.573   0.817   9.976  0.4197  0.6766  2.1492
  135SAPE  C21114618   6.698   0.956   9.863  0.2237  0.9008 -0.3545
  135SAPE  H11R14619   6.778   0.995   9.928  2.0920  0.1628 -2.1482
  135SAPE  C21214620   6.718   0.936   9.731  0.4102  0.5544 -0.1930
  135SAPE  H12R14621   6.813   0.964   9.683  0.1672  0.1450 -0.9220
  135SAPE  C21314622   6.624   0.867   9.634 -0.2479 -0.4615  0.1138
  135SAPE  H13R14623   6.527   0.840   9.679 -0.1823  0.7142  0.9929
  135SAPE  H13S14624   6.679   0.774   9.606  0.7273  0.0254  0.3797
  135SAPE  C21414625   6.584   0.944   9.513  0.5615  0.7489  0.1333
  135SAPE  H14R14626   6.560   1.050   9.533  0.1458  0.5714  0.6196
  135SAPE  C21514627   6.586   0.891   9.391 -0.4382  0.1306  0.2241
  135SAPE  H15R14628   6.556   0.961   9.311  0.3446 -2.5563 -2.5001
  135SAPE  C21614629   6.633   0.754   9.342 -0.3959 -0.3818  0.5927
  135SAPE  H16R14630   6.545   0.694   9.311 -1.2319  0.9914  0.2626
  135SAPE  H16S14631   6.671   0.694   9.428  0.3548 -1.3422 -0.3949
  135SAPE  C21714632   6.732   0.758   9.228 -0.4637 -0.2028  0.6493
  135SAPE  H17R14633   6.751   0.650   9.208 -0.1730 -0.3036  1.4609
  135SAPE  H17S14634   6.823   0.813   9.262 -0.6622  1.4120 -1.3361
  135SAPE  C21814635   6.676   0.829   9.102 -0.7238 -0.1682  0.0520
  135SAPE  H18R14636   6.649   0.935   9.125  1.1313  0.0132  1.4965
  135SAPE  H18S14637   6.580   0.784   9.070 -0.6290  0.5222 -1.2326
  135SAPE  C21914638   6.770   0.830   8.986  0.3632 -0.5039  0.1278
  135SAPE  H19R14639   6.802   0.726   8.968 -0.1527 -0.6463  0.0105
  135SAPE  H19S14640   6.855   0.898   9.009 -0.5203  0.2634  1.2091
  135SAPE  C22014641   6.707   0.884   8.864  0.1578 -0.4157  0.0626
  135SAPE  H20R14642   6.677   0.988   8.889  2.5212  0.3267 -0.0468
  135SAPE  H20S14643   6.615   0.831   8.832  0.8012 -0.3583 -1.9637
  135SAPE  H20T14644   6.778   0.910   8.783 -0.4314  0.4250 -0.1900
  135SAPE   C3314645   5.807   1.637   9.843  0.5723 -0.2866 -0.4510
  135SAPE   H3X14646   5.706   1.591   9.829 -0.1114  0.8094  0.7428
  135SAPE   H3Y14647   5.885   1.559   9.844  0.5712 -0.2857  0.0856
  135SAPE   C3414648   5.860   1.713   9.720  0.3700  1.0577  0.4319
  135SAPE   H4X14649   5.954   1.765   9.750  0.0536  3.1569 -2.0394
  135SAPE   H4Y14650   5.786   1.791   9.691  1.0913  1.8284  0.6305
  135SAPE   C3514651   5.892   1.619   9.601 -0.0835  0.3442  0.1241
  135SAPE   H5X14652   5.800   1.562   9.576 -0.0402 -0.0527  0.8495
  135SAPE   H5Y14653   5.957   1.537   9.640  0.6363  0.7579 -0.1848
  135SAPE   C3614654   5.960   1.689   9.478 -0.3065  0.2919  0.2886
  135SAPE   H6X14655   6.038   1.756   9.521 -1.6437  2.1508 -0.1581
  135SAPE   H6Y14656   5.891   1.744   9.411 -0.7388 -3.9708 -2.9805
  135SAPE   C3714657   6.038   1.600   9.390  0.1707  0.4571 -0.0519
  135SAPE   H7X14658   5.978   1.513   9.357  1.5086 -0.4961  0.0080
  135SAPE   H7Y14659   6.132   1.563   9.437  1.6533  3.8919 -0.1749
  135SAPE   C3814660   6.083   1.671   9.264 -0.0811 -0.6545  0.0059
  135SAPE   H8X14661   6.154   1.752   9.291  0.1103 -0.1393 -2.0107
  135SAPE   H8Y14662   5.991   1.719   9.225  0.5893  0.4173 -0.2548
  135SAPE   C3914663   6.150   1.576   9.165  0.8888 -0.7997 -0.5258
  135SAPE   H9X14664   6.076   1.494   9.161 -1.2186  0.8771  2.4434
  135SAPE   H9Y14665   6.234   1.534   9.224 -1.1873 -2.0787  1.5984
  135SAPE  C31014666   6.180   1.641   9.033 -0.0207  0.4171 -0.5352
  135SAPE  H10X14667   6.218   1.745   9.042 -0.3492  0.5750 -0.9655
  135SAPE  H10Y14668   6.082   1.644   8.981 -1.4474 -2.2665  1.8420
  135SAPE  C31114669   6.282   1.560   8.954 -0.5809 -0.7116 -0.0781
  135SAPE  H11X14670   6.266   1.453   8.980 -1.1764 -1.0733 -1.8538
  135SAPE  H11Y14671   6.385   1.593   8.979  0.0781 -2.7148 -0.1164
  135SAPE  C31214672   6.256   1.552   8.801  0.7335  0.1386 -0.1636
  135SAPE  H12X14673   6.145   1.556   8.793  0.9236  0.8584 -2.6669
  135SAPE  H12Y14674   6.284   1.454   8.757 -0.5417 -0.2894 -0.0450
  135SAPE  C31314675   6.305   1.676   8.721 -0.5772 -0.2171  0.2914
  135SAPE  H13X14676   6.411   1.703   8.745 -0.6209 -0.8645  1.2554
  135SAPE  H13Y14677   6.246   1.765   8.751  0.8425  0.9130 -0.2007
  135SAPE  C31414678   6.297   1.644   8.569  0.2939 -0.4143  0.1109
  135SAPE  H14X14679   6.189   1.633   8.545  0.0069 -0.4916  1.3791
  135SAPE  H14Y14680   6.347   1.545   8.557  1.7231  0.3129 -0.0959
  135SAPE  C31514681   6.378   1.751   8.488  0.0727  0.1904 -0.3497
  135SAPE  H15X14682   6.485   1.747   8.516  0.0406  0.3525 -0.2070
  135SAPE  H15Y14683   6.335   1.850   8.514 -0.8822 -0.4166  0.3769
  135SAPE  C31614684   6.381   1.715   8.334  0.2598  0.7536  0.2335
  135SAPE  H16X14685   6.285   1.730   8.280  1.0040  2.6278 -0.5679
  135SAPE  H16Y14686   6.395   1.606   8.315  0.8487  1.0759 -1.1749
  135SAPE  C31714687   6.478   1.803   8.260  0.3028  0.1821 -0.0163
  135SAPE  H17X14688   6.480   1.764   8.155 -0.5185 -0.2414  0.1173
  135SAPE  H17Y14689   6.583   1.785   8.291  1.0130 -2.8447 -3.7414
  135SAPE  C31814690   6.444   1.952   8.274  0.0254  0.1626 -0.1671
  135SAPE  H18X14691   6.524   2.023   8.245  0.0593 -0.9183 -2.9008
  135SAPE  H18Y14692   6.422   1.981   8.379 -1.9733  0.6266 -0.6832
  135SAPE  H18Z14693   6.343   1.976   8.233 -0.1425 -0.4811 -0.1314
  136SAPE     N14694   1.016   2.041  10.769 -0.3770 -0.1430  0.2195
  136SAPE   HN114695   0.939   1.997  10.825  0.2801  0.2653  1.4540
  136SAPE   HN214696   1.101   2.053  10.827  0.0366 -0.2676 -0.3494
  136SAPE   HN314697   0.991   2.136  10.736  0.5420  0.0374  0.0366
  136SAPE   C1214698   1.054   1.942  10.653  0.2848  0.2271  0.2532
  136SAPE  H12A14699   1.067   2.007  10.563  3.6863 -0.5837  0.0815
  136SAPE  H12B14700   0.957   1.890  10.639  0.4221 -0.0326  0.2717
  136SAPE   C1114701   1.168   1.843  10.683 -0.5620 -0.3807 -1.2023
  136SAPE  H11A14702   1.208   1.802  10.588 -0.3171 -3.4282  0.1479
  136SAPE  H11B14703   1.133   1.754  10.738 -0.5950 -0.2841 -1.0665
  136SAPE     P14704   1.387   1.816  10.822  0.2919  0.0041 -0.0161
  136SAPE   O1314705   1.505   1.900  10.858 -0.2846  0.2615 -0.2985
  136SAPE   O1414706   1.326   1.743  10.934 -0.2686 -0.2269  0.1915
  136SAPE   O1214707   1.280   1.904  10.750  0.1169  0.5154 -0.4290
  136SAPE   O1114708   1.416   1.713  10.705 -0.0599  0.0504 -0.4434
  136SAPE    C114709   1.551   1.717  10.645 -0.4051 -0.0355 -0.1660
  136SAPE    HA14710   1.587   1.822  10.635 -0.6343 -0.0183 -0.8143
  136SAPE    HB14711   1.624   1.663  10.709  0.9203  0.0763 -1.5440
  136SAPE    C214712   1.556   1.643  10.509  0.0925  0.1532  0.4240
  136SAPE    HS14713   1.560   1.537  10.540 -1.5048 -0.4436 -1.3408
  136SAPE   O2114714   1.678   1.685  10.440  0.1540  0.4848  0.3110
  136SAPE   C2114715   1.727   1.590  10.361  0.6111  0.3863 -0.2139
  136SAPE   O2214716   1.684   1.476  10.346  0.2827 -0.2982 -0.2522
  136SAPE   C2214717   1.846   1.645  10.279 -0.6340 -0.0875  0.5757
  136SAPE   H2R14718   1.902   1.720  10.339 -2.0378  1.0907  0.4248
  136SAPE   H2S14719   1.922   1.566  10.261  0.1938  1.0788 -1.0709
  136SAPE    C314720   1.425   1.682  10.433 -0.6379  0.2680 -0.4393
  136SAPE    HX14721   1.419   1.792  10.417 -1.4386 -0.0282 -2.2739
  136SAPE    HY14722   1.344   1.640  10.497  1.9694 -1.0001  2.1287
  136SAPE   O3114723   1.422   1.627  10.296 -0.1528 -0.1332 -0.2562
  136SAPE   C3114724   1.380   1.499  10.282  0.0619 -0.8905 -0.9973
  136SAPE   O3214725   1.342   1.421  10.366 -0.4045  0.0552 -0.2324
  136SAPE   C3214726   1.393   1.463  10.135 -0.2872  0.4482 -0.2723
  136SAPE   H2X14727   1.473   1.533  10.102 -2.0835  2.5511 -0.2923
  136SAPE   H2Y14728   1.301   1.511  10.095  0.2823  1.8935  0.1455
  136SAPE   C2314729   1.778   1.705  10.153 -0.3495 -0.3241  0.5889
  136SAPE   H3R14730   1.736   1.801  10.188  1.6110  0.9107 -0.3756
  136SAPE   H3S14731   1.683   1.656  10.121 -2.4269  3.9408 -0.1679
  136SAPE   C2414732   1.882   1.725  10.035 -0.5008 -0.5829  0.7142
  136SAPE   H4R14733   1.915   1.634   9.981  1.9344  0.4564  0.4151
  136SAPE   H4S14734   1.966   1.779  10.083  0.8152 -1.9467 -0.0248
  136SAPE   C2514735   1.821   1.822   9.939 -0.5633  0.0766 -0.6082
  136SAPE   H5R14736   1.759   1.900   9.986  0.5066  0.5416  0.0372
  136SAPE   C2614737   1.847   1.822   9.807 -0.1525  0.3480 -0.3532
  136SAPE   H6R14738   1.795   1.899   9.748  0.2469  0.9615  0.0863
  136SAPE   C2714739   1.941   1.741   9.726 -0.5991 -0.7839 -0.0211
  136SAPE   H7R14740   2.021   1.694   9.786  2.3388  3.0757 -0.7353
  136SAPE   H7S14741   1.991   1.806   9.651 -0.8911 -1.2798 -0.6593
  136SAPE   C2814742   1.874   1.624   9.653  0.0048  0.0736 -0.6736
  136SAPE   H8R14743   1.833   1.550   9.723  0.6834  0.8440  0.5448
  136SAPE   C2914744   1.836   1.614   9.524  0.7983 -0.1695 -0.7530
  136SAPE   H9R14745   1.751   1.546   9.506  0.6627 -0.1711 -0.1195
  136SAPE  C21014746   1.865   1.706   9.408 -0.0590 -0.7260  0.2063
  136SAPE  H10R14747   1.862   1.645   9.315  0.6607  0.5360 -0.6659
  136SAPE  H10S14748   1.968   1.747   9.417 -1.4931  2.5206  2.7790
  136SAPE  C21114749   1.772   1.827   9.408  0.1267 -0.0161  0.1234
  136SAPE  H11R14750   1.733   1.851   9.508  1.4380  0.8903  0.4296
  136SAPE  C21214751   1.748   1.902   9.302  0.0522  0.5142 -0.2283
  136SAPE  H12R14752   1.687   1.993   9.315 -0.2269  0.6257 -2.1211
  136SAPE  C21314753   1.807   1.882   9.165  0.3608  0.7479  0.4803
  136SAPE  H13R14754   1.731   1.820   9.115  1.5182 -0.5781  0.3437
  136SAPE  H13S14755   1.899   1.819   9.165  1.7059  2.6451  0.0996
  136SAPE  C21414756   1.843   2.012   9.095  0.2058 -0.4654  0.2006
  136SAPE  H14R14757   1.932   2.062   9.135 -0.9516  2.0782 -0.2810
  136SAPE  C21514758   1.791   2.069   8.985 -0.2521  0.5410  0.1730
  136SAPE  H15R14759   1.825   2.170   8.959  0.3105 -0.2288 -2.1748
  136SAPE  C21614760   1.674   2.021   8.905  0.1192 -0.3795  0.1609
  136SAPE  H16R14761   1.584   2.085   8.911  1.3665  1.2926  1.9062
  136SAPE  H16S14762   1.647   1.922   8.946  0.5540 -1.1964 -1.4657
  136SAPE  C21714763   1.714   1.977   8.765 -0.0067 -0.0855  0.3290
  136SAPE  H17R14764   1.801   1.909   8.775  0.8010  0.5867 -1.8987
  136SAPE  H17S14765   1.739   2.061   8.696  0.1977 -0.9353 -0.6356
  136SAPE  C21814766   1.602   1.901   8.701 -0.0671 -0.2679  0.3448
  136SAPE  H18R14767   1.554   1.829   8.771  0.2183 -0.1192  0.6951
  136SAPE  H18S14768   1.641   1.839   8.617 -1.3101 -1.9093  0.9402
  136SAPE  C21914769   1.483   1.986   8.653  0.0816  0.3863  0.4932
  136SAPE  H19R14770   1.524   2.058   8.579  0.7487 -0.3461  0.1462
  136SAPE  H19S14771   1.444   2.044   8.739 -0.1483 -0.7644  1.1818
  136SAPE  C22014772   1.362   1.912   8.584  0.3818 -0.5271  0.3307
  136SAPE  H20R14773   1.264   1.962   8.603 -0.8594 -3.0735  0.9056
  136SAPE  H20S14774   1.350   1.810   8.628 -0.3955  0.2123  1.8619
  136SAPE  H20T14775   1.381   1.899   8.475  0.4649 -1.7533  0.4768
  136SAPE   C3314776   1.415   1.314  10.104  0.1152 -0.2138  0.3709
  136SAPE   H3X14777   1.323   1.265  10.142 -1.2788  2.2494  0.2187
  136SAPE   H3Y14778   1.492   1.274  10.174 -0.1930  2.9402  2.6048
  136SAPE   C3414779   1.447   1.270   9.959  0.6782  0.0052 -0.2292
  136SAPE   H4X14780   1.444   1.160   9.942 -1.2528 -0.2855  1.7172
  136SAPE   H4Y14781   1.550   1.305   9.934  0.8691 -1.2158 -1.1697
  136SAPE   C3514782   1.351   1.328   9.849  0.1886  0.3102  0.4636
  136SAPE   H5X14783   1.355   1.438   9.865 -1.1278  0.7399 -1.9498
  136SAPE   H5Y14784   1.252   1.287   9.878 -0.5076  0.6328 -1.4461
  136SAPE   C3614785   1.400   1.294   9.711 -0.7621 -0.2724  0.2272
  136SAPE   H6X14786   1.439   1.190   9.712 -1.4981 -0.5565 -0.1525
  136SAPE   H6Y14787   1.493   1.353   9.702  0.1621 -1.7303  0.0810
  136SAPE   C3714788   1.290   1.314   9.604 -0.4639  0.6123  0.5610
  136SAPE   H7X14789   1.266   1.422   9.617  0.5158  0.9259 -0.1525
  136SAPE   H7Y14790   1.203   1.250   9.628  0.8495 -0.3041  3.0381
  136SAPE   C3814791   1.326   1.279   9.459 -0.1166  0.0582  0.2737
  136SAPE   H8X14792   1.353   1.171   9.451 -1.8073 -0.1537 -3.8381
  136SAPE   H8Y14793   1.414   1.330   9.415  0.7153 -0.5310  1.2074
  136SAPE   C3914794   1.210   1.301   9.364 -0.2078  0.2143  0.3485
  136SAPE   H9X14795   1.178   1.407   9.369  1.7610  0.8801 -0.4704
  136SAPE   H9Y14796   1.116   1.246   9.386 -0.5102 -0.7498 -3.0166
  136SAPE  C31014797   1.253   1.265   9.226 -0.4223 -0.1053 -0.5784
  136SAPE  H10X14798   1.305   1.168   9.244 -1.8382 -0.8898 -0.6952
  136SAPE  H10Y14799   1.320   1.347   9.191 -0.9120  1.1396  1.3293
  136SAPE  C31114800   1.143   1.230   9.122  0.5431 -0.1130 -0.2895
  136SAPE  H11X14801   1.061   1.304   9.128 -0.5539 -1.3125 -0.3032
  136SAPE  H11Y14802   1.102   1.128   9.134 -0.6549  0.3408 -0.4583
  136SAPE  C31214803   1.196   1.220   8.979 -0.2831  0.1724  0.6354
  136SAPE  H12X14804   1.112   1.189   8.914 -1.0291  2.4919  0.4490
  136SAPE  H12Y14805   1.267   1.136   8.968  0.0751  0.4131  1.0734
  136SAPE  C31314806   1.251   1.352   8.917  0.0139  0.3831  0.2160
  136SAPE  H13X14807   1.359   1.368   8.939  0.4694  1.7911 -2.7395
  136SAPE  H13Y14808   1.188   1.436   8.953 -0.1635 -0.2200  1.3180
  136SAPE  C31414809   1.243   1.356   8.767  0.1164 -0.1495  0.8095
  136SAPE  H14X14810   1.140   1.370   8.727  0.9610 -3.2421 -2.7191
  136SAPE  H14Y14811   1.277   1.256   8.732 -0.2843  0.1369 -0.4026
  136SAPE  C31514812   1.342   1.463   8.716 -0.4449  0.5675  0.7631
  136SAPE  H15X14813   1.446   1.464   8.755  0.1791  0.5006 -0.9039
  136SAPE  H15Y14814   1.301   1.564   8.737  0.9813  1.4891 -0.7308
  136SAPE  C31614815   1.358   1.450   8.567 -0.8435  0.0650  0.0939
  136SAPE  H16X14816   1.256   1.465   8.528 -0.6311 -3.3138 -1.9032
  136SAPE  H16Y14817   1.377   1.344   8.541  0.0313  0.1874  0.1962
  136SAPE  C31714818   1.472   1.532   8.503  0.5112  0.6926  0.1671
  136SAPE  H17X14819   1.567   1.502   8.553  0.5125  0.4877  0.0409
  136SAPE  H17Y14820   1.464   1.639   8.532 -0.3648  0.5914  0.3136
  136SAPE  C31814821   1.499   1.521   8.353 -0.4491 -0.0233 -0.3103
  136SAPE  H18X14822   1.514   1.425   8.299  3.6326  0.9999 -1.2165
  136SAPE  H18Y14823   1.583   1.591   8.334  0.9589 -1.2381  1.3224
  136SAPE  H18Z14824   1.407   1.557   8.301 -0.7062 -2.6427 -1.7817
  137SAPE     N14825   0.281   4.654  11.010  0.2940 -0.1619  0.1555
  137SAPE   HN114826   0.222   4.730  10.972  0.3799 -0.1806 -0.0213
  137SAPE   HN214827   0.366   4.700  11.048  0.6278  0.3832 -1.2282
  137SAPE   HN314828   0.317   4.590  10.936 -0.2561  0.5417 -0.7287
  137SAPE   C1214829   0.221   4.559  11.112 -0.3571 -0.0886  0.1200
  137SAPE  H12A14830   0.191   4.619  11.200  0.6228  1.0012 -0.2618
  137SAPE  H12B14831   0.302   4.490  11.143 -0.4963  0.3854  1.5481
  137SAPE   C1114832   0.099   4.485  11.049  0.0136 -0.1689 -0.3879
  137SAPE  H11A14833   0.043   4.428  11.125 -0.0816 -0.6891 -0.8449
  137SAPE  H11B14834   0.129   4.416  10.967  2.7698 -0.6565  0.9676
  137SAPE     P14835  -0.112   4.536  10.893 -0.3778  0.1693  0.0621
  137SAPE   O1314836  -0.147   4.394  10.905  0.0928 -0.4374  0.7968
  137SAPE   O1414837  -0.221   4.632  10.919 -0.0468 -0.4638  0.4723
  137SAPE   O1214838   0.005   4.578  10.994  0.1452 -0.3350  0.3569
  137SAPE   O1114839  -0.045   4.564  10.754 -0.1546  0.4903 -0.1198
  137SAPE    C114840   0.021   4.691  10.739  0.3506  0.5078  0.9208
  137SAPE    HA14841  -0.046   4.772  10.776 -0.6661 -0.1529  0.5252
  137SAPE    HB14842   0.122   4.684  10.784  0.5728 -0.4523  0.2683
  137SAPE    C214843   0.046   4.728  10.593 -0.0202  0.4438  0.1190
  137SAPE    HS14844   0.060   4.838  10.586 -0.7273  0.5757  0.6600
  137SAPE   O2114845  -0.067   4.684  10.508  0.0730  0.1447  0.0773
  137SAPE   C2114846  -0.156   4.788  10.512  0.8084  0.3649  0.3888
  137SAPE   O2214847  -0.149   4.891  10.582  0.2917  0.0061  0.2371
  137SAPE   C2214848  -0.284   4.736  10.433  0.3583 -0.9571 -0.0391
  137SAPE   H2R14849  -0.287   4.626  10.419  1.2268 -0.9957  0.0803
  137SAPE   H2S14850  -0.372   4.762  10.495  0.6034 -3.8140  1.5912
  137SAPE    C314851   0.172   4.654  10.545  0.1272  0.4924  0.8230
  137SAPE    HX14852   0.164   4.544  10.557  4.3542 -0.0536 -0.5518
  137SAPE    HY14853   0.258   4.679  10.611  0.6058 -2.5607  1.4405
  137SAPE   O3114854   0.196   4.689  10.404  0.1668 -0.1699 -0.2378
  137SAPE   C3114855   0.145   4.604  10.309  0.4143 -0.5684 -0.4310
  137SAPE   O3214856   0.076   4.504  10.328  0.0196 -0.0543  0.3220
  137SAPE   C3214857   0.193   4.640  10.171 -0.4111 -0.4905 -0.0363
  137SAPE   H2X14858   0.224   4.746  10.173  0.1515 -0.6772  2.2398
  137SAPE   H2Y14859   0.107   4.631  10.101 -0.6207  0.2011  0.1301
  137SAPE   C2314860  -0.307   4.809  10.301  0.1930 -0.3304 -0.1289
  137SAPE   H3R14861  -0.293   4.916  10.327 -0.5045 -0.4967  0.9539
  137SAPE   H3S14862  -0.413   4.806  10.267  0.0456 -2.0645  0.4679
  137SAPE   C2414863  -0.221   4.762  10.184  0.1297  0.6717 -0.4746
  137SAPE   H4R14864  -0.249   4.656  10.164 -0.6766  1.0227 -1.2448
  137SAPE   H4S14865  -0.112   4.769  10.203 -0.2741  0.4788  2.1087
  137SAPE   C2514866  -0.245   4.851  10.068  0.2250  0.3317  0.7453
  137SAPE   H5R14867  -0.259   4.954  10.104  1.4128  0.8791 -0.3436
  137SAPE   C2614868  -0.260   4.813   9.936 -0.2302 -0.4596 -0.4829
  137SAPE   H6R14869  -0.274   4.890   9.860 -0.7901  1.1191  1.1765
  137SAPE   C2714870  -0.251   4.671   9.885  0.5963  0.6364 -0.3597
  137SAPE   H7R14871  -0.238   4.611   9.977 -0.6556  1.5540  0.4247
  137SAPE   H7S14872  -0.153   4.657   9.833  0.6985  1.9176 -0.5308
  137SAPE   C2814873  -0.362   4.623   9.794  0.0414  0.0691  0.5204
  137SAPE   H8R14874  -0.446   4.591   9.857 -0.6191 -1.5963 -1.1897
  137SAPE   C2914875  -0.360   4.605   9.661 -0.5079  0.2357  0.4170
  137SAPE   H9R14876  -0.446   4.565   9.606  0.2986  1.1487 -1.5972
  137SAPE  C21014877  -0.242   4.637   9.568  0.1990  0.0622 -0.0847
  137SAPE  H10R14878  -0.186   4.542   9.551 -0.6947 -0.4242 -0.3725
  137SAPE  H10S14879  -0.173   4.708   9.618 -0.8209 -0.3229  1.8808
  137SAPE  C21114880  -0.278   4.700   9.434  0.4165  0.7748  0.2067
  137SAPE  H11R14881  -0.293   4.809   9.437 -0.4858  0.6364  1.1161
  137SAPE  C21214882  -0.301   4.635   9.320  0.1347  0.3084 -0.4312
  137SAPE  H12R14883  -0.335   4.694   9.233  1.4529  0.4157 -0.8938
  137SAPE  C21314884  -0.294   4.492   9.298 -0.6098 -0.4551 -0.8410
  137SAPE  H13R14885  -0.287   4.442   9.397 -2.3583  1.4756  0.3002
  137SAPE  H13S14886  -0.195   4.459   9.260  0.0999 -1.1579  1.5455
  137SAPE  C21414887  -0.400   4.437   9.210  0.3497 -0.1464 -0.6506
  137SAPE  H14R14888  -0.473   4.374   9.263  1.1862 -1.3142 -0.8672
  137SAPE  C21514889  -0.412   4.456   9.076 -0.1354  0.2360 -0.5551
  137SAPE  H15R14890  -0.488   4.397   9.024 -0.2535 -0.3695  0.2906
  137SAPE  C21614891  -0.320   4.527   8.980  0.2416  0.5528 -0.2967
  137SAPE  H16R14892  -0.218   4.533   9.023  0.1482 -0.0213  0.0166
  137SAPE  H16S14893  -0.358   4.632   8.974 -0.8566  0.2041  0.3727
  137SAPE  C21714894  -0.320   4.460   8.838 -0.1540  0.6386 -0.0713
  137SAPE  H17R14895  -0.254   4.518   8.770  0.7572 -2.5177 -1.9784
  137SAPE  H17S14896  -0.423   4.465   8.798 -0.3965 -0.7934  0.3392
  137SAPE  C21814897  -0.280   4.310   8.840 -0.2280 -0.2111 -0.0650
  137SAPE  H18R14898  -0.359   4.257   8.897 -0.0966 -1.3283 -0.9188
  137SAPE  H18S14899  -0.184   4.314   8.896 -0.8134 -0.1749  0.9653
  137SAPE  C21914900  -0.268   4.250   8.699  0.5643 -0.5601  0.3727
  137SAPE  H19R14901  -0.177   4.289   8.650 -0.8690  1.2055 -0.9625
  137SAPE  H19S14902  -0.363   4.279   8.649  2.7591  3.7521 -1.5076
  137SAPE  C22014903  -0.247   4.094   8.700  0.1480  0.0969  0.2833
  137SAPE  H20R14904  -0.167   4.075   8.775  1.1629  1.1398 -0.4932
  137SAPE  H20S14905  -0.216   4.056   8.600  1.3811 -0.7889  0.9811
  137SAPE  H20T14906  -0.339   4.039   8.727 -1.4431  3.6997  2.6944
  137SAPE   C3314907   0.315   4.548  10.121  0.2385 -0.7958 -0.1045
  137SAPE   H3X14908   0.283   4.442  10.123 -1.1984 -0.3625  0.5902
  137SAPE   H3Y14909   0.404   4.550  10.188  1.5586  1.9744 -1.8418
  137SAPE   C3414910   0.362   4.583   9.984 -0.0501 -0.0284 -0.3761
  137SAPE   H4X14911   0.276   4.584   9.914 -0.1188  2.5790 -0.3211
  137SAPE   H4Y14912   0.419   4.497   9.944 -1.9826 -2.2957  1.6037
  137SAPE   C3514913   0.443   4.712   9.962  0.2304 -0.6183 -0.3709
  137SAPE   H5X14914   0.529   4.698  10.031  0.5894  0.8901 -0.5119
  137SAPE   H5Y14915   0.374   4.786  10.008  0.7555 -1.7322  2.3128
  137SAPE   C3614916   0.485   4.740   9.813 -0.6519 -0.4882  0.2842
  137SAPE   H6X14917   0.578   4.802   9.812  0.3284 -1.9546 -0.3629
  137SAPE   H6Y14918   0.406   4.795   9.758 -0.1115  1.4607  1.3837
  137SAPE   C3714919   0.539   4.622   9.738  0.2736  0.2108  0.3670
  137SAPE   H7X14920   0.451   4.558   9.714 -0.2154  0.2643  1.9505
  137SAPE   H7Y14921   0.611   4.561   9.797 -0.9239 -4.2278 -2.4652
  137SAPE   C3814922   0.609   4.678   9.612 -0.6036 -1.0388  0.3505
  137SAPE   H8X14923   0.650   4.592   9.555 -0.1237 -1.7157  1.6971
  137SAPE   H8Y14924   0.699   4.741   9.634 -1.2424  0.5370 -1.4436
  137SAPE   C3914925   0.520   4.757   9.525  0.5621 -0.6147 -0.2570
  137SAPE   H9X14926   0.495   4.857   9.567 -1.1918 -1.3615  0.5413
  137SAPE   H9Y14927   0.422   4.707   9.511  0.7652 -0.5900 -1.8416
  137SAPE  C31014928   0.585   4.772   9.391  0.0935  0.4632 -0.5056
  137SAPE  H10X14929   0.589   4.682   9.326 -0.4360  0.1798 -0.1454
  137SAPE  H10Y14930   0.692   4.803   9.400 -0.7700  3.1373  0.9080
  137SAPE  C31114931   0.517   4.889   9.313 -0.4704 -0.2443  0.2944
  137SAPE  H11X14932   0.520   4.985   9.368 -0.1275  0.4366 -0.8879
  137SAPE  H11Y14933   0.418   4.859   9.273 -1.6811 -0.5730  3.3996
  137SAPE  C31214934   0.599   4.915   9.184  0.5427  0.0985  0.1434
  137SAPE  H12X14935   0.702   4.883   9.210 -0.0285 -0.9002  1.2847
  137SAPE  H12Y14936   0.597   5.024   9.167 -1.1372 -0.2236 -1.8963
  137SAPE  C31314937   0.557   4.845   9.050 -0.0680 -0.1406 -0.2394
  137SAPE  H13X14938   0.498   4.752   9.066 -0.6429  0.1627 -0.5863
  137SAPE  H13Y14939   0.650   4.822   8.993 -0.6147 -2.6226 -0.2078
  137SAPE  C31414940   0.475   4.952   8.971 -0.3588  0.2620  0.3746
  137SAPE  H14X14941   0.540   5.041   8.960 -0.3763  0.2681  0.3112
  137SAPE  H14Y14942   0.388   4.985   9.031 -1.6628 -1.2303 -0.6380
  137SAPE  C31514943   0.432   4.909   8.829 -0.2765  0.4606 -0.0396
  137SAPE  H15X14944   0.354   4.830   8.841 -0.1119 -0.0426 -2.1740
  137SAPE  H15Y14945   0.522   4.860   8.788 -1.1368 -2.6442  1.6455
  137SAPE  C31614946   0.371   5.020   8.741 -0.4072 -0.5200 -0.6256
  137SAPE  H16X14947   0.287   5.057   8.803 -0.5668 -2.3785  0.3004
  137SAPE  H16Y14948   0.323   4.976   8.651  0.0948  1.8341 -2.0856
  137SAPE  C31714949   0.460   5.133   8.690 -0.0404 -0.6851  0.4393
  137SAPE  H17X14950   0.540   5.086   8.628 -0.1707 -2.2199  1.4153
  137SAPE  H17Y14951   0.516   5.176   8.776  1.0854 -0.8139 -0.2147
  137SAPE  C31814952   0.380   5.237   8.615  0.7695 -0.2995  0.7455
  137SAPE  H18X14953   0.441   5.314   8.565  0.6802 -1.4945 -1.2716
  137SAPE  H18Y14954   0.305   5.288   8.680 -0.7931 -1.6351  0.0507
  137SAPE  H18Z14955   0.321   5.183   8.537  0.0126 -0.9605  1.7511
  138SAPE     N14956   3.977   5.656  11.007 -0.3972 -0.3195 -0.2559
  138SAPE   HN114957   3.992   5.682  11.107  2.0231 -1.3879 -0.3204
  138SAPE   HN214958   3.888   5.603  10.998 -0.4828 -0.3860  0.8702
  138SAPE   HN314959   4.054   5.612  10.954  1.2085  2.1900 -0.1130
  138SAPE   C1214960   3.951   5.788  10.932 -0.1371  0.2932 -0.0725
  138SAPE  H12A14961   3.865   5.844  10.975  0.9217  0.8419  1.3590
  138SAPE  H12B14962   3.927   5.770  10.825  0.6130  0.4759 -0.2676
  138SAPE   C1114963   4.085   5.866  10.950 -0.6284 -0.5482  0.1764
  138SAPE  H11A14964   4.110   5.877  11.058 -1.1021  2.0350  0.0559
  138SAPE  H11B14965   4.069   5.971  10.920 -1.3578 -0.4852  0.7673
  138SAPE     P14966   4.261   5.855  10.758  0.3422  0.0744 -0.2633
  138SAPE   O1314967   4.279   5.999  10.787 -0.8251 -0.0105  0.7639
  138SAPE   O1414968   4.378   5.775  10.726  0.3420  0.7717  0.1672
  138SAPE   O1214969   4.193   5.798  10.886 -0.4245 -0.5025  0.5701
  138SAPE   O1114970   4.158   5.838  10.647  0.0275 -0.4418 -0.3545
  138SAPE    C114971   4.117   5.698  10.613  0.4816  0.7954  0.1549
  138SAPE    HA14972   4.145   5.621  10.688 -0.2067 -2.0324 -2.4055
  138SAPE    HB14973   4.007   5.689  10.620  0.5922  0.0803  1.1130
  138SAPE    C214974   4.154   5.660  10.471  0.1758 -0.2575  0.4573
  138SAPE    HS14975   4.265   5.665  10.467  0.0802  3.9149  0.7258
  138SAPE   O2114976   4.098   5.752  10.381 -0.1830 -0.2952  0.1682
  138SAPE   C2114977   4.171   5.865  10.332  0.0195 -0.2119 -0.2053
  138SAPE   O2214978   4.290   5.871  10.346 -0.3672 -0.6431 -0.2958
  138SAPE   C2214979   4.072   5.976  10.279  0.3874 -0.5678 -0.1402
  138SAPE   H2R14980   3.975   5.969  10.333  0.5517 -1.1125  0.0918
  138SAPE   H2S14981   4.129   6.067  10.308 -0.1086 -0.2946 -0.0358
  138SAPE    C314982   4.089   5.524  10.440 -1.0651 -0.2887 -0.9126
  138SAPE    HX14983   3.978   5.526  10.433 -0.9736  0.2371 -2.4448
  138SAPE    HY14984   4.117   5.460  10.526  2.7167  0.2893 -1.6368
  138SAPE   O3114985   4.149   5.463  10.322 -0.2614  0.3648 -0.3672
  138SAPE   C3114986   4.080   5.501  10.206 -0.1273 -0.0724 -0.7446
  138SAPE   O3214987   3.985   5.580  10.201  0.4006 -0.3128 -0.3291
  138SAPE   C3214988   4.149   5.437  10.090  0.6222 -0.4343 -0.0582
  138SAPE   H2X14989   4.085   5.350  10.064  0.2214  0.1903 -1.1767
  138SAPE   H2Y14990   4.246   5.397  10.126  0.5548 -0.6211 -0.0825
  138SAPE   C2314991   4.053   5.970  10.124  0.9109 -0.5371  0.0259
  138SAPE   H3R14992   4.038   5.866  10.088  2.0208 -0.8296  0.4072
  138SAPE   H3S14993   4.135   6.009  10.061 -0.5538 -0.2884 -1.7572
  138SAPE   C2414994   3.926   6.046  10.078 -1.2957 -0.7544 -0.1141
  138SAPE   H4R14995   3.850   6.006  10.148 -1.8916 -1.2853 -1.0544
  138SAPE   H4S14996   3.896   6.011   9.977 -2.9897  0.6031 -0.1217
  138SAPE   C2514997   3.928   6.194  10.089 -0.3553 -0.8416  0.6920
  138SAPE   H5R14998   3.938   6.235  10.191 -1.7966  2.3324 -0.3722
  138SAPE   C2614999   3.915   6.279   9.988 -0.2353 -0.3664 -0.2179
  138SAPE   H6R15000   3.918   6.384  10.021 -0.4600  0.1663 -1.8871
  138SAPE   C2715001   3.904   6.252   9.842  0.4276  0.3253  0.3209
  138SAPE   H7R15002   3.952   6.155   9.819  0.8576  0.6346 -0.0798
  138SAPE   H7S15003   3.966   6.328   9.790  0.4218  0.9908  1.2672
  138SAPE   C2815004   3.765   6.256   9.779 -0.2816 -0.2544  0.5502
  138SAPE   H8R15005   3.685   6.310   9.832 -0.3267  1.4150 -1.1544
  138SAPE   C2915006   3.731   6.215   9.656 -0.2554  0.1961  0.0734
  138SAPE   H9R15007   3.626   6.223   9.626  0.4676  2.2611 -2.0518
  138SAPE  C21015008   3.810   6.147   9.549 -0.7432 -0.9318  0.1148
  138SAPE  H10R15009   3.812   6.036   9.548  0.2027 -0.9205 -1.6209
  138SAPE  H10S15010   3.917   6.177   9.560 -1.0601  1.2977 -2.4754
  138SAPE  C21115011   3.770   6.200   9.414  0.0345  0.4357  0.3306
  138SAPE  H11R15012   3.798   6.305   9.395 -1.1939  0.5834 -0.7095
  138SAPE  C21215013   3.738   6.140   9.303 -0.1417 -0.0756 -0.7838
  138SAPE  H12R15014   3.709   6.205   9.219  3.0109  1.4732 -0.7590
  138SAPE  C21315015   3.733   5.981   9.296 -0.5915  0.1058  0.3079
  138SAPE  H13R15016   3.677   5.943   9.383  0.4812  0.9496  1.3855
  138SAPE  H13S15017   3.836   5.938   9.306  0.4618  3.0309  2.8124
  138SAPE  C21415018   3.690   5.936   9.155 -0.3676 -0.6496 -0.2088
  138SAPE  H14R15019   3.765   5.961   9.078 -2.0222  2.2543 -0.9687
  138SAPE  C21515020   3.584   5.873   9.114  0.5045 -0.5717  0.0121
  138SAPE  H15R15021   3.577   5.848   9.007 -0.2250  1.4432 -0.4288
  138SAPE  C21615022   3.466   5.825   9.197 -0.4308 -0.1924 -0.1310
  138SAPE  H16R15023   3.486   5.834   9.306  0.5892  1.7349 -0.4404
  138SAPE  H16S15024   3.433   5.721   9.181  0.7913 -0.5464 -0.3867
  138SAPE  C21715025   3.344   5.916   9.172 -0.8207  0.0527 -0.2925
  138SAPE  H17R15026   3.370   6.015   9.215 -2.6696  1.2105 -1.7943
  138SAPE  H17S15027   3.274   5.877   9.250 -1.3274  0.8033 -0.3677
  138SAPE  C21815028   3.276   5.920   9.034  0.2128  0.0574  0.3733
  138SAPE  H18R15029   3.240   5.819   9.007 -1.2480  0.6616  0.0492
  138SAPE  H18S15030   3.362   5.934   8.966 -0.9886  1.3477 -0.9050
  138SAPE  C21915031   3.159   6.019   9.017 -0.6775 -0.6767  0.4891
  138SAPE  H19R15032   3.083   6.002   9.096 -1.2652 -0.2441  0.0251
  138SAPE  H19S15033   3.095   5.996   8.929 -1.8860 -0.8032  1.3943
  138SAPE  C22015034   3.208   6.162   8.996 -0.0794  0.2552 -0.7617
  138SAPE  H20R15035   3.129   6.237   8.980 -0.3653  0.3057  0.7773
  138SAPE  H20S15036   3.278   6.169   8.910  0.9569 -0.8027 -0.0307
  138SAPE  H20T15037   3.265   6.201   9.083  1.1820  2.5129 -2.5620
  138SAPE   C3315038   4.166   5.542   9.981 -0.3048  1.0126 -0.0233
  138SAPE   H3X15039   4.254   5.507   9.922  0.6286  3.5194 -0.1843
  138SAPE   H3Y15040   4.205   5.637  10.022  0.6244  0.6505 -0.0577
  138SAPE   C3415041   4.069   5.546   9.869 -0.0508 -0.1730 -0.1811
  138SAPE   H4X15042   3.971   5.576   9.911  0.2902 -1.3399  1.5173
  138SAPE   H4Y15043   4.050   5.441   9.839  4.0311 -1.3975  1.1988
  138SAPE   C3515044   4.113   5.633   9.746  0.1908 -0.1364  0.1275
  138SAPE   H5X15045   4.047   5.599   9.663 -0.4734 -2.9727  1.7297
  138SAPE   H5Y15046   4.207   5.602   9.695  0.1086  0.2851 -0.2876
  138SAPE   C3615047   4.123   5.783   9.780  0.2607 -0.1251  0.7162
  138SAPE   H6X15048   4.198   5.797   9.861  2.5365  0.7260 -1.4705
  138SAPE   H6Y15049   4.024   5.823   9.811 -0.4478  1.1008 -2.8545
  138SAPE   C3715050   4.188   5.862   9.661  0.1175  0.0955  0.3067
  138SAPE   H7X15051   4.275   5.800   9.633  0.0913  0.7922 -1.3711
  138SAPE   H7Y15052   4.216   5.966   9.687  1.2651 -0.6321  2.0201
  138SAPE   C3815053   4.096   5.875   9.538  0.7757 -0.4310  0.0288
  138SAPE   H8X15054   4.055   5.978   9.536  1.1652 -0.2720  0.2820
  138SAPE   H8Y15055   4.008   5.809   9.552 -0.6050  1.6004  1.2222
  138SAPE   C3915056   4.162   5.823   9.417  0.5311 -0.1708  0.1477
  138SAPE   H9X15057   4.083   5.789   9.347  0.1484  3.9894 -1.6066
  138SAPE   H9Y15058   4.233   5.739   9.436  1.8225  0.8518 -0.0632
  138SAPE  C31015059   4.222   5.942   9.334 -0.9523 -0.9470  0.7823
  138SAPE  H10X15060   4.326   5.967   9.363 -1.3066 -0.6701  1.8352
  138SAPE  H10Y15061   4.158   6.031   9.353 -1.0246 -1.0916  1.2288
  138SAPE  C31115062   4.226   5.920   9.183  0.0707  0.2826 -0.4194
  138SAPE  H11X15063   4.244   6.020   9.138  0.9567 -0.2635 -1.2933
  138SAPE  H11Y15064   4.123   5.889   9.154  0.3515  0.2763 -1.4412
  138SAPE  C31215065   4.325   5.808   9.141 -0.6472  0.5622  0.1351
  138SAPE  H12X15066   4.285   5.713   9.183 -0.1873  0.5816  0.6216
  138SAPE  H12Y15067   4.423   5.826   9.189  0.0458  0.5045 -1.2366
  138SAPE  C31315068   4.353   5.800   8.984  0.1689 -0.6042  0.0196
  138SAPE  H13X15069   4.388   5.899   8.947  0.6439 -1.4627 -1.8820
  138SAPE  H13Y15070   4.255   5.776   8.938 -0.2215  0.4091  0.3098
  138SAPE  C31415071   4.464   5.694   8.976  0.1567  0.2953 -0.1888
  138SAPE  H14X15072   4.434   5.647   8.880  1.6694 -0.3177 -0.3713
  138SAPE  H14Y15073   4.471   5.608   9.047  0.2089  0.1691 -0.3475
  138SAPE  C31515074   4.599   5.755   8.956 -0.0581 -0.0588  0.4081
  138SAPE  H15X15075   4.679   5.682   8.980 -0.2795 -0.0196  1.2627
  138SAPE  H15Y15076   4.608   5.842   9.025  0.9811  1.9527 -2.1350
  138SAPE  C31615077   4.631   5.805   8.814  0.3511 -0.0518  0.2285
  138SAPE  H16X15078   4.735   5.838   8.796 -0.2200  0.8379 -1.6798
  138SAPE  H16Y15079   4.574   5.899   8.798  0.6060  0.0967  0.1905
  138SAPE  C31715080   4.581   5.707   8.698 -0.4847 -0.4374 -0.3980
  138SAPE  H17X15081   4.472   5.710   8.681 -0.9177  1.2637  2.3439
  138SAPE  H17Y15082   4.609   5.603   8.725  2.1074  0.2911 -0.1054
  138SAPE  C31815083   4.657   5.747   8.578 -0.5007 -0.0367  0.2609
  138SAPE  H18X15084   4.646   5.664   8.505  2.8513 -2.3509  2.2267
  138SAPE  H18Y15085   4.766   5.735   8.596  0.1779  1.8558 -2.3335
  138SAPE  H18Z15086   4.626   5.842   8.529 -0.0658  0.3312  0.7005
  139SAPE     N15087   3.390   4.071  11.003  0.1911 -0.0600 -0.3255
  139SAPE   HN115088   3.297   4.035  10.973  0.5365 -0.5072 -0.8632
  139SAPE   HN215089   3.362   4.145  11.071 -0.6139 -0.9448  0.3208
  139SAPE   HN315090   3.437   4.114  10.920  0.9378  1.6659  0.9423
  139SAPE   C1215091   3.483   3.972  11.076  0.0324 -0.1880 -0.3379
  139SAPE  H12A15092   3.442   3.938  11.173 -2.3304  1.4557 -0.7184
  139SAPE  H12B15093   3.563   4.046  11.099 -0.8305  1.1209 -1.4641
  139SAPE   C1115094   3.532   3.864  10.983  0.0016 -0.8104  0.8777
  139SAPE  H11A15095   3.451   3.788  10.990 -1.1124  0.2458 -0.2366
  139SAPE  H11B15096   3.625   3.817  11.022  0.8331 -1.7476 -2.0756
  139SAPE     P15097   3.464   3.863  10.730 -0.0399 -0.5391 -0.0183
  139SAPE   O1315098   3.485   3.721  10.693  0.1343 -0.1847 -1.0260
  139SAPE   O1415099   3.328   3.894  10.773 -0.4717 -0.0993  0.1413
  139SAPE   O1215100   3.569   3.899  10.845  0.0853  0.6853 -0.0306
  139SAPE   O1115101   3.512   3.968  10.622 -0.3893  0.1763  0.3970
  139SAPE    C115102   3.629   3.945  10.538  0.5344 -0.4992 -0.1204
  139SAPE    HA15103   3.687   4.039  10.533 -0.1423  0.0418  1.8044
  139SAPE    HB15104   3.704   3.868  10.566  1.4608  0.2573 -0.4699
  139SAPE    C215105   3.590   3.914  10.384 -0.0381 -0.1147 -0.3548
  139SAPE    HS15106   3.684   3.930  10.326  0.6954  0.9723  1.0861
  139SAPE   O2115107   3.495   4.011  10.337  0.2331  0.2401  0.2342
  139SAPE   C2115108   3.543   4.130  10.308 -0.1389  0.4697 -0.0168
  139SAPE   O2215109   3.647   4.180  10.347 -0.2901 -0.2173  0.4797
  139SAPE   C2215110   3.420   4.202  10.238  0.1339  0.4468 -0.4280
  139SAPE   H2R15111   3.335   4.183  10.306  0.7552 -0.4860  0.1144
  139SAPE   H2S15112   3.447   4.310  10.235 -5.3940  2.0450  1.7380
  139SAPE    C315113   3.541   3.777  10.354  0.6202 -0.3878  0.0413
  139SAPE    HX15114   3.445   3.782  10.410  1.6543  1.9204  1.6696
  139SAPE    HY15115   3.605   3.698  10.398 -1.3511 -0.7622  2.3733
  139SAPE   O3115116   3.520   3.754  10.205 -0.3025 -0.7579 -0.3911
  139SAPE   C3115117   3.463   3.634  10.198 -0.8629  0.2933  0.1216
  139SAPE   O3215118   3.438   3.566  10.294 -0.0626 -0.1029 -0.1152
  139SAPE   C3215119   3.454   3.592  10.050  0.1615  0.4324  0.2001
  139SAPE   H2X15120   3.554   3.577  10.002  0.6615  1.6222  0.8456
  139SAPE   H2Y15121   3.407   3.680  10.001  0.7356  0.7930  0.2968
  139SAPE   C2315122   3.398   4.163  10.089  0.3387 -0.0184  0.1921
  139SAPE   H3R15123   3.388   4.054  10.072  1.8462 -0.2896  1.0098
  139SAPE   H3S15124   3.487   4.187  10.026  0.0016 -1.2078 -0.7573
  139SAPE   C2415125   3.284   4.244  10.028 -0.3381 -0.1485  0.2747
  139SAPE   H4R15126   3.291   4.351  10.056  0.6781 -0.1858  0.1543
  139SAPE   H4S15127   3.192   4.208  10.079 -0.7685  2.2749  1.3121
  139SAPE   C2515128   3.280   4.236   9.876  0.5890 -0.0065 -0.0737
  139SAPE   H5R15129   3.271   4.137   9.828  0.5078 -0.8010  1.5624
  139SAPE   C2615130   3.298   4.335   9.788  0.5587  0.0522 -0.5302
  139SAPE   H6R15131   3.289   4.311   9.681  0.4195  1.6899 -0.8963
  139SAPE   C2715132   3.327   4.476   9.814  0.0432 -0.6125 -0.1311
  139SAPE   H7R15133   3.408   4.502   9.742 -0.2902 -0.3993 -0.4306
  139SAPE   H7S15134   3.377   4.481   9.913 -0.2548 -1.3180  0.0590
  139SAPE   C2815135   3.207   4.557   9.807  1.3609  0.1440 -0.1971
  139SAPE   H8R15136   3.124   4.511   9.862  1.5466 -1.2180 -1.0317
  139SAPE   C2915137   3.177   4.673   9.742 -0.1947  0.0465 -0.8828
  139SAPE   H9R15138   3.074   4.712   9.750 -0.5873 -1.1531 -0.0970
  139SAPE  C21015139   3.273   4.758   9.658 -0.1038 -0.0080 -0.4521
  139SAPE  H10R15140   3.239   4.733   9.556 -2.2378  3.0429 -0.5452
  139SAPE  H10S15141   3.379   4.726   9.669 -0.4930 -1.6663 -1.2837
  139SAPE  C21115142   3.261   4.908   9.677 -0.1406  0.3895  0.5553
  139SAPE  H11R15143   3.210   4.949   9.766 -0.0646  1.7974 -0.0318
  139SAPE  C21215144   3.307   5.005   9.597  0.7094 -0.8120  0.4304
  139SAPE  H12R15145   3.280   5.109   9.624  0.4729 -1.0699  1.2114
  139SAPE  C21315146   3.380   4.996   9.466  1.0006 -0.1352 -0.4295
  139SAPE  H13R15147   3.370   4.891   9.431  0.5720  0.5482 -2.4435
  139SAPE  H13S15148   3.484   5.030   9.485 -0.0138  1.7256  2.1350
  139SAPE  C21415149   3.318   5.090   9.359 -0.3229  0.1247  1.0050
  139SAPE  H14R15150   3.233   5.151   9.393  0.8101  0.8620  2.5954
  139SAPE  C21515151   3.353   5.091   9.230 -0.2497  0.2929  0.1615
  139SAPE  H15R15152   3.316   5.175   9.169  3.1325  1.0809 -0.8789
  139SAPE  C21615153   3.450   5.005   9.162  0.0157  0.0115  0.0405
  139SAPE  H16R15154   3.430   4.901   9.196 -1.0137 -0.5636 -2.2128
  139SAPE  H16S15155   3.556   5.022   9.190  0.6236 -0.2757 -2.0054
  139SAPE  C21715156   3.448   5.014   9.011  0.1040  0.1511  1.0182
  139SAPE  H17R15157   3.555   5.027   8.983  0.5327 -2.5810  1.2846
  139SAPE  H17S15158   3.404   5.110   8.977  0.1539 -0.9087 -2.2035
  139SAPE  C21815159   3.390   4.888   8.937  0.1471 -0.0811  0.4181
  139SAPE  H18R15160   3.298   4.852   8.986 -0.3877 -2.2459 -2.0825
  139SAPE  H18S15161   3.466   4.807   8.948  0.6998  0.8114  3.8048
  139SAPE  C21915162   3.365   4.909   8.791  0.3499  0.5556 -0.9664
  139SAPE  H19R15163   3.275   4.973   8.781  0.4422  1.4171  2.8897
  139SAPE  H19S15164   3.328   4.812   8.751  0.8375 -0.5794  1.3004
  139SAPE  C22015165   3.480   4.964   8.708  0.4293  0.0269  0.2928
  139SAPE  H20R15166   3.568   4.900   8.728 -1.4638 -2.4109  1.0100
  139SAPE  H20S15167   3.497   5.071   8.734 -1.2331  0.4567 -0.2832
  139SAPE  H20T15168   3.449   4.957   8.602 -0.5001  2.1458  0.3759
  139SAPE   C3315169   3.376   3.460  10.043 -0.1434  0.4505  1.4310
  139SAPE   H3X15170   3.275   3.476  10.087 -0.8470  0.3636 -0.1375
  139SAPE   H3Y15171   3.432   3.392  10.111  2.4898 -0.0071 -1.0927
  139SAPE   C3415172   3.355   3.387   9.908 -0.1593 -0.2909  0.1183
  139SAPE   H4X15173   3.296   3.295   9.926 -0.9480 -0.6470 -3.9612
  139SAPE   H4Y15174   3.452   3.350   9.868 -1.8824 -1.1290 -3.4527
  139SAPE   C3515175   3.304   3.475   9.797 -0.0472  0.2934 -0.3072
  139SAPE   H5X15176   3.350   3.575   9.785  1.2491  0.0322  2.2336
  139SAPE   H5Y15177   3.196   3.497   9.814 -0.2491  2.3800 -3.8068
  139SAPE   C3615178   3.309   3.407   9.659  0.1823  0.0678  0.2884
  139SAPE   H6X15179   3.249   3.316   9.677  1.2594 -0.2909  2.1972
  139SAPE   H6Y15180   3.412   3.376   9.631  0.1255  1.4099 -1.5229
  139SAPE   C3715181   3.268   3.499   9.548 -0.1862  0.6075 -0.0359
  139SAPE   H7X15182   3.347   3.576   9.544 -1.1453  1.5257 -3.1957
  139SAPE   H7Y15183   3.170   3.545   9.574 -0.4667  0.0757 -0.1296
  139SAPE   C3815184   3.251   3.429   9.413 -1.0709  0.2596  0.3439
  139SAPE   H8X15185   3.180   3.347   9.437 -0.4464 -0.9419 -1.7886
  139SAPE   H8Y15186   3.349   3.385   9.384  0.1688  1.9705  1.8330
  139SAPE   C3915187   3.196   3.502   9.293 -0.5532 -0.3325 -0.5794
  139SAPE   H9X15188   3.250   3.597   9.274 -0.4180 -0.2496  0.2032
  139SAPE   H9Y15189   3.093   3.530   9.324  1.1552  2.7395  2.6613
  139SAPE  C31015190   3.190   3.424   9.163 -0.1687  0.5675  0.1285
  139SAPE  H10X15191   3.199   3.317   9.190  1.0578  1.0949  1.9862
  139SAPE  H10Y15192   3.284   3.433   9.104  1.0296  1.2086  2.0610
  139SAPE  C31115193   3.070   3.452   9.074 -0.4332 -0.2336 -1.1463
  139SAPE  H11X15194   2.975   3.421   9.122 -1.1022  2.5094 -0.6067
  139SAPE  H11Y15195   3.081   3.383   8.988  3.6668 -2.1303  0.7573
  139SAPE  C31215196   3.064   3.597   9.019  0.1210 -0.1373  0.5976
  139SAPE  H12X15197   3.160   3.649   9.041 -1.0831  1.3994  2.4265
  139SAPE  H12Y15198   2.981   3.650   9.070 -1.1001  0.3346 -1.8385
  139SAPE  C31315199   3.044   3.586   8.860  0.0830 -0.8486 -0.4949
  139SAPE  H13X15200   2.969   3.516   8.818 -1.8135 -0.0144  1.4305
  139SAPE  H13Y15201   3.146   3.554   8.829  0.8797 -1.0429  2.1692
  139SAPE  C31415202   3.008   3.735   8.805 -0.1206 -0.1172 -0.4819
  139SAPE  H14X15203   3.101   3.786   8.838  1.3073 -0.9917 -3.0161
  139SAPE  H14Y15204   2.919   3.772   8.861  0.8692 -1.1843  1.8730
  139SAPE  C31515205   2.994   3.747   8.652 -0.6864 -0.5664 -0.8379
  139SAPE  H15X15206   2.981   3.855   8.628  2.1942  0.4309  1.6894
  139SAPE  H15Y15207   2.900   3.696   8.622  0.1464 -2.6383 -0.0294
  139SAPE  C31615208   3.115   3.695   8.575 -0.6094  0.2280  0.1641
  139SAPE  H16X15209   3.201   3.748   8.620 -1.2064  1.8084 -0.5228
  139SAPE  H16Y15210   3.122   3.584   8.577 -0.9958  0.2219  1.7266
  139SAPE  C31715211   3.120   3.746   8.428 -0.1112 -0.8168 -0.2510
  139SAPE  H17X15212   3.210   3.726   8.366  1.0597  3.1351  0.0299
  139SAPE  H17Y15213   3.124   3.856   8.438  1.2667 -1.0095  1.6454
  139SAPE  C31815214   2.991   3.708   8.354 -0.1233 -0.8296 -0.0184
  139SAPE  H18X15215   2.893   3.745   8.391 -0.0369  0.5564 -1.1235
  139SAPE  H18Y15216   2.992   3.598   8.342  1.0847 -1.0331  1.8193
  139SAPE  H18Z15217   3.011   3.752   8.254 -0.6796 -1.3478 -0.3520
  140SAPE     N15218   6.388   0.997  11.078  0.4886  0.3642 -0.2744
  140SAPE   HN115219   6.417   1.097  11.076 -0.4390  0.6501  0.3767
  140SAPE   HN215220   6.387   0.970  11.179 -0.4152  1.4117  0.0119
  140SAPE   HN315221   6.456   0.935  11.030  0.6217  0.2025  0.1175
  140SAPE   C1215222   6.244   0.993  11.031 -0.3798  0.0062 -0.1997
  140SAPE  H12A15223   6.242   1.050  10.936  0.8271  2.3439  1.1489
  140SAPE  H12B15224   6.181   1.052  11.100  1.6693  0.5154  1.2829
  140SAPE   C1115225   6.195   0.849  11.017 -0.0542 -0.1882 -0.6706
  140SAPE  H11A15226   6.087   0.850  10.992  0.2814 -2.0370 -2.3719
  140SAPE  H11B15227   6.198   0.796  11.114  0.8575 -0.0852 -0.6393
  140SAPE     P15228   6.372   0.674  10.950 -0.0163  0.0337  0.3232
  140SAPE   O1315229   6.481   0.755  11.003  0.5551 -0.4946  0.9178
  140SAPE   O1415230   6.325   0.561  11.034  0.0492  0.3721 -0.0003
  140SAPE   O1215231   6.258   0.776  10.917  0.3383  0.6593  0.1684
  140SAPE   O1115232   6.419   0.614  10.809 -0.6586  0.3608 -0.7663
  140SAPE    C115233   6.322   0.534  10.741  0.2227 -0.8453 -0.5919
  140SAPE    HA15234   6.296   0.449  10.808  1.5343  2.0127  3.7805
  140SAPE    HB15235   6.233   0.595  10.713  0.9167  0.1274 -0.7379
  140SAPE    C215236   6.377   0.483  10.603  0.3293  0.0496 -0.4657
  140SAPE    HS15237   6.320   0.394  10.570 -0.0761 -0.5910  1.8731
  140SAPE   O2115238   6.516   0.447  10.613  0.6161  0.0358  0.1220
  140SAPE   C2115239   6.541   0.340  10.684 -0.3790  0.4054  0.4203
  140SAPE   O2215240   6.462   0.249  10.705 -0.2015 -0.2103  0.2641
  140SAPE   C2215241   6.689   0.349  10.734 -0.2514  0.0270 -0.7190
  140SAPE   H2R15242   6.711   0.457  10.730 -2.5195  0.5354 -0.3325
  140SAPE   H2S15243   6.679   0.305  10.835 -0.1674  2.2587  0.2834
  140SAPE    C315244   6.361   0.592  10.491  0.5271 -0.7471 -0.6962
  140SAPE    HX15245   6.433   0.673  10.511 -1.1906 -0.1468  3.5334
  140SAPE    HY15246   6.256   0.628  10.492  1.2285  1.3325  0.5364
  140SAPE   O3115247   6.389   0.539  10.361  0.3333 -0.2920  0.2824
  140SAPE   C3115248   6.298   0.489  10.280  0.5624 -0.1965  0.0187
  140SAPE   O3215249   6.191   0.448  10.314  0.7767  0.4772  0.2066
  140SAPE   C3215250   6.358   0.491  10.142 -0.4968 -0.4453  0.3901
  140SAPE   H2X15251   6.444   0.421  10.143  0.7904  1.1218  1.0823
  140SAPE   H2Y15252   6.407   0.590  10.127 -2.4031  0.3728 -0.5954
  140SAPE   C2315253   6.799   0.287  10.636  0.7460 -0.3149 -0.3660
  140SAPE   H3R15254   6.886   0.356  10.631  1.2582 -0.9373 -0.1483
  140SAPE   H3S15255   6.763   0.275  10.532  3.9237 -0.5611 -1.4628
  140SAPE   C2415256   6.850   0.149  10.677  0.2174  0.0722  0.0029
  140SAPE   H4R15257   6.878   0.149  10.785  0.2563 -2.3537  0.0130
  140SAPE   H4S15258   6.943   0.136  10.618  0.5828  0.7161  0.4315
  140SAPE   C2515259   6.743   0.045  10.656  0.4616  0.6393  0.5389
  140SAPE   H5R15260   6.644   0.072  10.696 -0.3519 -0.5850 -0.6057
  140SAPE   C2615261   6.763  -0.079  10.611 -0.1915 -0.0508  0.9004
  140SAPE   H6R15262   6.672  -0.135  10.584 -0.6224  0.1474  1.9085
  140SAPE   C2715263   6.895  -0.124  10.574  0.1020 -1.0333 -0.2788
  140SAPE   H7R15264   6.963  -0.148  10.659  0.9556  0.0146 -0.6503
  140SAPE   H7S15265   6.942  -0.045  10.511  2.0993 -1.4147  0.6774
  140SAPE   C2815266   6.890  -0.262  10.512 -0.0406  0.4787 -0.2957
  140SAPE   H8R15267   6.825  -0.337  10.558  0.9070  0.2399  0.6690
  140SAPE   C2915268   6.952  -0.298  10.396 -0.5285 -1.2440 -0.0454
  140SAPE   H9R15269   6.942  -0.403  10.363  1.0365 -1.4761  0.1529
  140SAPE  C21015270   7.032  -0.205  10.305  0.4329 -0.3616 -0.2037
  140SAPE  H10R15271   7.089  -0.130  10.365  1.3941 -1.3801  0.1628
  140SAPE  H10S15272   6.958  -0.153  10.241 -0.9497 -1.2227  0.6658
  140SAPE  C21115273   7.135  -0.289  10.236  0.3290 -0.2222  0.6736
  140SAPE  H11R15274   7.194  -0.357  10.300  0.7931 -0.9150 -0.4686
  140SAPE  C21215275   7.168  -0.273  10.110 -0.5501  0.5287  0.5916
  140SAPE  H12R15276   7.241  -0.346  10.073 -0.9776 -0.2679  1.3143
  140SAPE  C21315277   7.109  -0.176  10.007  0.1442  0.2005 -0.5489
  140SAPE  H13R15278   7.037  -0.101  10.047 -1.5973 -1.3018 -0.7694
  140SAPE  H13S15279   7.037  -0.237   9.948 -2.2161  1.2077  1.1917
  140SAPE  C21415280   7.213  -0.123   9.911  0.0647 -0.2856  0.0607
  140SAPE  H14R15281   7.303  -0.087   9.964 -1.9367  0.7507  2.8832
  140SAPE  C21515282   7.208  -0.105   9.772 -0.9459  0.2781  0.4253
  140SAPE  H15R15283   7.288  -0.052   9.719 -2.6148  2.5767  0.1148
  140SAPE  C21615284   7.086  -0.128   9.681 -0.5704 -0.0849  0.7028
  140SAPE  H16R15285   7.003  -0.060   9.710 -0.3138 -0.1231  1.5336
  140SAPE  H16S15286   7.042  -0.230   9.684 -2.0461  0.5622  1.5344
  140SAPE  C21715287   7.116  -0.086   9.535 -0.4247  0.0864  0.3565
  140SAPE  H17R15288   7.162   0.015   9.529  0.6680 -0.4652 -0.6885
  140SAPE  H17S15289   7.021  -0.094   9.477  0.1645 -2.4418 -0.2976
  140SAPE  C21815290   7.228  -0.174   9.466  0.8474 -0.1865  0.3211
  140SAPE  H18R15291   7.197  -0.281   9.474  2.2596 -0.5837  0.6815
  140SAPE  H18S15292   7.327  -0.157   9.514  0.3870  1.6707  0.6588
  140SAPE  C21915293   7.250  -0.134   9.319 -0.3646  0.0163 -0.0792
  140SAPE  H19R15294   7.331  -0.196   9.275  0.8882  1.4436  0.1520
  140SAPE  H19S15295   7.291  -0.030   9.322 -1.2396  0.3390  1.7310
  140SAPE  C22015296   7.136  -0.127   9.215  1.0249  0.1431 -0.0430
  140SAPE  H20R15297   7.043  -0.070   9.237 -0.1007 -0.8477 -2.0483
  140SAPE  H20S15298   7.093  -0.228   9.199 -0.2966  0.5028  1.1919
  140SAPE  H20T15299   7.171  -0.083   9.119 -0.3260 -1.4776 -1.3155
  140SAPE   C3315300   6.262   0.444  10.027 -0.3894 -0.1011  0.0890
  140SAPE   H3X15301   6.166   0.498  10.039  0.3692  1.1796  0.6415
  140SAPE   H3Y15302   6.233   0.337  10.033 -0.9002 -0.1402 -2.5224
  140SAPE   C3415303   6.308   0.483   9.892 -0.1378 -0.0736 -0.0693
  140SAPE   H4X15304   6.411   0.441   9.885  0.0953  0.1425  1.8056
  140SAPE   H4Y15305   6.313   0.594   9.888 -1.5163 -0.0396 -1.0690
  140SAPE   C3515306   6.218   0.441   9.777 -0.8652  0.0574  0.4178
  140SAPE   H5X15307   6.122   0.494   9.790 -0.9437 -0.1325  0.6162
  140SAPE   H5Y15308   6.196   0.334   9.759 -2.5415  0.1053  2.0565
  140SAPE   C3615309   6.278   0.498   9.644  0.3766  0.3656 -0.0685
  140SAPE   H6X15310   6.299   0.606   9.656  1.4545  0.1170  0.3838
  140SAPE   H6Y15311   6.201   0.481   9.566 -0.5082  2.6129  0.2884
  140SAPE   C3715312   6.401   0.429   9.596 -0.1579 -0.2859  0.4419
  140SAPE   H7X15313   6.383   0.320   9.608 -0.8952  0.0047  2.0458
  140SAPE   H7Y15314   6.492   0.453   9.655 -1.0260 -1.7293  2.4268
  140SAPE   C3815315   6.442   0.465   9.451  0.1776  0.4879 -0.1837
  140SAPE   H8X15316   6.553   0.453   9.446  0.0748 -1.6620  1.8434
  140SAPE   H8Y15317   6.406   0.566   9.423 -1.6687 -0.2965 -0.7008
  140SAPE   C3915318   6.400   0.373   9.329  0.1802  0.2822 -0.0141
  140SAPE   H9X15319   6.293   0.344   9.336 -0.2725  1.7039 -0.7588
  140SAPE   H9Y15320   6.469   0.286   9.334  1.9331  1.6176 -0.5037
  140SAPE  C31015321   6.434   0.449   9.197  0.2539 -0.1626  0.5046
  140SAPE  H10X15322   6.545   0.453   9.201  0.4337 -0.2883 -3.2166
  140SAPE  H10Y15323   6.386   0.548   9.211  2.5902  1.5780 -3.2658
  140SAPE  C31115324   6.383   0.371   9.077 -0.3946 -0.1239 -0.1921
  140SAPE  H11X15325   6.412   0.434   8.991 -2.3016  0.2673 -0.5717
  140SAPE  H11Y15326   6.273   0.361   9.085 -0.2896 -0.8085  0.5581
  140SAPE  C31215327   6.439   0.227   9.056 -0.0946  0.0872  0.2695
  140SAPE  H12X15328   6.405   0.160   9.138 -0.3962 -0.4588 -0.2971
  140SAPE  H12Y15329   6.549   0.227   9.070  0.1750  1.5300 -1.7502
  140SAPE  C31315330   6.417   0.177   8.913  0.0631 -0.7374  0.1908
  140SAPE  H13X15331   6.310   0.159   8.891  0.1568 -0.3992 -0.5870
  140SAPE  H13Y15332   6.470   0.080   8.919 -1.7340 -1.5890  3.1750
  140SAPE  C31415333   6.492   0.257   8.806  0.0721  0.1219  0.1830
  140SAPE  H14X15334   6.591   0.298   8.836  0.3466 -0.9131  0.7375
  140SAPE  H14Y15335   6.440   0.355   8.795  1.0268  0.4179 -1.6998
  140SAPE  C31515336   6.505   0.200   8.666 -0.7271 -0.2157  0.5187
  140SAPE  H15X15337   6.408   0.168   8.623 -0.0894 -1.0411 -0.3110
  140SAPE  H15Y15338   6.572   0.112   8.666 -0.1028  0.2421 -1.0933
  140SAPE  C31615339   6.574   0.301   8.575  0.3752  0.2147 -0.7048
  140SAPE  H16X15340   6.676   0.327   8.609  0.8447 -0.1646 -1.8322
  140SAPE  H16Y15341   6.506   0.389   8.581 -1.0276 -0.8169 -1.1191
  140SAPE  C31715342   6.586   0.249   8.431  0.6802  0.1794 -0.5626
  140SAPE  H17X15343   6.625   0.145   8.424 -1.2236 -0.6380  0.5633
  140SAPE  H17Y15344   6.661   0.313   8.380 -0.1400  0.2057 -1.7535
  140SAPE  C31815345   6.455   0.250   8.344 -0.3037  0.4305  0.0878
  140SAPE  H18X15346   6.398   0.345   8.332  0.5863  0.9127 -0.3732
  140SAPE  H18Y15347   6.392   0.164   8.373  1.0006 -0.7390 -0.4907
  140SAPE  H18Z15348   6.488   0.215   8.244  1.4003  0.3760  0.6499
  141SAPE     N15349   6.368   1.641  11.111  0.4053 -0.0214  0.5339
  141SAPE   HN115350   6.444   1.710  11.132  0.2646  0.4065 -0.3533
  141SAPE   HN215351   6.289   1.681  11.166  1.0390  2.8065 -0.5131
  141SAPE   HN315352   6.385   1.545  11.148 -1.0761  0.3773  2.2968
  141SAPE   C1215353   6.334   1.627  10.968  0.3934 -0.4725  0.4207
  141SAPE  H12A15354   6.320   1.729  10.927  0.5577  0.8513  3.5337
  141SAPE  H12B15355   6.236   1.576  10.958  1.1247 -2.4142  2.6136
  141SAPE   C1115356   6.455   1.569  10.891  0.4927 -0.5672  0.0702
  141SAPE  H11A15357   6.533   1.648  10.892 -0.3861  0.3573 -2.4051
  141SAPE  H11B15358   6.416   1.539  10.791  0.1813  0.4113 -0.1019
  141SAPE     P15359   6.490   1.305  10.907  0.5864 -0.2041 -0.4462
  141SAPE   O1315360   6.606   1.227  10.953  0.2864  0.6105  0.0423
  141SAPE   O1415361   6.363   1.260  10.970 -0.4433  0.9890 -0.1163
  141SAPE   O1215362   6.511   1.454  10.953  0.8186 -0.3509  0.7107
  141SAPE   O1115363   6.484   1.305  10.748 -0.2607 -0.1380 -0.9624
  141SAPE    C115364   6.608   1.269  10.683 -0.3736 -0.0539  0.2189
  141SAPE    HA15365   6.697   1.329  10.713 -0.2188 -0.2071  0.0717
  141SAPE    HB15366   6.642   1.166  10.707  0.8977 -0.0909 -1.6052
  141SAPE    C215367   6.581   1.269  10.528  0.0991  0.4831  1.0353
  141SAPE    HS15368   6.677   1.270  10.473 -1.2562 -0.4036 -1.4393
  141SAPE   O2115369   6.504   1.377  10.494 -0.2267  0.7258  0.6388
  141SAPE   C2115370   6.565   1.499  10.493 -0.7405 -0.5642  0.4452
  141SAPE   O2215371   6.683   1.511  10.519 -0.5765 -0.1509 -0.3901
  141SAPE   C2215372   6.472   1.603  10.431 -0.1313  0.0964 -0.1355
  141SAPE   H2R15373   6.365   1.575  10.428 -0.7862  2.2017  1.6428
  141SAPE   H2S15374   6.486   1.700  10.484 -0.7293 -0.6618  1.4337
  141SAPE    C315375   6.501   1.142  10.487 -0.6532 -0.0819  0.6254
  141SAPE    HX15376   6.462   1.164  10.385 -1.7222 -0.8110  0.8598
  141SAPE    HY15377   6.407   1.149  10.547 -1.5531  2.5701 -1.0343
  141SAPE   O3115378   6.577   1.016  10.503 -0.8043 -0.5078  0.1168
  141SAPE   C3115379   6.670   0.992  10.417 -0.0300 -0.2738 -0.5459
  141SAPE   O3215380   6.706   1.069  10.331  0.3654 -0.0176  0.4890
  141SAPE   C3215381   6.733   0.863  10.458 -0.5649  0.0162  0.1279
  141SAPE   H2X15382   6.689   0.819  10.550  1.3979 -3.3538 -0.4909
  141SAPE   H2Y15383   6.840   0.885  10.475 -0.5073 -1.5797  1.9423
  141SAPE   C2315384   6.520   1.621  10.282  0.4667 -0.0051 -0.4220
  141SAPE   H3R15385   6.516   1.525  10.227 -0.7888 -0.3134  0.1948
  141SAPE   H3S15386   6.618   1.672  10.271 -0.1993  1.2877 -0.5529
  141SAPE   C2415387   6.432   1.718  10.200  0.2539  0.2708 -0.4435
  141SAPE   H4R15388   6.468   1.761  10.104 -0.4705  2.4942  0.2625
  141SAPE   H4S15389   6.428   1.807  10.266 -2.6099 -0.1640  0.0525
  141SAPE   C2515390   6.291   1.670  10.184  0.1290  0.2481 -0.6221
  141SAPE   H5R15391   6.223   1.674  10.271 -0.9040  0.1833 -1.4160
  141SAPE   C2615392   6.237   1.622  10.072 -0.8399 -0.4407  0.4492
  141SAPE   H6R15393   6.137   1.579  10.086 -0.5396 -1.0393  0.7879
  141SAPE   C2715394   6.302   1.605   9.937 -0.1914 -0.6760 -0.4001
  141SAPE   H7R15395   6.395   1.666   9.927 -0.1263 -1.0651 -2.2177
  141SAPE   H7S15396   6.239   1.650   9.859  2.4508  0.2401 -2.0813
  141SAPE   C2815397   6.341   1.461   9.910  0.1599 -0.5823 -0.9361
  141SAPE   H8R15398   6.446   1.438   9.935 -0.0981  0.2800  1.0047
  141SAPE   C2915399   6.262   1.367   9.859 -0.1422 -0.2789 -0.1957
  141SAPE   H9R15400   6.288   1.261   9.852  3.0112  0.2810  1.7362
  141SAPE  C21015401   6.122   1.392   9.808  0.0713  0.0262  0.0210
  141SAPE  H10R15402   6.119   1.380   9.697 -0.1001 -2.0026  0.2356
  141SAPE  H10S15403   6.085   1.496   9.818  0.5686  0.1719  0.3866
  141SAPE  C21115404   6.035   1.302   9.876 -0.8446  0.4814 -0.3674
  141SAPE  H11R15405   6.039   1.311   9.986 -4.5922 -2.1833  0.0881
  141SAPE  C21215406   5.951   1.212   9.827  1.1877  0.1224  0.0906
  141SAPE  H12R15407   5.876   1.157   9.887  0.4246  0.7248 -0.2894
  141SAPE  C21315408   5.925   1.187   9.674  0.2306 -0.0193 -0.4519
  141SAPE  H13R15409   5.917   1.079   9.649  1.8530 -0.3179  0.1888
  141SAPE  H13S15410   6.011   1.218   9.611  0.2540 -1.2561 -1.0489
  141SAPE  C21415411   5.800   1.253   9.629 -0.6389 -0.4573  0.3448
  141SAPE  H14R15412   5.760   1.319   9.707  1.3433  3.7914 -2.0983
  141SAPE  C21515413   5.736   1.239   9.517  0.1587 -0.2962  0.4320
  141SAPE  H15R15414   5.646   1.301   9.502 -0.6927 -1.5737  0.1429
  141SAPE  C21615415   5.782   1.144   9.411  0.8105  0.1846  0.7555
  141SAPE  H16R15416   5.756   1.039   9.436  1.7196 -0.6547 -1.6561
  141SAPE  H16S15417   5.892   1.138   9.429  1.3905 -1.3956 -2.7552
  141SAPE  C21715418   5.761   1.166   9.260 -0.2162 -0.1392  0.7418
  141SAPE  H17R15419   5.782   1.273   9.239 -0.0887 -0.4185 -0.5958
  141SAPE  H17S15420   5.651   1.155   9.247 -0.0894 -4.7108  2.5690
  141SAPE  C21815421   5.836   1.075   9.158 -0.2968 -0.0524 -0.4971
  141SAPE  H18R15422   5.818   0.966   9.171 -0.9215  0.1634  0.5304
  141SAPE  H18S15423   5.945   1.093   9.171 -0.3894  0.6407 -0.6623
  141SAPE  C21915424   5.803   1.097   9.010 -0.0661 -0.7237  0.1562
  141SAPE  H19R15425   5.698   1.067   8.988 -1.2081  0.0733  4.1120
  141SAPE  H19S15426   5.863   1.030   8.945 -1.5567 -0.3459 -1.6525
  141SAPE  C22015427   5.817   1.252   8.976 -0.0365 -0.7016  0.2354
  141SAPE  H20R15428   5.805   1.276   8.869  0.7363 -0.7183  0.1403
  141SAPE  H20S15429   5.918   1.282   9.011 -1.0809  1.2569  1.6527
  141SAPE  H20T15430   5.740   1.312   9.029 -1.4511  0.6493 -3.2374
  141SAPE   C3315431   6.714   0.769  10.340  0.6850  0.5155  0.3193
  141SAPE   H3X15432   6.753   0.808  10.243  0.8206 -0.1658  0.0965
  141SAPE   H3Y15433   6.606   0.745  10.326  0.1712  1.7573  2.0430
  141SAPE   C3415434   6.780   0.628  10.357  0.1949  0.5842  0.1055
  141SAPE   H4X15435   6.742   0.573  10.445  1.0282 -0.5628 -0.2360
  141SAPE   H4Y15436   6.889   0.644  10.371  0.5816 -1.2002 -0.7869
  141SAPE   C3515437   6.748   0.533  10.238 -0.2472  0.7770 -1.3622
  141SAPE   H5X15438   6.644   0.495  10.248 -0.1077 -0.0058 -2.7824
  141SAPE   H5Y15439   6.819   0.448  10.244 -1.5422 -0.2423 -0.3715
  141SAPE   C3615440   6.766   0.592  10.099  0.4756 -0.6657  0.0523
  141SAPE   H6X15441   6.869   0.635  10.097 -0.3134  1.2709  0.3893
  141SAPE   H6Y15442   6.694   0.675  10.081  2.0541  0.7518  0.0644
  141SAPE   C3715443   6.759   0.498   9.991 -0.0391  0.4976  0.1498
  141SAPE   H7X15444   6.657   0.488   9.946  0.2065 -0.5046 -0.1947
  141SAPE   H7Y15445   6.790   0.398  10.027 -1.1155  0.0374 -0.1668
  141SAPE   C3815446   6.854   0.533   9.876 -0.8052  0.1901  0.3902
  141SAPE   H8X15447   6.955   0.529   9.923 -0.2495 -0.6902 -0.8561
  141SAPE   H8Y15448   6.839   0.639   9.844  0.1216  0.6113  1.3194
  141SAPE   C3915449   6.846   0.433   9.759 -0.8601  0.1963  0.2320
  141SAPE   H9X15450   6.738   0.413   9.748 -1.0077 -0.2064  2.2207
  141SAPE   H9Y15451   6.881   0.329   9.779  0.0360  0.2966 -0.7787
  141SAPE  C31015452   6.913   0.485   9.626  0.0764  0.2211 -1.6988
  141SAPE  H10X15453   7.024   0.492   9.636  0.0288 -0.0281 -1.0036
  141SAPE  H10Y15454   6.876   0.588   9.604 -1.0259  0.5164  1.3016
  141SAPE  C31115455   6.886   0.396   9.507 -0.1495 -0.6130  0.2816
  141SAPE  H11X15456   6.782   0.378   9.473  0.0180 -0.2675 -0.4249
  141SAPE  H11Y15457   6.924   0.293   9.523 -0.4120 -0.6153  0.8824
  141SAPE  C31215458   6.968   0.439   9.381 -0.1818  0.2718  0.0310
  141SAPE  H12X15459   7.070   0.406   9.410 -0.4291 -1.3523 -0.9002
  141SAPE  H12Y15460   6.957   0.548   9.364  1.4620  0.5972  0.8996
  141SAPE  C31315461   6.917   0.372   9.253  0.5974 -0.6419 -0.9350
  141SAPE  H13X15462   6.825   0.426   9.220 -0.6495 -1.2334  1.5205
  141SAPE  H13Y15463   6.890   0.266   9.270 -1.9299  0.2184  0.7269
  141SAPE  C31415464   7.021   0.372   9.131 -0.2972 -0.1356 -0.5520
  141SAPE  H14X15465   7.022   0.480   9.102 -1.4491 -0.5356 -2.1406
  141SAPE  H14Y15466   6.978   0.304   9.054 -0.2878  1.4670 -2.0088
  141SAPE  C31515467   7.165   0.313   9.162 -0.8674 -0.0365 -0.1036
  141SAPE  H15X15468   7.159   0.216   9.215  1.0474 -0.3624 -0.4171
  141SAPE  H15Y15469   7.212   0.382   9.235 -1.3061  0.1000  0.0474
  141SAPE  C31615470   7.248   0.314   9.037  0.7543  0.1436  0.4754
  141SAPE  H16X15471   7.219   0.405   8.981  0.3804 -0.3295 -0.1067
  141SAPE  H16Y15472   7.218   0.228   8.973  1.7759 -0.3186  0.6148
  141SAPE  C31715473   7.397   0.316   9.069  0.0251  0.4573  0.8466
  141SAPE  H17X15474   7.424   0.386   9.150 -0.2838  2.7233 -0.9748
  141SAPE  H17Y15475   7.460   0.345   8.982 -1.2197  0.4601 -0.0769
  141SAPE  C31815476   7.454   0.179   9.098  0.5159 -0.0823 -0.6498
  141SAPE  H18X15477   7.424   0.166   9.204 -1.5314  3.3651 -0.7428
  141SAPE  H18Y15478   7.564   0.193   9.103  0.7013 -0.4449 -3.2341
  141SAPE  H18Z15479   7.434   0.092   9.032 -0.6501 -0.4418  0.1751
  142SAPE     N15480   0.903   6.119  11.178 -0.2637  0.6625  0.0709
  142SAPE   HN115481   0.911   6.219  11.207  1.7995  1.5625 -3.2982
  142SAPE   HN215482   0.962   6.056  11.236  0.4501  2.3803  1.2521
  142SAPE   HN315483   0.957   6.117  11.089  0.8033 -1.4327  0.7444
  142SAPE   C1215484   0.748   6.091  11.172  0.1242  0.6072  0.1220
  142SAPE  H12A15485   0.725   6.033  11.264  4.0119  1.2404  1.5921
  142SAPE  H12B15486   0.730   6.037  11.077  1.5146  1.1046 -0.4359
  142SAPE   C1115487   0.659   6.219  11.178 -0.1696 -0.2669 -0.9377
  142SAPE  H11A15488   0.657   6.252  11.284  0.9383 -0.5566 -0.8270
  142SAPE  H11B15489   0.555   6.186  11.155 -0.1140 -0.0849 -1.4365
  142SAPE     P15490   0.629   6.454  11.062 -0.0632  0.2826  0.1594
  142SAPE   O1315491   0.488   6.414  11.038 -0.0026  0.0303  0.5605
  142SAPE   O1415492   0.645   6.561  11.171 -0.1521  0.7988 -0.1880
  142SAPE   O1215493   0.709   6.319  11.098  0.0915  0.2399 -0.1102
  142SAPE   O1115494   0.695   6.494  10.933  0.3694 -0.3600  0.0897
  142SAPE    C115495   0.840   6.502  10.928  0.4779  0.3284  0.1178
  142SAPE    HA15496   0.875   6.608  10.923  0.0271  0.5008  0.5895
  142SAPE    HB15497   0.892   6.441  11.005 -0.7706  0.1444  0.8259
  142SAPE    C215498   0.886   6.423  10.805 -0.4313 -0.5423 -0.2631
  142SAPE    HS15499   0.996   6.413  10.799 -0.1078  2.8372 -0.8105
  142SAPE   O2115500   0.829   6.477  10.685 -0.4652 -0.4879 -0.4321
  142SAPE   C2115501   0.902   6.580  10.630 -0.5575  0.6380  0.0757
  142SAPE   O2215502   0.990   6.637  10.693 -0.5164 -0.2848  0.4137
  142SAPE   C2215503   0.846   6.625  10.500 -0.2336 -0.4466 -0.1923
  142SAPE   H2R15504   0.777   6.709  10.524 -0.7863 -0.9020 -0.1726
  142SAPE   H2S15505   0.939   6.661  10.451  0.6959  2.8640  3.7252
  142SAPE    C315506   0.831   6.276  10.806 -0.1379 -0.0043  0.3342
  142SAPE    HX15507   0.725   6.297  10.779 -0.1120  1.0253  0.9974
  142SAPE    HY15508   0.839   6.232  10.907 -0.6906  3.4460  1.9503
  142SAPE   O3115509   0.897   6.202  10.707  0.1441  0.5196  0.1721
  142SAPE   C3115510   0.853   6.073  10.697 -0.5616 -0.7776 -0.7201
  142SAPE   O3215511   0.784   6.015  10.778  0.0746  0.5993  0.5858
  142SAPE   C3215512   0.902   6.004  10.565  0.8119  0.6044  0.1952
  142SAPE   H2X15513   0.878   5.897  10.580 -2.3126  1.0122 -1.5138
  142SAPE   H2Y15514   1.012   6.014  10.551  0.8459 -0.2598 -0.1591
  142SAPE   C2315515   0.786   6.502  10.421  0.2439  0.2285 -1.1752
  142SAPE   H3R15516   0.683   6.473  10.451  0.7638 -1.3818 -0.9163
  142SAPE   H3S15517   0.849   6.413  10.440  1.2347  1.5984  2.1384
  142SAPE   C2415518   0.775   6.546  10.276 -0.1137 -0.4996  0.0951
  142SAPE   H4R15519   0.878   6.565  10.237 -1.4096 -0.2768 -3.4515
  142SAPE   H4S15520   0.717   6.640  10.266  0.3785 -0.1774  0.2601
  142SAPE   C2515521   0.701   6.444  10.193  0.5077  0.0494 -1.3053
  142SAPE   H5R15522   0.624   6.384  10.245  0.0800  1.5474 -0.1847
  142SAPE   C2615523   0.728   6.412  10.067 -0.1893 -0.7096  0.1167
  142SAPE   H6R15524   0.658   6.345  10.015 -0.2997  0.5712 -1.4302
  142SAPE   C2715525   0.842   6.468   9.988  0.3738 -0.1996  0.2456
  142SAPE   H7R15526   0.844   6.406   9.896 -3.8222  0.5986 -0.4639
  142SAPE   H7S15527   0.932   6.445  10.049  0.5370  0.9117  0.4408
  142SAPE   C2815528   0.822   6.615   9.955  0.0005 -0.0653 -0.1001
  142SAPE   H8R15529   0.771   6.678  10.029  2.5098  2.4168 -0.4203
  142SAPE   C2915530   0.841   6.665   9.835  0.0291 -0.9506  0.3836
  142SAPE   H9R15531   0.835   6.775   9.827  0.8652 -0.9096  0.2100
  142SAPE  C21015532   0.887   6.610   9.705 -0.3666  0.1994 -0.7650
  142SAPE  H10R15533   0.983   6.559   9.725  0.1101  1.1070 -0.7041
  142SAPE  H10S15534   0.911   6.693   9.635  1.4709 -0.4283 -0.8991
  142SAPE  C21115535   0.792   6.518   9.636 -0.4326 -0.2636  0.8289
  142SAPE  H11R15536   0.737   6.446   9.698 -0.6173 -0.2262  0.7086
  142SAPE  C21215537   0.768   6.501   9.503  0.0663 -0.4777 -0.0273
  142SAPE  H12R15538   0.699   6.419   9.478 -0.4648  0.3287 -1.2209
  142SAPE  C21315539   0.823   6.586   9.389  0.2654 -0.0719  0.1638
  142SAPE  H13R15540   0.840   6.690   9.422 -0.0954 -0.6334  2.2149
  142SAPE  H13S15541   0.736   6.589   9.320  0.4554 -0.1064 -0.0782
  142SAPE  C21415542   0.939   6.528   9.310 -0.0522  0.1131  0.3681
  142SAPE  H14R15543   1.031   6.515   9.370 -0.8513  3.1649  2.4165
  142SAPE  C21515544   0.939   6.488   9.184 -0.3941  0.2160  0.0907
  142SAPE  H15R15545   1.034   6.463   9.136 -0.2761  1.0256 -0.0984
  142SAPE  C21615546   0.837   6.501   9.077  0.9294 -1.0072  0.0841
  142SAPE  H16R15547   0.761   6.576   9.106  0.9768 -1.7186  2.1889
  142SAPE  H16S15548   0.774   6.410   9.067  1.3395 -1.3485  0.4866
  142SAPE  C21715549   0.871   6.558   8.929  0.7533  0.0188  0.3153
  142SAPE  H17R15550   0.792   6.515   8.863  2.1674 -0.9805 -0.7529
  142SAPE  H17S15551   0.974   6.524   8.907  0.4930  0.3814 -1.5809
  142SAPE  C21815552   0.862   6.710   8.922 -1.0731 -0.5130 -0.1492
  142SAPE  H18R15553   0.966   6.741   8.946 -0.9182 -1.1789  0.0621
  142SAPE  H18S15554   0.795   6.767   8.990 -1.2888 -1.1517  0.1780
  142SAPE  C21915555   0.805   6.767   8.788 -0.8404 -0.0065  0.1120
  142SAPE  H19R15556   0.881   6.725   8.719 -0.1368 -0.8167  1.3488
  142SAPE  H19S15557   0.809   6.878   8.790  2.5605 -0.0657 -0.2842
  142SAPE  C22015558   0.668   6.718   8.740  0.1569  1.0368 -0.6494
  142SAPE  H20R15559   0.655   6.608   8.741 -1.9709  1.2665  1.7763
  142SAPE  H20S15560   0.655   6.740   8.632 -1.6653  0.0486 -0.6459
  142SAPE  H20T15561   0.598   6.778   8.801  1.7484  2.4361 -0.1535
  142SAPE   C3315562   0.824   6.057  10.442 -0.2953  0.2626  0.2894
  142SAPE   H3X15563   0.826   6.168  10.438  1.9047  0.2223  0.0136
  142SAPE   H3Y15564   0.721   6.016  10.452 -0.0422 -0.1099  1.4650
  142SAPE   C3415565   0.874   6.007  10.300 -0.3358  0.3364 -0.1554
  142SAPE   H4X15566   0.858   5.897  10.303  3.2440 -0.1979  1.5440
  142SAPE   H4Y15567   0.982   6.019  10.279 -0.1565  0.4823  0.8674
  142SAPE   C3515568   0.782   6.073  10.199  0.1672 -0.4844  0.2150
  142SAPE   H5X15569   0.803   6.181  10.205 -2.0683  0.0192 -0.4855
  142SAPE   H5Y15570   0.673   6.062  10.218 -0.3348  1.9657 -1.0486
  142SAPE   C3615571   0.812   6.022  10.056 -0.1972 -0.6165  0.0545
  142SAPE   H6X15572   0.733   6.074   9.998  1.4013  0.4212 -1.2500
  142SAPE   H6Y15573   0.788   5.916  10.033 -0.9199 -1.0153  2.5155
  142SAPE   C3715574   0.942   6.068   9.990 -0.2837 -0.4064  0.0633
  142SAPE   H7X15575   1.012   5.982   9.989 -0.0465 -0.2365  1.1735
  142SAPE   H7Y15576   0.982   6.149  10.054 -3.3806  0.7952  0.5878
  142SAPE   C3815577   0.928   6.113   9.843 -0.1491 -0.8660 -0.0129
  142SAPE   H8X15578   1.018   6.172   9.817  0.0058 -0.3563  1.6030
  142SAPE   H8Y15579   0.843   6.185   9.844  0.5407 -0.0348 -0.5793
  142SAPE   C3915580   0.897   6.008   9.734  0.4464  0.1457  0.4014
  142SAPE   H9X15581   0.795   5.968   9.754  0.1835  1.1693  1.1622
  142SAPE   H9Y15582   0.970   5.925   9.744  1.8203  0.9374 -2.5583
  142SAPE  C31015583   0.897   6.076   9.592  0.0334  0.0777  0.0121
  142SAPE  H10X15584   0.820   6.156   9.586 -0.9355 -0.8947 -0.6961
  142SAPE  H10Y15585   0.867   5.996   9.522 -1.8866 -0.2873  1.1959
  142SAPE  C31115586   1.038   6.124   9.564  0.6849 -0.7138 -0.3777
  142SAPE  H11X15587   1.114   6.046   9.585  0.1725 -0.7424  1.4558
  142SAPE  H11Y15588   1.054   6.216   9.624  0.7696  0.1750 -1.7544
  142SAPE  C31215589   1.049   6.175   9.417 -0.0625  0.0206 -0.2243
  142SAPE  H12X15590   1.148   6.223   9.400  0.4048 -0.0769  1.9723
  142SAPE  H12Y15591   0.961   6.241   9.403  0.3486  0.2886 -1.5845
  142SAPE  C31315592   1.038   6.063   9.319  0.6535  0.3551 -0.1691
  142SAPE  H13X15593   0.945   6.007   9.340  1.3431 -0.8340 -0.2268
  142SAPE  H13Y15594   1.135   6.008   9.327  0.2017 -0.3792  0.3341
  142SAPE  C31415595   1.019   6.115   9.176 -0.4183  0.3387 -0.4120
  142SAPE  H14X15596   1.088   6.200   9.155 -0.7983  0.6580 -0.3760
  142SAPE  H14Y15597   0.915   6.152   9.172 -0.8889 -0.5784  2.8026
  142SAPE  C31515598   1.039   6.008   9.063  1.2048 -0.0625 -0.1327
  142SAPE  H15X15599   0.954   5.939   9.079 -1.4086  3.0666  0.1827
  142SAPE  H15Y15600   1.137   5.955   9.059  0.5269 -1.4449  1.2609
  142SAPE  C31615601   1.023   6.069   8.921 -0.1036  0.8924 -0.1257
  142SAPE  H16X15602   1.027   5.984   8.849 -2.4917  0.6187  0.0210
  142SAPE  H16Y15603   1.107   6.141   8.909  1.1959 -0.2610  1.7240
  142SAPE  C31715604   0.890   6.138   8.899 -0.1187 -0.1794 -0.3474
  142SAPE  H17X15605   0.872   6.219   8.973 -0.6504  0.6990 -1.4239
  142SAPE  H17Y15606   0.808   6.065   8.912 -1.2111  0.9786 -0.6319
  142SAPE  C31815607   0.886   6.208   8.755 -0.6120  0.0923 -0.3759
  142SAPE  H18X15608   0.973   6.277   8.747  0.7363 -1.6360 -0.9643
  142SAPE  H18Y15609   0.801   6.280   8.750 -0.3843  0.4314  0.6157
  142SAPE  H18Z15610   0.876   6.141   8.667 -0.6591  0.2578 -0.4965
  143SAPE     N15611   1.478   1.235  10.522  0.0620  0.9015 -0.7786
  143SAPE   HN115612   1.545   1.276  10.590 -0.9701  2.4034 -0.6358
  143SAPE   HN215613   1.529   1.179  10.450  1.5865 -0.8498  1.6071
  143SAPE   HN315614   1.432   1.317  10.476  0.6568  0.8411 -1.4950
  143SAPE   C1215615   1.367   1.164  10.591 -0.2291 -0.0687 -0.3803
  143SAPE  H12A15616   1.278   1.141  10.528  0.6491 -0.6203 -1.4311
  143SAPE  H12B15617   1.323   1.239  10.661 -1.5329 -0.6928 -0.5122
  143SAPE   C1115618   1.409   1.032  10.666  0.1474 -0.0306 -0.2804
  143SAPE  H11A15619   1.397   0.945  10.598 -0.7330 -1.0714  1.1785
  143SAPE  H11B15620   1.328   1.005  10.737 -0.2383  2.2553  0.1976
  143SAPE     P15621   1.579   0.917  10.817 -0.4267  0.1243  0.0149
  143SAPE   O1315622   1.654   0.961  10.932  0.3744 -0.2869  0.2339
  143SAPE   O1415623   1.460   0.827  10.849  0.0729  0.2060  0.0076
  143SAPE   O1215624   1.534   1.040  10.740 -0.0711 -0.3083 -0.0104
  143SAPE   O1115625   1.682   0.854  10.713 -0.3551  0.3675  0.2964
  143SAPE    C115626   1.794   0.923  10.666 -0.6127  0.0868  0.5210
  143SAPE    HA15627   1.817   1.015  10.724 -2.3748  1.6665 -1.2510
  143SAPE    HB15628   1.884   0.858  10.671 -0.9728 -0.3846  0.9948
  143SAPE    C215629   1.767   0.979  10.524  0.3220 -0.2619 -0.1924
  143SAPE    HS15630   1.701   1.065  10.549 -1.3818 -1.7458  0.5150
  143SAPE   O2115631   1.703   0.878  10.450 -0.1908 -0.8283 -0.1377
  143SAPE   C2115632   1.591   0.921  10.377  0.7617 -0.2487  0.1109
  143SAPE   O2215633   1.561   1.037  10.372 -0.1015 -0.3360 -0.7616
  143SAPE   C2215634   1.515   0.813  10.312  0.4119 -0.1912 -0.0622
  143SAPE   H2R15635   1.580   0.740  10.258 -1.0164 -1.8389  0.3782
  143SAPE   H2S15636   1.469   0.745  10.387  1.5130 -1.3967 -0.4473
  143SAPE    C315637   1.901   1.019  10.459  0.1147 -0.5617  0.0977
  143SAPE    HX15638   1.970   0.934  10.442  0.0738 -0.6600  0.4334
  143SAPE    HY15639   1.948   1.097  10.523  0.3938  0.5417 -1.4150
  143SAPE   O3115640   1.883   1.069  10.322  0.5971 -0.2007  0.6897
  143SAPE   C3115641   1.881   1.202  10.311 -0.2305  0.0443  0.2296
  143SAPE   O3215642   1.873   1.271  10.410  0.7666 -0.1568  0.0872
  143SAPE   C3215643   1.890   1.237  10.165  0.2267 -0.2067 -0.9129
  143SAPE   H2X15644   1.998   1.214  10.148 -0.0050 -1.7157 -0.4002
  143SAPE   H2Y15645   1.882   1.345  10.141 -2.0780 -0.4572 -1.3846
  143SAPE   C2315646   1.410   0.861  10.217  0.2626  0.2606  0.9579
  143SAPE   H3R15647   1.411   0.794  10.127 -4.3340  1.9437 -0.5026
  143SAPE   H3S15648   1.424   0.964  10.177  2.6838 -0.3808  0.0485
  143SAPE   C2415649   1.266   0.856  10.278  0.5812 -0.5433  0.2155
  143SAPE   H4R15650   1.204   0.896  10.195  3.0218  1.0973 -0.8710
  143SAPE   H4S15651   1.259   0.930  10.361 -0.7573  0.0567 -0.4278
  143SAPE   C2515652   1.222   0.720  10.311  0.5982  0.2893 -0.2348
  143SAPE   H5R15653   1.240   0.680  10.412 -0.0836 -2.6547 -1.2186
  143SAPE   C2615654   1.168   0.635  10.224 -0.3186  0.0511  0.3930
  143SAPE   H6R15655   1.145   0.533  10.259  1.4303 -1.0370 -1.5380
  143SAPE   C2715656   1.135   0.659  10.082  0.8572  0.0572 -0.4186
  143SAPE   H7R15657   1.227   0.641  10.023  0.8850  1.0784 -0.7072
  143SAPE   H7S15658   1.101   0.764  10.066  1.1967  0.2137 -0.1185
  143SAPE   C2815659   1.015   0.571  10.035  0.1280 -0.0138  0.9705
  143SAPE   H8R15660   0.927   0.575  10.100 -0.0828  0.0081  0.6851
  143SAPE   C2915661   1.004   0.511   9.916  0.3603 -0.5845  0.3120
  143SAPE   H9R15662   0.926   0.441   9.884 -0.0895  1.3086 -2.8626
  143SAPE  C21015663   1.107   0.503   9.807 -0.8487  0.3107 -0.2654
  143SAPE  H10R15664   1.159   0.406   9.823  1.0950  1.6655  2.0694
  143SAPE  H10S15665   1.180   0.585   9.828 -1.9485  1.5673 -1.3051
  143SAPE  C21115666   1.058   0.506   9.661 -0.4238 -0.1450 -0.0309
  143SAPE  H11R15667   0.950   0.500   9.644 -0.6123 -0.9698  1.3109
  143SAPE  C21215668   1.138   0.519   9.549  0.0890  0.2115 -0.1217
  143SAPE  H12R15669   1.097   0.542   9.449 -1.9498 -0.1915  0.6081
  143SAPE  C21315670   1.292   0.527   9.548  0.1892 -0.2968  0.1871
  143SAPE  H13R15671   1.334   0.494   9.451 -1.2670 -0.5918 -0.3602
  143SAPE  H13S15672   1.335   0.454   9.620 -1.3403 -1.5884 -0.1770
  143SAPE  C21415673   1.338   0.672   9.582 -0.2810 -0.1531  0.6488
  143SAPE  H14R15674   1.349   0.696   9.689  3.3775  0.9452  0.1022
  143SAPE  C21515675   1.371   0.761   9.487 -0.1109 -0.0437  0.1998
  143SAPE  H15R15676   1.412   0.860   9.515 -2.6741  1.1065 -0.0128
  143SAPE  C21615677   1.357   0.753   9.338 -0.1050  0.4716 -0.2825
  143SAPE  H16R15678   1.320   0.853   9.307  2.0421  0.6632 -2.3680
  143SAPE  H16S15679   1.296   0.662   9.317  2.8727 -1.5464 -0.4060
  143SAPE  C21715680   1.486   0.742   9.267  0.2927  0.0397 -1.2659
  143SAPE  H17R15681   1.513   0.636   9.248 -0.4024 -0.1673 -1.1195
  143SAPE  H17S15682   1.568   0.788   9.325 -2.1771  1.1442  1.4864
  143SAPE  C21815683   1.487   0.814   9.127 -0.1269  0.4923  0.8329
  143SAPE  H18R15684   1.591   0.831   9.093  0.8587 -0.4229  3.3235
  143SAPE  H18S15685   1.441   0.915   9.142  0.3404  0.5438  1.9476
  143SAPE  C21915686   1.409   0.740   9.011 -0.3519  0.3380 -0.1411
  143SAPE  H19R15687   1.435   0.791   8.916 -1.3452 -3.2549 -2.4186
  143SAPE  H19S15688   1.300   0.738   9.032 -0.4258  0.4082 -0.5190
  143SAPE  C22015689   1.444   0.587   8.985 -0.1491 -0.0304 -0.4244
  143SAPE  H20R15690   1.391   0.524   9.059 -1.2300  0.2947 -0.9006
  143SAPE  H20S15691   1.555   0.578   8.989 -0.2622 -1.0590  0.8486
  143SAPE  H20T15692   1.409   0.557   8.883 -0.7722 -2.0844  0.3630
  143SAPE   C3315693   1.805   1.142  10.072  0.0906  1.0681  0.2971
  143SAPE   H3X15694   1.697   1.167  10.076 -0.1166  0.1015  1.0040
  143SAPE   H3Y15695   1.818   1.039  10.111 -1.5433  1.5827  2.3023
  143SAPE   C3415696   1.854   1.140   9.931  0.1566  0.7622 -0.4853
  143SAPE   H4X15697   1.962   1.115   9.922 -0.3864 -0.6552 -3.9368
  143SAPE   H4Y15698   1.824   1.240   9.895 -0.6103  0.3649 -0.9652
  143SAPE   C3515699   1.785   1.038   9.841  0.1555 -0.0392  0.2362
  143SAPE   H5X15700   1.674   1.040   9.840  0.1760  0.8787  0.2208
  143SAPE   H5Y15701   1.816   0.933   9.864 -1.2696 -0.5581 -0.1710
  143SAPE   C3615702   1.804   1.077   9.692 -0.0653  0.3836  0.2027
  143SAPE   H6X15703   1.909   1.069   9.656 -0.4009 -0.1680 -0.6860
  143SAPE   H6Y15704   1.765   1.181   9.689 -1.9192 -0.2297  1.7783
  143SAPE   C3715705   1.710   0.993   9.600  0.3507  0.6432  0.1278
  143SAPE   H7X15706   1.605   1.017   9.626  0.0725  1.1265 -1.3731
  143SAPE   H7Y15707   1.711   0.887   9.634  1.5112  1.5658  3.1264
  143SAPE   C3815708   1.734   1.032   9.450  0.2702  0.5181 -0.0914
  143SAPE   H8X15709   1.683   0.962   9.381 -0.1780  1.9926 -1.2773
  143SAPE   H8Y15710   1.839   1.002   9.427  0.1403 -0.6523  0.8160
  143SAPE   C3915711   1.713   1.179   9.413  0.2175  0.1075 -0.3085
  143SAPE   H9X15712   1.768   1.248   9.480 -0.0748 -1.7348  1.8828
  143SAPE   H9Y15713   1.607   1.210   9.427  0.7324  0.5020  3.1607
  143SAPE  C31015714   1.751   1.210   9.270 -0.0034 -0.8575 -0.3089
  143SAPE  H10X15715   1.861   1.196   9.266  0.0078 -0.4225 -1.8866
  143SAPE  H10Y15716   1.739   1.319   9.252  0.9498 -0.9230 -1.4011
  143SAPE  C31115717   1.672   1.116   9.171  0.0892 -0.1640  0.3231
  143SAPE  H11X15718   1.575   1.082   9.212 -0.4937 -0.4677 -1.2705
  143SAPE  H11Y15719   1.732   1.024   9.159 -0.6892 -0.4012 -1.9825
  143SAPE  C31215720   1.654   1.178   9.031 -0.4190  0.2764 -0.0480
  143SAPE  H12X15721   1.751   1.210   8.986  0.1376 -1.1724  0.0857
  143SAPE  H12Y15722   1.598   1.273   9.031  1.2530  1.2814 -0.8102
  143SAPE  C31315723   1.595   1.078   8.927  0.1184  0.4534  0.4580
  143SAPE  H13X15724   1.486   1.064   8.947  0.4809  0.7596  2.7812
  143SAPE  H13Y15725   1.645   0.980   8.943 -0.6647  0.4032  2.8624
  143SAPE  C31415726   1.604   1.112   8.777 -0.1015  0.2004 -0.7356
  143SAPE  H14X15727   1.705   1.153   8.754 -0.8406  1.9538 -0.9066
  143SAPE  H14Y15728   1.547   1.203   8.749 -0.4468  0.1982 -0.0487
  143SAPE  C31515729   1.575   0.986   8.691  0.3594 -0.7547 -0.0638
  143SAPE  H15X15730   1.636   0.908   8.741  2.6595  0.9447 -0.1424
  143SAPE  H15Y15731   1.623   1.004   8.592 -0.4156  0.5420 -0.2117
  143SAPE  C31615732   1.431   0.934   8.682 -0.4893 -0.1021 -0.0513
  143SAPE  H16X15733   1.368   0.972   8.765 -0.3091  1.0267 -0.4244
  143SAPE  H16Y15734   1.433   0.823   8.686 -3.1330 -0.2920 -2.3336
  143SAPE  C31715735   1.360   0.960   8.546  0.6875 -0.0709  0.3193
  143SAPE  H17X15736   1.421   0.908   8.469 -0.9868  1.0579 -1.8190
  143SAPE  H17Y15737   1.363   1.067   8.515 -2.5509  0.4922  1.7680
  143SAPE  C31815738   1.213   0.912   8.552  0.1382  0.6443  0.6641
  143SAPE  H18X15739   1.222   0.801   8.555  0.8544  0.6371 -0.8759
  143SAPE  H18Y15740   1.163   0.938   8.456 -2.4108 -3.3946  0.7775
  143SAPE  H18Z15741   1.163   0.947   8.645  0.1076  2.0912  0.1232
  144SAPE     N15742   4.732   5.944  10.569  0.1678 -0.4728 -0.1605
  144SAPE   HN115743   4.808   5.884  10.532  1.1623 -0.7426  2.2248
  144SAPE   HN215744   4.641   5.894  10.563  0.5413 -1.1307 -0.3511
  144SAPE   HN315745   4.722   6.022  10.500 -0.3324 -0.2962  0.1103
  144SAPE   C1215746   4.759   5.995  10.706  0.1888 -0.1067 -0.5537
  144SAPE  H12A15747   4.772   5.917  10.784 -0.6471 -0.6567 -0.9544
  144SAPE  H12B15748   4.679   6.070  10.724  0.0888 -0.0893 -1.0449
  144SAPE   C1115749   4.897   6.065  10.691  0.1709 -0.0381 -0.3634
  144SAPE  H11A15750   4.918   6.116  10.787 -0.1154 -1.8923  0.7037
  144SAPE  H11B15751   4.897   6.142  10.611 -0.0460  2.5210  2.0289
  144SAPE     P15752   5.102   5.931  10.767 -0.1086 -0.0406 -0.2449
  144SAPE   O1315753   5.199   6.042  10.784  0.1882 -0.2723 -0.1808
  144SAPE   O1415754   5.033   5.902  10.893 -0.4942 -0.5072 -0.0093
  144SAPE   O1215755   5.003   5.964  10.658  0.7764 -0.0725  0.6839
  144SAPE   O1115756   5.187   5.796  10.725  0.0976  0.1587 -0.6562
  144SAPE    C115757   5.116   5.687  10.672 -0.6871  0.7331 -0.0165
  144SAPE    HA15758   5.120   5.600  10.741  0.5563 -0.1936 -1.2437
  144SAPE    HB15759   5.006   5.707  10.667 -0.5280  1.6674  0.0800
  144SAPE    C215760   5.164   5.651  10.525 -0.8102  0.3898  0.0754
  144SAPE    HS15761   5.271   5.622  10.530 -0.3084  2.0523 -0.6248
  144SAPE   O2115762   5.162   5.769  10.448  0.5474  0.1259 -0.2563
  144SAPE   C2115763   5.043   5.820  10.421 -0.0936 -0.8303 -0.1127
  144SAPE   O2215764   4.933   5.779  10.446  0.3928  0.0710 -0.0785
  144SAPE   C2215765   5.071   5.940  10.335  0.1970 -0.6093  0.5697
  144SAPE   H2R15766   5.077   6.027  10.404  0.2869 -0.3460  0.2326
  144SAPE   H2S15767   5.166   5.931  10.278 -0.6045 -0.2415 -0.8554
  144SAPE    C315768   5.079   5.536  10.457  0.3668 -0.2411  0.3189
  144SAPE    HX15769   4.970   5.541  10.479  0.4945 -2.3284  1.6357
  144SAPE    HY15770   5.109   5.443  10.511  1.4899  0.4910  0.9694
  144SAPE   O3115771   5.093   5.536  10.315 -0.1451 -0.7527 -0.0655
  144SAPE   C3115772   5.038   5.431  10.246 -0.2755  0.6256 -0.4391
  144SAPE   O3215773   4.997   5.327  10.297  0.2628 -0.3277  0.0238
  144SAPE   C3215774   5.032   5.473  10.101  0.3041  0.2196 -0.1906
  144SAPE   H2X15775   5.132   5.460  10.055 -0.9943 -2.0600 -2.5218
  144SAPE   H2Y15776   5.006   5.581  10.102  2.9532  0.9031 -0.1071
  144SAPE   C2315777   4.958   5.953  10.222 -0.5350 -0.0877  0.4098
  144SAPE   H3R15778   4.859   5.924  10.264 -2.1269  0.9879 -2.4261
  144SAPE   H3S15779   4.986   5.892  10.133 -0.4368 -0.9793  1.0403
  144SAPE   C2415780   4.948   6.093  10.174 -0.0431 -0.3335 -0.1611
  144SAPE   H4R15781   5.041   6.139  10.135 -0.7768  0.7674 -0.6526
  144SAPE   H4S15782   4.905   6.161  10.252  0.7338 -1.0515  0.9151
  144SAPE   C2515783   4.840   6.102  10.068 -0.4743  0.1450  0.2376
  144SAPE   H5R15784   4.738   6.099  10.108 -0.1525  2.4854  1.3123
  144SAPE   C2615785   4.871   6.126   9.938  0.6685  0.0308 -0.2887
  144SAPE   H6R15786   4.792   6.131   9.862 -2.1119  3.8342  2.7049
  144SAPE   C2715787   5.007   6.137   9.883 -0.0074 -0.5074 -0.0775
  144SAPE   H7R15788   5.093   6.118   9.950 -0.7054 -1.7530  0.4732
  144SAPE   H7S15789   5.012   6.240   9.840  0.2363 -0.2002  0.6865
  144SAPE   C2815790   5.022   6.042   9.771  0.5822  0.1665 -0.1506
  144SAPE   H8R15791   4.955   5.957   9.754  0.6617  0.3955 -1.6344
  144SAPE   C2915792   5.133   6.058   9.689 -0.2402  0.6205  0.0567
  144SAPE   H9R15793   5.151   5.991   9.604  2.4669  1.0400  0.2486
  144SAPE  C21015794   5.235   6.170   9.696  0.1681 -0.2234  0.0957
  144SAPE  H10R15795   5.337   6.143   9.662  0.5474  1.1644  0.0815
  144SAPE  H10S15796   5.249   6.191   9.804 -0.3576  1.1877 -0.0990
  144SAPE  C21115797   5.196   6.294   9.615 -0.8883  0.5600 -0.5296
  144SAPE  H11R15798   5.145   6.369   9.678 -2.9159 -2.0462  1.0412
  144SAPE  C21215799   5.234   6.333   9.494  0.0703 -0.3839  0.1658
  144SAPE  H12R15800   5.200   6.428   9.450  0.8878  0.2582  0.8970
  144SAPE  C21315801   5.324   6.245   9.410 -0.3755  0.0438  0.9287
  144SAPE  H13R15802   5.302   6.138   9.428 -2.4004  0.9162  4.1611
  144SAPE  H13S15803   5.427   6.254   9.451 -0.1254  0.8923  0.1303
  144SAPE  C21415804   5.325   6.280   9.265  0.4987 -0.1511 -0.1404
  144SAPE  H14R15805   5.219   6.278   9.235  0.6954  0.8113 -0.9378
  144SAPE  C21515806   5.421   6.305   9.178  0.5271 -0.5497 -0.0847
  144SAPE  H15R15807   5.390   6.329   9.075 -0.3786 -1.4555 -0.0319
  144SAPE  C21615808   5.568   6.297   9.209 -0.7980  0.2716 -0.0657
  144SAPE  H16R15809   5.584   6.253   9.309  0.2563  2.1251  0.5906
  144SAPE  H16S15810   5.612   6.399   9.218  2.1774 -0.8741 -1.3421
  144SAPE  C21715811   5.640   6.224   9.096  0.1637 -0.3098  0.9006
  144SAPE  H17R15812   5.582   6.141   9.052  0.0885  0.0943  0.2168
  144SAPE  H17S15813   5.739   6.182   9.124  2.7088  3.6388 -1.5029
  144SAPE  C21815814   5.691   6.324   8.993  0.5609  0.6478  0.8080
  144SAPE  H18R15815   5.722   6.416   9.047  0.0915  1.2823  0.0181
  144SAPE  H18S15816   5.613   6.352   8.919  0.8477 -1.9411 -0.5486
  144SAPE  C21915817   5.793   6.247   8.907 -0.2182  0.2591  0.0049
  144SAPE  H19R15818   5.739   6.157   8.870  1.1097 -1.2429  1.6040
  144SAPE  H19S15819   5.876   6.225   8.978 -1.0649  0.3355  1.0245
  144SAPE  C22015820   5.849   6.336   8.794 -0.3403  0.0056 -0.0774
  144SAPE  H20R15821   5.908   6.276   8.723  0.1817  0.6534 -0.2025
  144SAPE  H20S15822   5.908   6.427   8.822  1.7067 -1.5472  0.7588
  144SAPE  H20T15823   5.761   6.370   8.736 -1.9068  0.3899  2.4369
  144SAPE   C3315824   4.927   5.408  10.008  0.6182 -1.2093  0.7866
  144SAPE   H3X15825   4.826   5.415  10.056 -1.0197  0.1021 -2.6716
  144SAPE   H3Y15826   4.950   5.300   9.998  0.0329 -1.2611 -0.1052
  144SAPE   C3415827   4.910   5.465   9.865  0.0771 -0.7659  0.0464
  144SAPE   H4X15828   5.007   5.449   9.814  0.6478  1.7187  0.2876
  144SAPE   H4Y15829   4.898   5.575   9.870 -4.0194 -1.0851 -1.0516
  144SAPE   C3515830   4.810   5.406   9.766 -0.4930 -0.0938 -0.1313
  144SAPE   H5X15831   4.711   5.427   9.814  1.1752  0.5537  3.1940
  144SAPE   H5Y15832   4.825   5.297   9.776 -3.1122 -0.5252 -0.4820
  144SAPE   C3615833   4.817   5.452   9.624 -0.4024 -0.4321  1.0075
  144SAPE   H6X15834   4.854   5.557   9.637  0.6659 -0.4014 -1.8332
  144SAPE   H6Y15835   4.720   5.464   9.572  0.1801  0.3893  0.0595
  144SAPE   C3715836   4.916   5.362   9.544 -0.2598  0.2178  0.1201
  144SAPE   H7X15837   4.862   5.265   9.533 -0.2702 -0.0911  2.5325
  144SAPE   H7Y15838   5.012   5.348   9.599 -0.1131  0.7417  0.0038
  144SAPE   C3815839   4.948   5.426   9.410 -0.1720 -0.4766  0.1002
  144SAPE   H8X15840   5.024   5.503   9.438  1.2562 -1.5173 -0.8299
  144SAPE   H8Y15841   4.860   5.474   9.362 -0.3084  0.3792  1.1799
  144SAPE   C3915842   5.013   5.330   9.308 -0.6184  0.0988  0.1306
  144SAPE   H9X15843   4.935   5.254   9.284 -4.2243  3.2779  1.1705
  144SAPE   H9Y15844   5.101   5.286   9.358  0.1973  2.1126  0.5317
  144SAPE  C31015845   5.074   5.383   9.184  0.9518  0.2602 -0.3267
  144SAPE  H10X15846   5.123   5.304   9.124  0.7140  0.2338 -0.4871
  144SAPE  H10Y15847   5.162   5.445   9.212  1.5643 -1.5602  1.8793
  144SAPE  C31115848   4.987   5.457   9.085  0.1543  0.2194  0.2453
  144SAPE  H11X15849   5.063   5.516   9.029 -2.1129  2.2692 -0.7372
  144SAPE  H11Y15850   4.923   5.526   9.144  0.8777  2.4399 -1.4987
  144SAPE  C31215851   4.916   5.365   8.986 -0.8463 -0.0255 -0.4134
  144SAPE  H12X15852   4.838   5.311   9.044  0.0731 -0.3756  0.4963
  144SAPE  H12Y15853   4.978   5.288   8.937 -0.3532 -0.6762  1.2033
  144SAPE  C31315854   4.843   5.434   8.871 -0.1001 -0.0144 -0.4245
  144SAPE  H13X15855   4.916   5.489   8.807  1.5215 -1.7193 -0.0623
  144SAPE  H13Y15856   4.776   5.517   8.903  0.3814  0.3362 -0.3132
  144SAPE  C31415857   4.750   5.352   8.788  0.3263  0.8519  0.1718
  144SAPE  H14X15858   4.671   5.419   8.749  0.1279  1.0208  0.8620
  144SAPE  H14Y15859   4.700   5.288   8.864  1.6347  0.6068  0.8474
  144SAPE  C31515860   4.803   5.261   8.674  0.1317  0.2299 -0.9313
  144SAPE  H15X15861   4.838   5.174   8.735 -4.2483 -0.5944  0.5431
  144SAPE  H15Y15862   4.898   5.298   8.629 -0.1314  3.5451  1.1510
  144SAPE  C31615863   4.702   5.222   8.571 -0.0489 -0.2759  0.7809
  144SAPE  H16X15864   4.667   5.315   8.522  1.4808  0.5270  1.2022
  144SAPE  H16Y15865   4.614   5.180   8.626  0.5739 -2.5717  0.0803
  144SAPE  C31715866   4.747   5.125   8.462  0.2895 -0.6816  0.1367
  144SAPE  H17X15867   4.784   5.034   8.514  0.6053 -0.3696  0.4670
  144SAPE  H17Y15868   4.835   5.160   8.404  1.0955  2.3240  2.9677
  144SAPE  C31815869   4.632   5.082   8.364  0.1082  0.1505 -0.5353
  144SAPE  H18X15870   4.588   5.172   8.316  1.3940  0.4213 -1.2187
  144SAPE  H18Y15871   4.553   5.033   8.425 -0.7476  0.9379 -0.9966
  144SAPE  H18Z15872   4.662   5.007   8.288 -0.6150  1.3346 -1.9975
  145SAPE     N15873   2.032   0.184  11.348  0.6849  0.3514  0.1268
  145SAPE   HN115874   2.043   0.092  11.301 -1.3879 -0.4169  1.0922
  145SAPE   HN215875   2.055   0.162  11.447  1.8024 -1.7134 -0.5521
  145SAPE   HN315876   1.936   0.221  11.329 -0.0731 -1.4009  0.4707
  145SAPE   C1215877   2.144   0.259  11.287 -0.0432 -0.2815 -0.5957
  145SAPE  H12A15878   2.229   0.274  11.357 -1.5797  1.7305  0.8776
  145SAPE  H12B15879   2.113   0.360  11.255  1.3572  0.3797  0.0984
  145SAPE   C1115880   2.192   0.181  11.163  0.5903 -0.0503 -0.9631
  145SAPE  H11A15881   2.265   0.234  11.099  1.5758  1.6506  1.4920
  145SAPE  H11B15882   2.102   0.154  11.105 -0.4891  0.7800  0.2723
  145SAPE     P15883   2.392   0.028  11.236 -0.2540  0.1890 -0.2738
  145SAPE   O1315884   2.467   0.160  11.242  0.0333 -0.3634 -0.2050
  145SAPE   O1415885   2.391  -0.059  11.363  0.6663 -0.1514  0.3614
  145SAPE   O1215886   2.242   0.054  11.204  0.3088 -0.4276  0.4705
  145SAPE   O1115887   2.457  -0.054  11.120  0.3720  0.7085 -0.1871
  145SAPE    C115888   2.418  -0.047  10.981  0.1879 -0.2568 -0.0119
  145SAPE    HA15889   2.420   0.058  10.945  0.0147 -0.1762  0.2073
  145SAPE    HB15890   2.486  -0.096  10.909  2.1944  0.5060  1.3180
  145SAPE    C215891   2.277  -0.107  10.961 -0.1855  0.3943 -0.1393
  145SAPE    HS15892   2.208  -0.106  11.049  0.1960  0.3560  0.1622
  145SAPE   O2115893   2.306  -0.239  10.910 -0.3486 -0.2457 -0.2442
  145SAPE   C2115894   2.196  -0.315  10.909  0.1212  0.3356 -0.0192
  145SAPE   O2215895   2.086  -0.279  10.939 -0.4116  0.2065 -0.1767
  145SAPE   C2215896   2.228  -0.451  10.865  0.6259 -0.6575 -0.0841
  145SAPE   H2R15897   2.311  -0.454  10.790  0.9842 -0.8917  0.3247
  145SAPE   H2S15898   2.266  -0.499  10.957 -0.5217 -1.3528  0.0313
  145SAPE    C315899   2.192  -0.023  10.866 -0.8336  0.2237 -0.2217
  145SAPE    HX15900   2.199   0.082  10.903 -0.6342  0.3110 -0.5014
  145SAPE    HY15901   2.084  -0.047  10.874 -0.7841 -0.0913 -0.4992
  145SAPE   O3115902   2.227  -0.033  10.738  0.5328  0.8314 -0.5017
  145SAPE   C3115903   2.137   0.015  10.647 -0.2413 -0.1959 -0.4338
  145SAPE   O3215904   2.036   0.076  10.679 -0.3225 -0.0425  0.1507
  145SAPE   C3215905   2.194  -0.000  10.508  0.3401 -1.0700 -0.2653
  145SAPE   H2X15906   2.200  -0.104  10.469  0.9045 -0.4995 -1.7200
  145SAPE   H2Y15907   2.298   0.039  10.505 -0.0566 -0.0557 -1.2130
  145SAPE   C2315908   2.102  -0.526  10.820  0.3695 -0.0135  0.2376
  145SAPE   H3R15909   2.029  -0.531  10.903  0.3124 -1.1040  0.1243
  145SAPE   H3S15910   2.123  -0.633  10.798 -0.6995 -0.1968  0.0828
  145SAPE   C2415911   2.047  -0.460  10.693  0.4135 -0.0932  0.5785
  145SAPE   H4R15912   2.128  -0.463  10.618 -0.3232 -0.7326 -0.1971
  145SAPE   H4S15913   2.015  -0.355  10.713  3.3155  1.0180 -0.3913
  145SAPE   C2515914   1.923  -0.530  10.647  0.1885 -0.0732  0.0366
  145SAPE   H5R15915   1.834  -0.510  10.708 -2.2062 -2.2481 -2.6255
  145SAPE   C2615916   1.907  -0.608  10.541  0.4131  0.6564  0.1636
  145SAPE   H6R15917   1.807  -0.645  10.514  0.6699 -1.2100  1.6568
  145SAPE   C2715918   2.011  -0.637  10.444 -0.4521 -0.3046 -0.4148
  145SAPE   H7R15919   2.111  -0.637  10.491  0.0977 -1.1986 -1.5427
  145SAPE   H7S15920   2.018  -0.553  10.372 -2.6380  1.4423  1.3713
  145SAPE   C2815921   1.997  -0.774  10.377  0.0059 -0.1143  0.7203
  145SAPE   H8R15922   2.052  -0.851  10.433  1.6710  1.7273  1.6784
  145SAPE   C2915923   1.940  -0.810  10.260  0.9430 -0.1949  0.2736
  145SAPE   H9R15924   1.937  -0.915  10.229  5.5426 -0.7012  1.1755
  145SAPE  C21015925   1.875  -0.717  10.160 -0.1456  0.4447 -1.2261
  145SAPE  H10R15926   1.867  -0.765  10.060  1.0470 -1.3214 -0.4826
  145SAPE  H10S15927   1.936  -0.627  10.138  0.2154  0.6555  0.5496
  145SAPE  C21115928   1.744  -0.660  10.199 -0.5147  0.1460  0.1659
  145SAPE  H11R15929   1.698  -0.697  10.292  0.1847 -1.4606 -0.0967
  145SAPE  C21215930   1.667  -0.578  10.124  0.5576  0.6556 -0.2413
  145SAPE  H12R15931   1.571  -0.541  10.165 -1.1970 -2.3505 -1.4844
  145SAPE  C21315932   1.698  -0.513   9.999  0.6795 -0.6391 -0.3873
  145SAPE  H13R15933   1.807  -0.491   9.996  0.1273  2.7382  1.8903
  145SAPE  H13S15934   1.641  -0.418   9.989  3.2609  1.3291  2.5797
  145SAPE  C21415935   1.669  -0.602   9.878  0.0598  0.0640  0.2035
  145SAPE  H14R15936   1.571  -0.652   9.880  0.8734 -1.5800 -0.2707
  145SAPE  C21515937   1.733  -0.613   9.757  0.4340  0.6475  0.4682
  145SAPE  H15R15938   1.685  -0.673   9.678 -2.0964 -1.6790  3.6023
  145SAPE  C21615939   1.864  -0.546   9.722 -0.2089  0.1968  0.2485
  145SAPE  H16R15940   1.938  -0.620   9.684 -0.4010  0.5482 -0.8384
  145SAPE  H16S15941   1.907  -0.490   9.808  1.7114 -3.2923  1.6481
  145SAPE  C21715942   1.846  -0.433   9.618 -0.0287  0.2692  0.0717
  145SAPE  H17R15943   1.925  -0.355   9.612  0.0532  0.2059  0.3313
  145SAPE  H17S15944   1.755  -0.377   9.648 -0.4224 -0.7903  0.8834
  145SAPE  C21815945   1.821  -0.483   9.474  0.2981  0.7794  0.6786
  145SAPE  H18R15946   1.748  -0.420   9.419  2.9941 -0.0802 -4.2587
  145SAPE  H18S15947   1.778  -0.585   9.471  0.9626  0.4813  1.0987
  145SAPE  C21915948   1.950  -0.490   9.393  1.1580  0.2744  0.4635
  145SAPE  H19R15949   1.998  -0.586   9.424 -1.0792 -0.7887  0.7537
  145SAPE  H19S15950   2.021  -0.406   9.408  0.8337  0.5727  0.3300
  145SAPE  C22015951   1.930  -0.498   9.240  0.2320 -0.1571  0.6952
  145SAPE  H20R15952   2.019  -0.525   9.179  0.7157  0.5790  1.0627
  145SAPE  H20S15953   1.898  -0.401   9.195  1.8281  0.8258  1.6369
  145SAPE  H20T15954   1.868  -0.584   9.208 -0.7408  1.4369 -1.8402
  145SAPE   C3315955   2.111   0.084  10.402 -0.5795 -0.4851 -0.2529
  145SAPE   H3X15956   2.067   0.177  10.443  0.2813 -1.1723  2.3755
  145SAPE   H3Y15957   2.020   0.027  10.373 -1.3796 -1.4836  3.8421
  145SAPE   C3415958   2.186   0.116  10.273 -0.4780  0.7450 -0.4152
  145SAPE   H4X15959   2.245   0.030  10.234 -0.4393  0.6456 -0.1383
  145SAPE   H4Y15960   2.257   0.197  10.298 -0.3742  0.1634  1.2120
  145SAPE   C3515961   2.096   0.162  10.156 -0.8153  0.9718 -0.2621
  145SAPE   H5X15962   2.015   0.222  10.203 -0.0997 -0.2009  2.5761
  145SAPE   H5Y15963   2.043   0.068  10.129  0.6248 -0.5499  2.0705
  145SAPE   C3615964   2.165   0.252  10.055 -0.0633 -0.2271  0.6493
  145SAPE   H6X15965   2.274   0.233  10.047  0.5006  2.0975  2.3305
  145SAPE   H6Y15966   2.158   0.355  10.097 -1.7235 -0.3808  0.7838
  145SAPE   C3715967   2.099   0.256   9.913  0.2777 -0.4231  0.0183
  145SAPE   H7X15968   1.989   0.269   9.920  0.2311 -0.3772 -0.8402
  145SAPE   H7Y15969   2.104   0.150   9.879  1.1014 -0.5798  0.6160
  145SAPE   C3815970   2.161   0.366   9.824 -0.9812  0.1684  0.0929
  145SAPE   H8X15971   2.269   0.345   9.807 -0.8349  1.6516 -0.8672
  145SAPE   H8Y15972   2.142   0.464   9.874  2.2417  0.7569  0.2601
  145SAPE   C3915973   2.094   0.369   9.690  0.3842  0.3714 -0.3315
  145SAPE   H9X15974   2.135   0.448   9.623  1.8374 -0.0239  0.0757
  145SAPE   H9Y15975   1.989   0.400   9.709 -0.3050 -1.2228 -1.4760
  145SAPE  C31015976   2.117   0.243   9.610  0.2204  0.0671  0.3701
  145SAPE  H10X15977   2.071   0.161   9.669 -1.0867  0.8185  0.4135
  145SAPE  H10Y15978   2.227   0.225   9.608 -0.2101 -3.2549  2.4232
  145SAPE  C31115979   2.066   0.246   9.469  0.3925  0.4739  0.0649
  145SAPE  H11X15980   2.110   0.330   9.412  0.2068 -0.2072 -1.0876
  145SAPE  H11Y15981   1.958   0.271   9.476  0.5121  0.8659  0.5525
  145SAPE  C31215982   2.093   0.119   9.394 -0.4271  0.1821 -0.1343
  145SAPE  H12X15983   2.034   0.031   9.426 -1.1833  1.7375  2.9236
  145SAPE  H12Y15984   2.201   0.091   9.398 -0.7887 -1.2500 -0.3817
  145SAPE  C31315985   2.077   0.136   9.242 -0.6379  0.4302  0.7657
  145SAPE  H13X15986   2.175   0.141   9.189 -1.4156  0.1951 -0.7392
  145SAPE  H13Y15987   2.032   0.233   9.211 -1.1768 -0.2318 -0.5556
  145SAPE  C31415988   2.015   0.004   9.174 -0.3803  0.4203 -0.3831
  145SAPE  H14X15989   1.932  -0.036   9.236  0.9435 -1.7411  0.0629
  145SAPE  H14Y15990   2.085  -0.082   9.167 -1.2389 -0.4622  1.4744
  145SAPE  C31515991   1.948   0.043   9.044  1.2484 -0.4672 -0.0205
  145SAPE  H15X15992   2.019   0.105   8.985  0.8194  1.3809  1.3561
  145SAPE  H15Y15993   1.863   0.112   9.065  0.6047 -0.9310 -1.0724
  145SAPE  C31615994   1.887  -0.062   8.950 -0.6217 -0.7377 -0.6902
  145SAPE  H16X15995   1.975  -0.124   8.920 -0.1074 -0.8336  0.9410
  145SAPE  H16Y15996   1.840  -0.001   8.870 -0.3146 -2.1818 -2.0055
  145SAPE  C31715997   1.786  -0.149   9.022  0.4590 -0.6302 -0.0126
  145SAPE  H17X15998   1.703  -0.088   9.066 -0.3525  0.0957 -2.4976
  145SAPE  H17Y15999   1.843  -0.208   9.097 -1.8184 -2.1609  0.5889
  145SAPE  C31816000   1.711  -0.239   8.932  0.2496  0.4989  0.1066
  145SAPE  H18X16001   1.675  -0.187   8.841  2.0720  2.9828  0.7476
  145SAPE  H18Y16002   1.631  -0.292   8.988  1.3098 -1.3550 -0.0773
  145SAPE  H18Z16003   1.778  -0.321   8.899 -1.2937 -1.3235  1.3749
  146SAPE     N16004   5.750   6.266  10.991 -0.1078 -0.1119 -0.0555
  146SAPE   HN116005   5.818   6.323  10.938 -1.2226  1.2907  0.0061
  146SAPE   HN216006   5.699   6.337  11.047 -0.6817  1.1135 -2.0703
  146SAPE   HN316007   5.802   6.196  11.047  1.7766  1.0704 -0.2952
  146SAPE   C1216008   5.658   6.185  10.896 -0.0706  0.2142  0.9450
  146SAPE  H12A16009   5.603   6.261  10.837 -2.7778 -2.6809 -0.4027
  146SAPE  H12B16010   5.577   6.126  10.944  1.0658 -1.9387  0.2910
  146SAPE   C1116011   5.753   6.096  10.814 -0.1239  0.0999 -0.3136
  146SAPE  H11A16012   5.824   6.160  10.757 -1.2795  0.4255 -1.4096
  146SAPE  H11B16013   5.701   6.054  10.725 -0.2809  2.4644 -1.3732
  146SAPE     P16014   5.969   5.967  10.908  0.2675  0.0613  0.2827
  146SAPE   O1316015   6.034   6.073  10.985 -0.5961 -0.1423 -0.2430
  146SAPE   O1416016   5.988   5.827  10.951  0.0828 -0.1794 -0.0679
  146SAPE   O1216017   5.813   5.994  10.903  0.0561 -0.4738 -0.1719
  146SAPE   O1116018   6.018   5.985  10.761  0.2916 -0.1265  0.2954
  146SAPE    C116019   5.979   5.886  10.659  0.3883  0.7819 -0.0551
  146SAPE    HA16020   5.894   5.822  10.689  1.1562 -0.8505 -1.3018
  146SAPE    HB16021   5.959   5.937  10.562  2.0521  0.8047 -0.4088
  146SAPE    C216022   6.101   5.800  10.634  0.0704 -0.3258 -0.4958
  146SAPE    HS16023   6.136   5.762  10.733  0.6187  1.4775  0.0127
  146SAPE   O2116024   6.204   5.881  10.574 -0.1553  0.5695  0.3538
  146SAPE   C2116025   6.326   5.836  10.571 -0.3723  0.7949 -0.6069
  146SAPE   O2216026   6.369   5.732  10.622  0.0777  0.1848  0.0179
  146SAPE   C2216027   6.415   5.931  10.494 -0.3648 -0.1564  0.2051
  146SAPE   H2R16028   6.356   6.005  10.435  0.2107  0.2008  0.0794
  146SAPE   H2S16029   6.464   5.979  10.581 -1.2956 -0.0780  0.6902
  146SAPE    C316030   6.066   5.678  10.543 -0.6482  0.7586  0.1433
  146SAPE    HX16031   5.996   5.610  10.597  0.5192 -0.9930 -0.5035
  146SAPE    HY16032   6.161   5.621  10.531 -1.1907  0.3815 -2.6779
  146SAPE   O3116033   6.012   5.730  10.416  0.0298  0.0536  0.5797
  146SAPE   C3116034   6.101   5.717  10.315  0.0381  0.0083 -0.4566
  146SAPE   O3216035   6.222   5.698  10.320 -0.2150 -0.1699  0.2121
  146SAPE   C3216036   6.027   5.721  10.183 -0.3215  0.4510 -0.2160
  146SAPE   H2X16037   5.982   5.822  10.190  2.0650  1.6285 -1.1299
  146SAPE   H2Y16038   5.950   5.642  10.184  0.4937 -0.3523 -0.3390
  146SAPE   C2316039   6.510   5.847  10.406 -0.1411  0.5213  0.2163
  146SAPE   H3R16040   6.459   5.786  10.329 -0.7129 -0.1301  1.1043
  146SAPE   H3S16041   6.566   5.782  10.477  0.4479 -0.1989 -0.9035
  146SAPE   C2416042   6.609   5.939  10.324 -0.1576  0.4574 -0.2328
  146SAPE   H4R16043   6.671   5.996  10.395  1.9884  0.2557 -1.8886
  146SAPE   H4S16044   6.548   6.005  10.258  1.7177 -0.7274 -3.2742
  146SAPE   C2516045   6.700   5.853  10.233  0.1756  0.2683 -0.4067
  146SAPE   H5R16046   6.796   5.836  10.286 -0.7649  1.2363  1.6904
  146SAPE   C2616047   6.676   5.800  10.108 -0.0208 -0.0019  0.1437
  146SAPE   H6R16048   6.757   5.751  10.052  1.0853  3.2457 -1.1871
  146SAPE   C2716049   6.547   5.802  10.034  0.5976  0.2758  0.3963
  146SAPE   H7R16050   6.459   5.823  10.098 -1.3945  1.4969 -2.6272
  146SAPE   H7S16051   6.537   5.700   9.991  0.6688  1.3618 -2.2921
  146SAPE   C2816052   6.546   5.921   9.939 -0.7253  0.1364 -0.0816
  146SAPE   H8R16053   6.568   6.015   9.992 -1.2863 -0.9116  2.1127
  146SAPE   C2916054   6.504   5.926   9.811  0.3095 -0.7629  1.2354
  146SAPE   H9R16055   6.508   6.024   9.760 -1.5288 -1.0548  0.5069
  146SAPE  C21016056   6.447   5.815   9.730 -0.1598 -0.3614 -0.2903
  146SAPE  H10R16057   6.352   5.850   9.684  0.6001 -0.6484 -2.1522
  146SAPE  H10S16058   6.400   5.741   9.798 -0.0672  0.4469  0.6620
  146SAPE  C21116059   6.532   5.769   9.614  0.0983  0.3180  1.0521
  146SAPE  H11R16060   6.604   5.691   9.639  0.8906 -0.1238 -2.3878
  146SAPE  C21216061   6.530   5.817   9.489 -0.3104 -0.0145  0.4087
  146SAPE  H12R16062   6.589   5.780   9.403 -2.2270 -0.2926 -0.8345
  146SAPE  C21316063   6.439   5.932   9.450  0.0184 -0.2299  0.3167
  146SAPE  H13R16064   6.430   6.008   9.531 -2.9387 -1.3706  1.1332
  146SAPE  H13S16065   6.335   5.894   9.437  0.8481 -3.3326  2.4025
  146SAPE  C21416066   6.478   6.011   9.325  0.0508 -0.4261 -0.4262
  146SAPE  H14R16067   6.524   6.107   9.351 -0.1515 -0.6319  0.7377
  146SAPE  C21516068   6.468   5.973   9.195  0.0641 -0.6536  0.1394
  146SAPE  H15R16069   6.495   6.042   9.114 -1.3444 -0.7027 -0.3944
  146SAPE  C21616070   6.411   5.841   9.157 -0.4388  0.1954  1.3922
  146SAPE  H16R16071   6.340   5.856   9.073  1.2336  0.8954  0.0742
  146SAPE  H16S16072   6.361   5.795   9.245 -0.1589  0.4629  1.6948
  146SAPE  C21716073   6.519   5.732   9.118  0.5757 -0.1367 -0.1782
  146SAPE  H17R16074   6.484   5.627   9.116  0.7182 -0.1693 -2.4480
  146SAPE  H17S16075   6.590   5.741   9.203 -1.3371 -0.1381  1.4368
  146SAPE  C21816076   6.596   5.760   8.993  0.1282 -0.1904  0.0831
  146SAPE  H18R16077   6.684   5.693   8.989 -0.9543 -1.5703 -0.8445
  146SAPE  H18S16078   6.647   5.858   9.008 -0.2693  0.0226  0.0488
  146SAPE  C21916079   6.530   5.753   8.855 -0.8378 -0.2175  0.1849
  146SAPE  H19R16080   6.449   5.676   8.851 -0.3412 -0.7095 -0.4689
  146SAPE  H19S16081   6.610   5.728   8.782  0.6768 -0.4140  1.8933
  146SAPE  C22016082   6.482   5.886   8.799  0.1600 -0.2523 -0.2688
  146SAPE  H20R16083   6.393   5.925   8.853  1.5899  1.3969  0.9812
  146SAPE  H20S16084   6.456   5.874   8.692 -0.4097  3.0332 -0.5444
  146SAPE  H20T16085   6.554   5.970   8.807 -0.7482  0.3532  1.9034
  146SAPE   C3316086   6.104   5.706  10.057  0.1896  0.0097  0.2121
  146SAPE   H3X16087   6.113   5.597  10.037 -0.1208 -0.0397  0.3413
  146SAPE   H3Y16088   6.205   5.748  10.073 -0.3171  1.5337 -0.5104
  146SAPE   C3416089   6.036   5.788   9.943  0.3701  0.3261  0.4497
  146SAPE   H4X16090   6.046   5.896   9.966  2.7090 -0.1848  1.9797
  146SAPE   H4Y16091   5.927   5.772   9.958  0.1315  2.0489  0.5769
  146SAPE   C3516092   6.079   5.740   9.803 -0.0219  0.3653 -0.1988
  146SAPE   H5X16093   6.041   5.636   9.797 -0.4068  0.4816  0.2371
  146SAPE   H5Y16094   6.190   5.750   9.798 -0.0040  0.1353 -0.2806
  146SAPE   C3616095   6.021   5.810   9.679 -0.1677 -0.6262 -0.6459
  146SAPE   H6X16096   6.022   5.920   9.699 -1.3258 -0.8994  1.0352
  146SAPE   H6Y16097   5.916   5.779   9.662  0.0367 -0.5371 -2.0788
  146SAPE   C3716098   6.089   5.778   9.544 -0.1650  0.3836 -0.6633
  146SAPE   H7X16099   6.094   5.669   9.523  0.1386  0.0404  1.0878
  146SAPE   H7Y16100   6.195   5.809   9.548  0.0211 -0.2781 -0.2810
  146SAPE   C3816101   6.013   5.841   9.423  0.1354 -0.0943 -0.0250
  146SAPE   H8X16102   6.008   5.949   9.447  1.4977 -0.1096  0.3931
  146SAPE   H8Y16103   5.913   5.798   9.404  0.8444 -2.4018  1.3269
  146SAPE   C3916104   6.093   5.829   9.290  0.0227 -0.6436  1.1324
  146SAPE   H9X16105   6.127   5.724   9.280  0.1587 -0.4101 -1.1196
  146SAPE   H9Y16106   6.175   5.904   9.283 -0.6243  0.1422  1.8517
  146SAPE  C31016107   5.993   5.864   9.181 -0.0108 -0.0331 -0.6713
  146SAPE  H10X16108   5.934   5.953   9.214  2.7877  0.4469  3.4451
  146SAPE  H10Y16109   5.927   5.776   9.172 -2.0347  1.1228  2.0755
  146SAPE  C31116110   6.060   5.892   9.043 -0.5297 -0.3591 -0.0309
  146SAPE  H11X16111   6.113   5.804   9.000  0.9878  0.3505  0.3568
  146SAPE  H11Y16112   6.131   5.976   9.055 -0.9094 -0.2175  1.3161
  146SAPE  C31216113   5.953   5.937   8.954  0.6234  0.3217  0.3161
  146SAPE  H12X16114   5.914   6.039   8.976  0.2241 -0.2872  2.5167
  146SAPE  H12Y16115   5.871   5.862   8.958 -0.2561  1.2253 -0.4102
  146SAPE  C31316116   5.993   5.932   8.798  0.4589  0.4153  1.1454
  146SAPE  H13X16117   6.075   5.857   8.787  1.4942  1.6562  0.2207
  146SAPE  H13Y16118   6.037   6.032   8.776 -1.5457  1.4142  1.5385
  146SAPE  C31416119   5.868   5.915   8.708 -0.0563 -0.4796 -0.1943
  146SAPE  H14X16120   5.793   5.997   8.712 -0.2930 -0.7155  0.3661
  146SAPE  H14Y16121   5.812   5.829   8.752  0.9847  0.0692  2.3113
  146SAPE  C31516122   5.896   5.895   8.562  0.1720  0.8813 -0.1070
  146SAPE  H15X16123   5.951   5.801   8.541 -2.2464 -0.9636  1.4538
  146SAPE  H15Y16124   5.946   5.989   8.531  2.0532 -0.6743 -1.9381
  146SAPE  C31616125   5.761   5.866   8.490 -0.3687  0.4693 -1.1832
  146SAPE  H16X16126   5.693   5.950   8.515 -0.3641 -0.7140  3.1753
  146SAPE  H16Y16127   5.728   5.767   8.528  0.1658  0.2242 -1.3531
  146SAPE  C31716128   5.772   5.868   8.340 -0.5588  0.7427  0.6150
  146SAPE  H17X16129   5.781   5.973   8.305  1.2265  0.0317 -1.1817
  146SAPE  H17Y16130   5.677   5.818   8.309  0.1815 -0.0608 -0.4191
  146SAPE  C31816131   5.888   5.777   8.282 -0.4493 -0.7312 -0.4838
  146SAPE  H18X16132   5.983   5.809   8.328 -1.1458  0.6812  0.0033
  146SAPE  H18Y16133   5.900   5.774   8.171  0.6214  0.7825 -0.4118
  146SAPE  H18Z16134   5.879   5.670   8.310  0.6784 -0.0555  2.6164
  147SAPE     N16135   3.429   3.197   6.196  0.1250 -0.1111  0.2161
  147SAPE   HN116136   3.507   3.148   6.149  0.2798  0.5286 -0.1933
  147SAPE   HN216137   3.369   3.117   6.224 -0.2834  0.8004  2.0427
  147SAPE   HN316138   3.372   3.264   6.139  2.2384 -0.4980 -2.4142
  147SAPE   C1216139   3.468   3.265   6.326 -0.9414 -0.4266  0.2873
  147SAPE  H12A16140   3.373   3.311   6.361 -0.7950 -0.4006  0.6470
  147SAPE  H12B16141   3.538   3.349   6.307  0.2835 -0.4697  4.2205
  147SAPE   C1116142   3.520   3.168   6.431 -0.3083  0.7504 -0.7608
  147SAPE  H11A16143   3.448   3.086   6.451  2.3694 -1.9345 -1.7856
  147SAPE  H11B16144   3.531   3.235   6.519 -0.0516  0.4495 -0.5609
  147SAPE     P16145   3.723   3.010   6.476  0.0869 -0.0612  0.0061
  147SAPE   O1316146   3.655   2.886   6.449  0.5766  0.5149 -0.3575
  147SAPE   O1416147   3.869   3.020   6.455  0.0221  0.6073 -0.3592
  147SAPE   O1216148   3.645   3.125   6.394 -0.5738  0.1362 -0.0225
  147SAPE   O1116149   3.694   3.047   6.630  0.1401 -0.3292 -0.3050
  147SAPE    C116150   3.773   3.157   6.679  0.0956  0.6485  0.2634
  147SAPE    HA16151   3.881   3.137   6.666 -0.1081  0.9356 -2.0437
  147SAPE    HB16152   3.760   3.254   6.626  2.0789  1.3256  0.9758
  147SAPE    C216153   3.764   3.165   6.836 -0.1728  0.1558  0.1389
  147SAPE    HS16154   3.829   3.249   6.870 -1.6525  1.7995 -1.0176
  147SAPE   O2116155   3.801   3.037   6.890  0.1899 -0.2988 -0.2884
  147SAPE   C2116156   3.846   3.048   7.008 -0.6121  0.5234 -0.4265
  147SAPE   O2216157   3.864   3.152   7.074 -0.1421  0.4016  0.2604
  147SAPE   C2216158   3.884   2.905   7.050  0.3548 -0.4703  0.2363
  147SAPE   H2R16159   3.792   2.842   7.043 -0.5349  0.8175  0.2558
  147SAPE   H2S16160   3.956   2.863   6.976  0.9167  1.7257 -0.4970
  147SAPE    C316161   3.618   3.201   6.886 -0.3397  0.5069 -0.1487
  147SAPE    HX16162   3.576   3.098   6.888 -1.7611  1.0911  1.6877
  147SAPE    HY16163   3.558   3.266   6.819 -0.1748 -0.6699 -1.4577
  147SAPE   O3116164   3.610   3.248   7.023  0.4796 -0.0151 -0.2942
  147SAPE   C3116165   3.668   3.366   7.048  0.3634 -0.2719  0.2397
  147SAPE   O3216166   3.704   3.443   6.964  0.1122 -0.0646  0.5434
  147SAPE   C3216167   3.673   3.390   7.200 -0.2738 -0.2552  0.2115
  147SAPE   H2X16168   3.689   3.289   7.245  0.4361  0.3591  1.3576
  147SAPE   H2Y16169   3.569   3.420   7.224 -0.2643  1.7395 -2.0794
  147SAPE   C2316170   3.927   2.885   7.197  0.1888  0.1527  0.6830
  147SAPE   H3R16171   4.018   2.945   7.215 -0.4366  0.4933  2.8455
  147SAPE   H3S16172   3.946   2.776   7.208 -0.3018  0.3876  4.7243
  147SAPE   C2416173   3.818   2.917   7.294  0.0145 -0.3593 -0.0695
  147SAPE   H4R16174   3.727   2.860   7.268  1.1889 -1.5480 -1.7046
  147SAPE   H4S16175   3.789   3.023   7.278  0.0557 -0.2576  0.5212
  147SAPE   C2516176   3.870   2.899   7.436 -0.0137  0.0586  0.0037
  147SAPE   H5R16177   3.934   2.810   7.449  0.6655  0.6493  0.7412
  147SAPE   C2616178   3.859   2.989   7.535  0.1012 -0.4911 -0.2531
  147SAPE   H6R16179   3.899   2.964   7.634 -1.1812  1.5417  0.8404
  147SAPE   C2716180   3.788   3.124   7.533  0.1373  0.3289 -0.0486
  147SAPE   H7R16181   3.705   3.118   7.459  0.5403 -1.4794 -0.3800
  147SAPE   H7S16182   3.860   3.202   7.500  0.8896 -0.9679 -1.5589
  147SAPE   C2816183   3.733   3.143   7.674  0.5308 -0.6283 -0.7715
  147SAPE   H8R16184   3.803   3.135   7.759  0.0123  2.5247  0.0471
  147SAPE   C2916185   3.602   3.170   7.700 -0.3840 -0.1319 -0.0098
  147SAPE   H9R16186   3.575   3.175   7.806 -2.0600 -2.4233 -0.2822
  147SAPE  C21016187   3.496   3.190   7.598 -0.3387  0.7124 -0.1110
  147SAPE  H10R16188   3.543   3.253   7.520  4.2993 -0.5436  1.4989
  147SAPE  H10S16189   3.428   3.265   7.643 -0.5473  1.2007 -1.2264
  147SAPE  C21116190   3.417   3.066   7.548  0.2891  0.0206 -0.0558
  147SAPE  H11R16191   3.413   2.983   7.620 -0.5761  0.3720  0.2992
  147SAPE  C21216192   3.346   3.058   7.426 -0.6593  0.1648  0.5965
  147SAPE  H12R16193   3.287   2.969   7.400 -0.3128 -0.1035  0.7281
  147SAPE  C21316194   3.339   3.167   7.326 -0.2890 -0.3274 -0.0379
  147SAPE  H13R16195   3.415   3.246   7.345 -2.0272  0.8132  2.3679
  147SAPE  H13S16196   3.235   3.207   7.326 -0.5034 -0.8053 -1.8877
  147SAPE  C21416197   3.369   3.116   7.191 -0.3657  0.6125 -0.0589
  147SAPE  H14R16198   3.439   3.031   7.193 -3.0032 -1.6717 -0.1611
  147SAPE  C21516199   3.326   3.180   7.076 -0.5146  0.1737 -0.7705
  147SAPE  H15R16200   3.354   3.132   6.982  3.6347 -1.3017  1.0888
  147SAPE  C21616201   3.241   3.302   7.061  0.6490  0.5441  0.4281
  147SAPE  H16R16202   3.277   3.354   6.969  1.6430 -0.8704  0.0058
  147SAPE  H16S16203   3.247   3.376   7.145  0.0675  1.5083 -0.3681
  147SAPE  C21716204   3.094   3.260   7.050 -0.0873  0.4255  0.3867
  147SAPE  H17R16205   3.064   3.197   7.136  0.2174 -0.4347 -0.1289
  147SAPE  H17S16206   3.081   3.194   6.961 -2.0898 -0.5173  1.3526
  147SAPE  C21816207   2.990   3.374   7.031 -0.2643 -0.5366 -0.2065
  147SAPE  H18R16208   2.897   3.327   6.994 -0.1094 -0.3107 -0.8940
  147SAPE  H18S16209   3.021   3.445   6.951 -1.8395 -0.9662 -1.2198
  147SAPE  C21916210   2.968   3.458   7.163 -0.2567  0.0599  0.1238
  147SAPE  H19R16211   3.064   3.489   7.211  0.1339  0.3723 -0.8494
  147SAPE  H19S16212   2.933   3.378   7.231 -0.8631 -0.4054 -0.7299
  147SAPE  C22016213   2.872   3.576   7.137  0.4151 -0.2898 -0.0554
  147SAPE  H20R16214   2.841   3.633   7.227  0.8086  0.2688 -0.2722
  147SAPE  H20S16215   2.775   3.540   7.097 -0.0860 -0.0354  0.9328
  147SAPE  H20T16216   2.917   3.645   7.062  2.6636 -0.6374  0.9080
  147SAPE   C3316217   3.784   3.489   7.238  0.0373 -0.1491  0.5257
  147SAPE   H3X16218   3.765   3.586   7.187 -2.5561 -1.6572 -1.5283
  147SAPE   H3Y16219   3.884   3.443   7.226  0.5496  0.8470  0.9242
  147SAPE   C3416220   3.766   3.517   7.391 -0.3718  0.2072 -0.8240
  147SAPE   H4X16221   3.789   3.425   7.450  2.1475  1.0849 -0.3861
  147SAPE   H4Y16222   3.660   3.544   7.409 -0.4883 -0.3917 -0.6036
  147SAPE   C3516223   3.847   3.635   7.449 -0.2148 -0.3268  0.3491
  147SAPE   H5X16224   3.827   3.725   7.388 -3.4649 -3.3762 -3.3124
  147SAPE   H5Y16225   3.956   3.615   7.448 -0.3948 -1.5349  1.8516
  147SAPE   C3616226   3.794   3.688   7.586  0.2636  0.4218  0.2517
  147SAPE   H6X16227   3.700   3.745   7.569 -0.5922 -0.5798  1.4867
  147SAPE   H6Y16228   3.864   3.765   7.625  0.1577  0.4442  0.3966
  147SAPE   C3716229   3.785   3.587   7.701 -0.6464 -0.0355 -0.2920
  147SAPE   H7X16230   3.888   3.555   7.728 -0.7979 -0.4322 -0.1823
  147SAPE   H7Y16231   3.737   3.493   7.665  0.0044 -0.7776  0.7548
  147SAPE   C3816232   3.706   3.640   7.819 -0.0678 -0.6294 -0.2600
  147SAPE   H8X16233   3.605   3.668   7.782 -0.4626  2.9631  3.1467
  147SAPE   H8Y16234   3.762   3.731   7.849 -2.8552  0.9836  0.2483
  147SAPE   C3916235   3.701   3.541   7.939 -0.3674 -0.0170  0.6956
  147SAPE   H9X16236   3.805   3.512   7.966 -0.2520 -1.0319 -0.7901
  147SAPE   H9Y16237   3.658   3.448   7.898  0.2518  0.2611 -0.6134
  147SAPE  C31016238   3.629   3.601   8.054 -0.6217  0.1171 -0.0268
  147SAPE  H10X16239   3.533   3.640   8.014 -1.1568 -0.9223  0.2378
  147SAPE  H10Y16240   3.690   3.680   8.102 -0.4385  0.3828 -0.6922
  147SAPE  C31116241   3.597   3.489   8.149  0.4258  0.2130 -0.0764
  147SAPE  H11X16242   3.686   3.425   8.164 -0.0779 -0.1071  1.6765
  147SAPE  H11Y16243   3.514   3.437   8.098  1.0928 -1.6412  0.6761
  147SAPE  C31216244   3.541   3.550   8.285  0.0830  0.1260 -0.5535
  147SAPE  H12X16245   3.485   3.470   8.338  1.1785 -0.2722  0.0353
  147SAPE  H12Y16246   3.474   3.636   8.266  3.2870  2.9516  0.2813
  147SAPE  C31316247   3.650   3.591   8.371 -0.4556  0.2702 -0.5832
  147SAPE  H13X16248   3.704   3.677   8.326 -1.0812  0.7710 -0.3836
  147SAPE  H13Y16249   3.720   3.505   8.377 -0.5550  0.3148  1.6784
  147SAPE  C31416250   3.608   3.629   8.513 -0.2819 -0.3489 -0.3959
  147SAPE  H14X16251   3.689   3.674   8.575  0.2677  1.5172 -2.3836
  147SAPE  H14Y16252   3.584   3.536   8.568 -2.0644  0.9702  1.1143
  147SAPE  C31516253   3.508   3.743   8.516 -0.0650 -0.7691  0.0703
  147SAPE  H15X16254   3.408   3.715   8.475 -1.2785  1.4480  1.3624
  147SAPE  H15Y16255   3.538   3.815   8.438 -0.9479 -1.3529 -0.8230
  147SAPE  C31616256   3.494   3.808   8.652 -0.4923  0.4258 -0.0762
  147SAPE  H16X16257   3.416   3.885   8.635  0.0717  1.2542  1.0725
  147SAPE  H16Y16258   3.583   3.865   8.685 -0.7799  0.3894  0.7716
  147SAPE  C31716259   3.434   3.725   8.770  0.3921  0.7191 -0.3780
  147SAPE  H17X16260   3.506   3.655   8.816  0.0251  2.1872  2.5763
  147SAPE  H17Y16261   3.364   3.648   8.731  0.4759  1.6584 -2.4272
  147SAPE  C31816262   3.383   3.819   8.882  0.0453  0.3314 -0.2054
  147SAPE  H18X16263   3.350   3.748   8.961  1.2149 -1.3536 -1.1974
  147SAPE  H18Y16264   3.297   3.883   8.852 -0.3671  1.0797  2.4647
  147SAPE  H18Z16265   3.465   3.889   8.909 -0.5296  0.7152  0.5697
  148SAPE     N16266   3.277   1.069   6.856  0.2913  0.0528  0.3692
  148SAPE   HN116267   3.310   1.136   6.784 -0.0280 -2.9070 -2.6374
  148SAPE   HN216268   3.356   1.032   6.913  0.8603 -1.0576 -1.1029
  148SAPE   HN316269   3.244   0.991   6.796  2.2695 -0.2371 -0.3675
  148SAPE   C1216270   3.153   1.108   6.923 -0.3209  0.1300  0.0305
  148SAPE  H12A16271   3.153   1.219   6.932 -0.4750  0.0252  1.4278
  148SAPE  H12B16272   3.150   1.057   7.022 -1.9376  2.1912  1.0999
  148SAPE   C1116273   3.033   1.046   6.856  0.0970  0.7754  0.4994
  148SAPE  H11A16274   2.944   1.056   6.920 -0.0132  0.6423  0.3674
  148SAPE  H11B16275   3.050   0.936   6.855 -1.7544  0.4681  1.4305
  148SAPE     P16276   2.916   1.202   6.679 -0.4688  0.3560 -0.2999
  148SAPE   O1316277   2.926   1.215   6.531  0.3797 -0.1345  0.1830
  148SAPE   O1416278   2.782   1.164   6.734 -0.0053 -0.1801  0.0321
  148SAPE   O1216279   3.016   1.091   6.722  0.4684 -0.0677 -0.2776
  148SAPE   O1116280   2.968   1.330   6.753  0.4008  0.0661  0.1932
  148SAPE    C116281   2.909   1.375   6.878 -0.0947 -0.0713 -0.9816
  148SAPE    HA16282   2.799   1.371   6.871 -0.2502  1.3497  0.4029
  148SAPE    HB16283   2.929   1.299   6.956  0.4984  0.2547 -0.8069
  148SAPE    C216284   2.964   1.509   6.921 -0.2767  0.0407 -0.2847
  148SAPE    HS16285   3.069   1.514   6.885 -1.1192  0.7916 -2.7509
  148SAPE   O2116286   2.955   1.523   7.065 -0.2041  0.5236  0.1936
  148SAPE   C2116287   3.051   1.456   7.135  0.7274 -0.0988  0.4175
  148SAPE   O2216288   3.148   1.402   7.088 -0.4198  1.1286  0.4281
  148SAPE   C2216289   3.015   1.454   7.287  0.1916  1.0742  0.7097
  148SAPE   H2R16290   2.972   1.555   7.306 -2.1781  0.0917  0.6762
  148SAPE   H2S16291   2.930   1.384   7.299 -0.8402  2.0491 -0.7852
  148SAPE    C316292   2.894   1.621   6.839 -1.0356 -0.2598 -0.3101
  148SAPE    HX16293   2.784   1.602   6.849 -0.7827 -0.6145  2.1488
  148SAPE    HY16294   2.929   1.612   6.734 -0.9002  1.1407 -0.3921
  148SAPE   O3116295   2.927   1.752   6.885  0.1745  0.2873  0.4714
  148SAPE   C3116296   2.830   1.822   6.953  0.0400 -0.3030  0.2847
  148SAPE   O3216297   2.711   1.798   6.950 -0.0437 -0.6469  0.6906
  148SAPE   C3216298   2.895   1.927   7.043  0.3484  0.3479  0.2889
  148SAPE   H2X16299   2.943   2.006   6.981  1.8353 -0.1211  0.8049
  148SAPE   H2Y16300   2.976   1.876   7.100  0.4825 -0.1170 -0.3051
  148SAPE   C2316301   3.126   1.404   7.382  0.6428 -0.2539  0.5090
  148SAPE   H3R16302   3.161   1.302   7.355  1.1438  0.1711 -0.4775
  148SAPE   H3S16303   3.068   1.400   7.477  0.3145 -1.2097  0.2759
  148SAPE   C2416304   3.254   1.486   7.383  0.6632 -0.2948  0.7306
  148SAPE   H4R16305   3.230   1.592   7.404 -0.5349 -0.0241 -1.8910
  148SAPE   H4S16306   3.298   1.478   7.282 -1.6071 -0.6859 -0.2506
  148SAPE   C2516307   3.348   1.427   7.479  0.3258  0.5152 -0.0790
  148SAPE   H5R16308   3.402   1.337   7.445  1.1816  0.5243  1.2543
  148SAPE   C2616309   3.387   1.485   7.595 -0.5618 -0.1998  0.6615
  148SAPE   H6R16310   3.456   1.430   7.660  1.3437  2.0968  0.6487
  148SAPE   C2716311   3.336   1.607   7.665  0.0474  0.1441  0.4984
  148SAPE   H7R16312   3.373   1.702   7.622 -1.1454  0.9847  1.2845
  148SAPE   H7S16313   3.381   1.596   7.766  2.2640 -0.2547 -0.4995
  148SAPE   C2816314   3.182   1.634   7.680  0.6384  0.4741  0.4347
  148SAPE   H8R16315   3.124   1.544   7.706  0.7066  0.3978  0.3227
  148SAPE   C2916316   3.115   1.752   7.690 -0.9841 -0.1264  0.7297
  148SAPE   H9R16317   3.010   1.747   7.720 -1.6172  3.3536 -0.6972
  148SAPE  C21016318   3.170   1.897   7.687 -0.1860  0.1476  0.6619
  148SAPE  H10R16319   3.227   1.909   7.591 -1.3885  0.0913 -0.0631
  148SAPE  H10S16320   3.249   1.901   7.765 -0.3747  1.2253  0.8074
  148SAPE  C21116321   3.072   2.015   7.679 -0.2177  0.2964 -0.5026
  148SAPE  H11R16322   3.083   2.073   7.586 -0.5846  0.5951 -0.3650
  148SAPE  C21216323   2.994   2.061   7.782 -0.2830 -0.0860 -0.2153
  148SAPE  H12R16324   2.932   2.151   7.769  1.8182  1.1365 -2.1650
  148SAPE  C21316325   2.993   2.005   7.920  1.1677  0.2306  0.3550
  148SAPE  H13R16326   3.040   2.067   8.000 -1.3891  0.2526  1.8859
  148SAPE  H13S16327   3.057   1.914   7.916 -0.7637 -1.1228 -0.1699
  148SAPE  C21416328   2.862   1.943   7.950 -0.0030  0.0257  0.2524
  148SAPE  H14R16329   2.830   1.880   7.865  0.8486  1.2359 -0.9859
  148SAPE  C21516330   2.792   1.969   8.061 -0.1072  0.2843 -0.0113
  148SAPE  H15R16331   2.701   1.908   8.072  1.4512 -2.8537 -3.5170
  148SAPE  C21616332   2.830   2.064   8.174 -0.5982  0.3865  0.7665
  148SAPE  H16R16333   2.739   2.081   8.236 -1.3556  0.1186 -0.2624
  148SAPE  H16S16334   2.868   2.160   8.133 -0.2530  0.0554  0.3032
  148SAPE  C21716335   2.936   2.002   8.269 -0.0156  0.0028  0.2271
  148SAPE  H17R16336   3.040   2.011   8.232  0.3382 -0.4408  1.1024
  148SAPE  H17S16337   2.927   1.894   8.296 -0.6668 -0.0102 -0.0463
  148SAPE  C21816338   2.948   2.077   8.398  0.2248 -0.0545  0.5151
  148SAPE  H18R16339   2.853   2.071   8.454 -0.1819  3.5177  0.3444
  148SAPE  H18S16340   2.948   2.187   8.379 -0.8888 -0.2325 -0.5350
  148SAPE  C21916341   3.075   2.041   8.478  0.5139  0.1996 -0.4067
  148SAPE  H19R16342   3.155   2.116   8.462  1.6036 -0.8363  0.1053
  148SAPE  H19S16343   3.120   1.949   8.435  0.4993 -0.7156  1.5121
  148SAPE  C22016344   3.042   2.015   8.633  0.0941  0.6322 -0.2380
  148SAPE  H20R16345   2.993   2.100   8.686  0.6920  0.4355  0.6471
  148SAPE  H20S16346   3.146   2.006   8.669  0.9177  1.0764 -2.4390
  148SAPE  H20T16347   2.986   1.920   8.645  3.1895 -1.3077 -0.6154
  148SAPE   C3316348   2.795   2.006   7.128  0.7556  0.8609 -0.3634
  148SAPE   H3X16349   2.721   2.066   7.072 -1.2436  3.1019  4.3587
  148SAPE   H3Y16350   2.853   2.085   7.182  1.0619  1.0367 -0.9444
  148SAPE   C3416351   2.726   1.918   7.228 -0.1359  0.1712  0.5896
  148SAPE   H4X16352   2.797   1.848   7.278 -0.5592  0.0427  1.0096
  148SAPE   H4Y16353   2.644   1.856   7.186  0.2232 -0.4193  0.7409
  148SAPE   C3516354   2.658   1.988   7.346 -0.8202  0.1251 -0.0973
  148SAPE   H5X16355   2.594   2.058   7.288  1.0835  1.1656 -0.9962
  148SAPE   H5Y16356   2.738   2.051   7.392 -0.1834 -0.9529  0.2965
  148SAPE   C3616357   2.607   1.896   7.456 -0.0548 -0.7543  0.3877
  148SAPE   H6X16358   2.689   1.843   7.510 -0.2065 -0.4163  0.9638
  148SAPE   H6Y16359   2.544   1.819   7.406 -0.4115  0.3081 -0.8117
  148SAPE   C3716360   2.528   1.963   7.568 -0.4566 -0.0418  0.2213
  148SAPE   H7X16361   2.490   1.888   7.640  0.3984  0.1813  0.9181
  148SAPE   H7Y16362   2.441   2.021   7.531  1.9893  2.9040 -1.1983
  148SAPE   C3816363   2.622   2.048   7.660  0.3979 -0.7708  0.2037
  148SAPE   H8X16364   2.677   2.112   7.587  1.4049 -1.0647  0.7000
  148SAPE   H8Y16365   2.687   1.983   7.722 -0.3030 -2.0271 -0.3808
  148SAPE   C3916366   2.538   2.137   7.757 -0.1384  0.6638  0.0623
  148SAPE   H9X16367   2.497   2.085   7.845  3.4872  1.5765  2.4031
  148SAPE   H9Y16368   2.453   2.170   7.694  0.8070 -0.3404 -1.7863
  148SAPE  C31016369   2.633   2.249   7.798 -0.4522 -0.2293  0.1694
  148SAPE  H10X16370   2.664   2.321   7.719 -3.6991  1.2426  0.1257
  148SAPE  H10Y16371   2.734   2.224   7.838  0.9475  4.3432 -0.2464
  148SAPE  C31116372   2.579   2.329   7.917  0.5026 -0.2901  0.5357
  148SAPE  H11X16373   2.550   2.266   8.004  1.6548  0.5809  1.5774
  148SAPE  H11Y16374   2.496   2.389   7.874  1.1070  0.1908  0.0361
  148SAPE  C31216375   2.684   2.423   7.982  0.5125  0.0715 -0.1012
  148SAPE  H12X16376   2.718   2.489   7.900  2.4602 -1.3625 -0.4694
  148SAPE  H12Y16377   2.775   2.363   8.001  0.5459  0.1867  0.1145
  148SAPE  C31316378   2.636   2.504   8.103  0.2221 -0.4271 -0.2552
  148SAPE  H13X16379   2.545   2.563   8.078 -0.0295 -0.3804  0.7426
  148SAPE  H13Y16380   2.719   2.572   8.132 -0.4193  0.3093 -0.1434
  148SAPE  C31416381   2.604   2.423   8.227 -0.4038  0.1916  0.4212
  148SAPE  H14X16382   2.682   2.347   8.247  0.5720  0.6252 -1.5648
  148SAPE  H14Y16383   2.521   2.353   8.204 -0.9236  1.3098 -1.1993
  148SAPE  C31516384   2.579   2.515   8.348  0.3319 -0.3361  0.4113
  148SAPE  H15X16385   2.493   2.582   8.325  2.2276  2.4861  1.2863
  148SAPE  H15Y16386   2.666   2.583   8.359  0.3803 -0.0577 -1.5188
  148SAPE  C31616387   2.537   2.432   8.472  0.2566 -0.4352  0.1744
  148SAPE  H16X16388   2.465   2.361   8.427 -1.3499  1.2815 -0.0129
  148SAPE  H16Y16389   2.475   2.499   8.536  3.4856  0.8967  2.0997
  148SAPE  C31716390   2.654   2.354   8.533  0.4736 -0.8662 -0.2147
  148SAPE  H17X16391   2.709   2.413   8.610 -0.1075 -2.3724  1.3684
  148SAPE  H17Y16392   2.729   2.311   8.464 -0.0813 -1.7765 -0.2534
  148SAPE  C31816393   2.604   2.229   8.616  0.1299 -0.2527  0.5545
  148SAPE  H18X16394   2.680   2.194   8.689  1.1129 -2.5654 -1.5097
  148SAPE  H18Y16395   2.577   2.156   8.537 -0.1022 -1.1432  1.4455
  148SAPE  H18Z16396   2.519   2.262   8.679  0.6930  0.0857  1.1536
  149SAPE     N16397   2.829   1.804   6.493  0.8806  0.1473  0.0151
  149SAPE   HN116398   2.762   1.838   6.421  0.2239  0.3928  0.7321
  149SAPE   HN216399   2.918   1.763   6.458  0.2531 -1.5772  0.3830
  149SAPE   HN316400   2.789   1.726   6.548  2.2685  1.5755  3.2007
  149SAPE   C1216401   2.854   1.922   6.577  0.0655 -0.2476 -0.5537
  149SAPE  H12A16402   2.892   2.002   6.511  0.6145  0.8927  1.0980
  149SAPE  H12B16403   2.939   1.891   6.643  0.8743 -0.8363 -1.8584
  149SAPE   C1116404   2.721   1.977   6.647  0.6446 -0.4415  0.2804
  149SAPE  H11A16405   2.750   2.050   6.725 -1.5994  0.2854  0.4660
  149SAPE  H11B16406   2.684   1.884   6.696  0.0079  0.5127  1.6648
  149SAPE     P16407   2.606   2.173   6.516 -0.2134  0.6690 -0.3533
  149SAPE   O1316408   2.731   2.211   6.441 -0.5457 -0.0084  0.8585
  149SAPE   O1416409   2.475   2.193   6.449 -0.0431 -0.0597  0.0780
  149SAPE   O1216410   2.617   2.021   6.556  0.7359  0.0987  0.3966
  149SAPE   O1116411   2.607   2.251   6.653 -0.2270 -0.1368 -0.7066
  149SAPE    C116412   2.504   2.204   6.752 -0.2781 -0.3035  0.4752
  149SAPE    HA16413   2.457   2.106   6.728  2.2488 -1.7611  1.2512
  149SAPE    HB16414   2.546   2.200   6.855 -0.7427  1.1335  0.7248
  149SAPE    C216415   2.400   2.314   6.769  0.2707 -0.2826 -0.2048
  149SAPE    HS16416   2.365   2.341   6.667 -0.2937  1.2715  0.3848
  149SAPE   O2116417   2.468   2.430   6.816 -0.2004 -0.7701  0.0265
  149SAPE   C2116418   2.421   2.550   6.793 -0.4492 -0.5821  0.1742
  149SAPE   O2216419   2.318   2.566   6.725  0.5108  0.4255  0.4944
  149SAPE   C2216420   2.505   2.657   6.850 -0.3490  0.4089  0.0480
  149SAPE   H2R16421   2.548   2.632   6.949 -0.8963  0.5960  0.3389
  149SAPE   H2S16422   2.588   2.673   6.778 -3.4620 -0.8698 -4.0376
  149SAPE    C316423   2.274   2.288   6.857  0.7385 -0.6923 -0.0785
  149SAPE    HX16424   2.229   2.191   6.826  1.2518 -1.4062  1.3904
  149SAPE    HY16425   2.202   2.368   6.829  1.6486 -0.2037 -1.0676
  149SAPE   O3116426   2.316   2.285   6.991  0.2188 -0.6519  0.2960
  149SAPE   C3116427   2.239   2.207   7.066 -0.4307 -0.3033 -0.1942
  149SAPE   O3216428   2.136   2.154   7.033 -0.0156 -0.4385  0.2086
  149SAPE   C3216429   2.302   2.200   7.208  0.6824 -0.5461 -0.0282
  149SAPE   H2X16430   2.409   2.187   7.180  0.6932  1.3212 -0.8890
  149SAPE   H2Y16431   2.264   2.105   7.251 -1.2898 -0.2364 -1.0570
  149SAPE   C2316432   2.419   2.784   6.860  0.0405  0.0630  0.2158
  149SAPE   H3R16433   2.378   2.808   6.760  1.8414  0.6359 -0.3997
  149SAPE   H3S16434   2.490   2.867   6.883 -1.0514  0.7723  1.1151
  149SAPE   C2416435   2.318   2.778   6.973 -0.7421 -0.0483 -0.1504
  149SAPE   H4R16436   2.368   2.731   7.060 -1.6640 -0.1126  0.3555
  149SAPE   H4S16437   2.226   2.715   6.962 -0.9172 -0.2591  2.3988
  149SAPE   C2516438   2.292   2.918   7.019  0.2557  0.2848 -0.7336
  149SAPE   H5R16439   2.230   2.979   6.951  0.5693  2.4701  0.8782
  149SAPE   C2616440   2.335   2.979   7.129 -0.6462 -0.7736 -0.3202
  149SAPE   H6R16441   2.299   3.082   7.146 -0.8698 -0.8263 -0.4771
  149SAPE   C2716442   2.439   2.915   7.224 -0.0482  0.2677  0.0428
  149SAPE   H7R16443   2.543   2.925   7.188  1.6258 -0.0488  4.4592
  149SAPE   H7S16444   2.412   2.808   7.240 -3.9496  1.3988  1.6848
  149SAPE   C2816445   2.435   2.991   7.356 -0.2011  0.0575  0.0596
  149SAPE   H8R16446   2.340   3.037   7.386 -0.8025 -2.0303  1.4760
  149SAPE   C2916447   2.539   2.994   7.442  0.2617 -0.5452 -0.3553
  149SAPE   H9R16448   2.532   3.051   7.536  1.3280  0.4485 -0.8499
  149SAPE  C21016449   2.684   2.934   7.433  0.2214 -0.5082  0.2565
  149SAPE  H10R16450   2.683   2.832   7.389 -1.1580 -0.5530  0.3906
  149SAPE  H10S16451   2.723   2.900   7.532 -0.7136 -2.2421  0.0516
  149SAPE  C21116452   2.782   3.022   7.360 -1.2615 -0.4297  0.1238
  149SAPE  H11R16453   2.739   3.046   7.261 -0.1501 -2.6145 -0.9094
  149SAPE  C21216454   2.903   3.055   7.395  0.4457 -1.0497 -0.0714
  149SAPE  H12R16455   2.959   3.117   7.324 -1.2687  0.2949 -0.3064
  149SAPE  C21316456   2.982   3.019   7.519  0.7787 -0.9070 -1.0340
  149SAPE  H13R16457   3.085   3.061   7.509  0.1009  0.5471 -2.0423
  149SAPE  H13S16458   2.986   2.908   7.517  2.2095 -0.9186  1.0777
  149SAPE  C21416459   2.919   3.068   7.648 -0.4809 -0.1555 -0.0261
  149SAPE  H14R16460   2.813   3.046   7.666 -0.2004 -0.9633  0.6330
  149SAPE  C21516461   2.986   3.147   7.737  0.5398 -0.3666 -0.3012
  149SAPE  H15R16462   2.927   3.194   7.818  0.0214 -0.2133 -0.7657
  149SAPE  C21616463   3.133   3.199   7.741  0.8712  0.5160 -0.2619
  149SAPE  H16R16464   3.144   3.309   7.750  1.8185  0.1978  2.9879
  149SAPE  H16S16465   3.189   3.173   7.649 -1.8924  1.4671 -2.3036
  149SAPE  C21716466   3.201   3.124   7.864  0.6776 -0.2027  0.1144
  149SAPE  H17R16467   3.310   3.149   7.861  0.6169 -0.0385 -2.2885
  149SAPE  H17S16468   3.190   3.014   7.871 -4.8161  0.1557 -0.7743
  149SAPE  C21816469   3.150   3.188   7.995  0.1001 -0.2511  0.2672
  149SAPE  H18R16470   3.206   3.140   8.078 -0.8491  0.1580  1.1590
  149SAPE  H18S16471   3.045   3.161   8.018 -0.2408  0.2881 -0.6405
  149SAPE  C21916472   3.181   3.339   8.017 -0.4623 -0.8318  0.7232
  149SAPE  H19R16473   3.121   3.384   7.935 -0.4918  1.6660  2.0891
  149SAPE  H19S16474   3.288   3.339   7.987 -0.4758  1.1090  0.6210
  149SAPE  C22016475   3.164   3.406   8.154 -0.1633 -0.4219  0.2419
  149SAPE  H20R16476   3.197   3.512   8.140  0.5458 -0.4412  1.7506
  149SAPE  H20S16477   3.235   3.358   8.224 -1.0771 -0.9185  0.8305
  149SAPE  H20T16478   3.055   3.401   8.177 -0.3003 -1.1599 -0.5572
  149SAPE   C3316479   2.268   2.317   7.305 -0.6597  0.2231  0.2745
  149SAPE   H3X16480   2.301   2.277   7.403 -3.1031 -2.9993 -0.1245
  149SAPE   H3Y16481   2.159   2.334   7.316 -0.8587 -0.0325 -1.1907
  149SAPE   C3416482   2.321   2.453   7.286  0.6660 -0.5685 -0.0125
  149SAPE   H4X16483   2.270   2.514   7.208  1.5430 -0.5246 -0.5682
  149SAPE   H4Y16484   2.424   2.448   7.245 -0.1924 -0.4320 -2.2565
  149SAPE   C3516485   2.322   2.536   7.417  0.3706  0.0420 -0.3296
  149SAPE   H5X16486   2.285   2.459   7.488  2.1456 -0.3451  0.1968
  149SAPE   H5Y16487   2.255   2.623   7.402  0.3694  0.3499  1.4197
  149SAPE   C3616488   2.460   2.583   7.476  0.4407 -0.4608  0.4326
  149SAPE   H6X16489   2.517   2.646   7.404  0.5342 -1.0230  0.0125
  149SAPE   H6Y16490   2.528   2.497   7.494 -0.5423 -0.9469  1.9229
  149SAPE   C3716491   2.442   2.654   7.618  0.2525 -0.4943  0.7904
  149SAPE   H7X16492   2.363   2.606   7.679  0.9822  0.0317  2.1549
  149SAPE   H7Y16493   2.406   2.758   7.598  0.4347 -0.5948 -0.0691
  149SAPE   C3816494   2.569   2.654   7.708  0.1500  0.6609  0.4216
  149SAPE   H8X16495   2.660   2.692   7.655 -0.9044  2.3210 -0.2269
  149SAPE   H8Y16496   2.586   2.546   7.730 -3.3253 -0.3626 -1.5084
  149SAPE   C3916497   2.559   2.741   7.828  0.2424  0.4983 -0.2577
  149SAPE   H9X16498   2.576   2.847   7.798 -0.8377  0.5644 -0.6532
  149SAPE   H9Y16499   2.631   2.708   7.906 -1.0092  2.5774  1.8499
  149SAPE  C31016500   2.423   2.759   7.898 -0.3035 -1.5409  0.1695
  149SAPE  H10X16501   2.381   2.663   7.937 -3.7422 -0.1675  0.0164
  149SAPE  H10Y16502   2.354   2.794   7.818  0.6578 -2.1306 -0.9222
  149SAPE  C31116503   2.424   2.852   8.014 -0.3459  0.3001 -0.1475
  149SAPE  H11X16504   2.500   2.933   8.007 -2.6423  2.4656 -0.5203
  149SAPE  H11Y16505   2.464   2.801   8.104  1.2464 -0.2499 -1.1297
  149SAPE  C31216506   2.290   2.920   8.039  0.2096 -0.3207  0.4048
  149SAPE  H12X16507   2.206   2.848   8.033 -0.4304  0.4226  0.4015
  149SAPE  H12Y16508   2.273   3.002   7.966 -0.4760 -2.0633 -1.4408
  149SAPE  C31316509   2.283   3.001   8.169  0.6072 -0.1201  0.2036
  149SAPE  H13X16510   2.177   3.026   8.190  0.5595  0.4002 -0.6491
  149SAPE  H13Y16511   2.344   3.093   8.160 -0.0573  0.1448 -1.7255
  149SAPE  C31416512   2.328   2.930   8.294 -0.1792 -0.0640  0.4385
  149SAPE  H14X16513   2.435   2.904   8.283  0.2073  1.8751 -0.6203
  149SAPE  H14Y16514   2.269   2.837   8.309 -2.6543  1.0040 -2.2866
  149SAPE  C31516515   2.317   3.017   8.419 -0.3705  0.0871 -0.6913
  149SAPE  H15X16516   2.211   3.044   8.442  0.2719 -0.3039  3.1743
  149SAPE  H15Y16517   2.372   3.110   8.394  2.6450 -1.0184  1.5197
  149SAPE  C31616518   2.380   2.940   8.542 -0.4417 -0.7094  0.2609
  149SAPE  H16X16519   2.489   2.952   8.521 -0.5350  1.2912  0.7784
  149SAPE  H16Y16520   2.345   2.835   8.543 -0.1214 -0.9157 -2.7819
  149SAPE  C31716521   2.374   3.022   8.670 -0.1041 -0.3838 -0.4337
  149SAPE  H17X16522   2.448   2.967   8.733  1.8074  0.3389 -1.9802
  149SAPE  H17Y16523   2.270   3.018   8.709  0.1033  3.6829  0.8062
  149SAPE  C31816524   2.428   3.173   8.666  0.2395  0.1039  0.4272
  149SAPE  H18X16525   2.419   3.222   8.765 -2.5769 -1.3633  0.9377
  149SAPE  H18Y16526   2.353   3.228   8.605  0.3030 -2.2941 -1.9631
  149SAPE  H18Z16527   2.522   3.185   8.608  0.3044 -1.4604  0.1763
  150SAPE     N16528   1.168   2.792   6.225  0.4520 -0.0308  0.0516
  150SAPE   HN116529   1.261   2.839   6.231  0.7202 -0.7913  2.5545
  150SAPE   HN216530   1.151   2.760   6.323  2.4904  0.7940  0.6945
  150SAPE   HN316531   1.165   2.713   6.158 -0.8215 -1.7168  2.0369
  150SAPE   C1216532   1.063   2.890   6.180  0.8598  0.0188  0.3358
  150SAPE  H12A16533   0.974   2.827   6.159  0.1043  1.4962 -0.9718
  150SAPE  H12B16534   1.099   2.946   6.091  0.9292  0.9466  0.9355
  150SAPE   C1116535   1.026   2.985   6.288  0.7677 -0.5496 -0.7890
  150SAPE  H11A16536   0.997   2.939   6.384 -2.0988  1.3523 -0.6750
  150SAPE  H11B16537   0.938   3.045   6.258 -0.3926 -2.3318 -0.9804
  150SAPE     P16538   1.140   3.229   6.266 -0.3583  0.1099 -0.2204
  150SAPE   O1316539   1.126   3.235   6.119  0.0311  0.1385  0.1686
  150SAPE   O1416540   1.036   3.303   6.341  0.4094 -0.4224 -0.0692
  150SAPE   O1216541   1.139   3.074   6.308 -0.2252  0.1521  0.3518
  150SAPE   O1116542   1.282   3.273   6.315  0.0670 -0.1190 -0.3257
  150SAPE    C116543   1.295   3.406   6.366  0.2175  0.8617 -0.2460
  150SAPE    HA16544   1.384   3.453   6.319  0.7468 -0.4075 -0.5200
  150SAPE    HB16545   1.202   3.466   6.354 -0.8295 -0.6844 -0.0507
  150SAPE    C216546   1.339   3.399   6.513  0.2881  0.3476  0.4717
  150SAPE    HS16547   1.264   3.345   6.575 -0.0982 -0.0909 -0.3606
  150SAPE   O2116548   1.363   3.528   6.566  0.0687  0.3985  0.0983
  150SAPE   C2116549   1.263   3.602   6.589 -0.3943 -0.0141  0.3183
  150SAPE   O2216550   1.142   3.576   6.561 -0.7767 -0.3354 -0.1182
  150SAPE   C2216551   1.305   3.727   6.662  0.0981 -0.1170  0.1016
  150SAPE   H2R16552   1.399   3.768   6.620  0.1878  3.0587  3.1685
  150SAPE   H2S16553   1.223   3.801   6.645 -1.0812 -1.4929 -0.3010
  150SAPE    C316554   1.475   3.323   6.532  0.6907 -0.4354  0.3135
  150SAPE    HX16555   1.548   3.389   6.481 -2.1496  3.0732  0.5257
  150SAPE    HY16556   1.471   3.226   6.479  1.8624  0.0975 -0.7672
  150SAPE   O3116557   1.508   3.292   6.673 -0.4990 -0.0306 -0.2010
  150SAPE   C3116558   1.572   3.382   6.745 -0.1692  0.0188  0.7630
  150SAPE   O3216559   1.629   3.480   6.698 -0.3475  0.5557  0.7616
  150SAPE   C3216560   1.565   3.342   6.891  0.3117 -0.0607  0.0394
  150SAPE   H2X16561   1.533   3.431   6.949 -4.2923 -2.3191  1.2447
  150SAPE   H2Y16562   1.665   3.311   6.929  0.6847  0.4252 -0.5460
  150SAPE   C2316563   1.334   3.707   6.810  0.4314  0.5356 -0.5173
  150SAPE   H3R16564   1.388   3.797   6.846 -1.1263  1.3091 -0.1070
  150SAPE   H3S16565   1.405   3.624   6.833 -0.0059  0.2160 -0.3149
  150SAPE   C2416566   1.195   3.690   6.889 -0.5165  1.2787  0.0620
  150SAPE   H4R16567   1.117   3.760   6.851 -5.1528 -2.6040  1.8650
  150SAPE   H4S16568   1.213   3.731   6.991  0.2796 -0.6375  0.6947
  150SAPE   C2516569   1.132   3.549   6.879  0.3116  0.0714  0.3365
  150SAPE   H5R16570   1.133   3.499   6.782 -0.6156  0.9239 -0.1238
  150SAPE   C2616571   1.107   3.470   6.991  0.1344 -0.6474  0.1509
  150SAPE   H6R16572   1.068   3.368   6.978  3.7715 -1.8771 -1.9043
  150SAPE   C2716573   1.122   3.513   7.133 -0.0146 -0.5339 -0.0347
  150SAPE   H7R16574   1.116   3.624   7.141  1.6817 -0.4243 -0.2326
  150SAPE   H7S16575   1.223   3.485   7.168 -0.1215  0.4202  1.0854
  150SAPE   C2816576   1.006   3.444   7.208 -0.2867 -0.6128 -0.0209
  150SAPE   H8R16577   0.905   3.443   7.166 -0.4558  1.0437  0.3382
  150SAPE   C2916578   1.037   3.391   7.335 -0.4469  0.4825 -0.3195
  150SAPE   H9R16579   0.952   3.340   7.383 -1.6681  3.2022  0.5154
  150SAPE  C21016580   1.167   3.391   7.415  0.5615 -0.4680 -0.1319
  150SAPE  H10R16581   1.165   3.468   7.494 -2.4273 -2.1575  1.5238
  150SAPE  H10S16582   1.257   3.418   7.356 -2.6720  0.7554 -4.7825
  150SAPE  C21116583   1.202   3.256   7.472 -0.0596  0.3580 -0.0979
  150SAPE  H11R16584   1.209   3.176   7.397 -1.5147  2.1563 -2.2220
  150SAPE  C21216585   1.219   3.221   7.601 -0.0139  0.0382  0.2247
  150SAPE  H12R16586   1.224   3.115   7.630  2.5153  0.0767  0.0661
  150SAPE  C21316587   1.204   3.302   7.723 -0.8520  0.2106  0.1441
  150SAPE  H13R16588   1.153   3.243   7.802  0.3381 -0.6358  0.2884
  150SAPE  H13S16589   1.148   3.395   7.701  1.4667  1.2010 -1.8201
  150SAPE  C21416590   1.354   3.324   7.769 -0.0012 -0.0411 -0.5614
  150SAPE  H14R16591   1.397   3.418   7.732 -1.8053  0.7538 -0.7299
  150SAPE  C21516592   1.424   3.260   7.865  0.2667 -0.0845  0.7591
  150SAPE  H15R16593   1.525   3.303   7.874 -0.3059  1.7004 -0.8806
  150SAPE  C21616594   1.387   3.142   7.950 -0.6903  0.1848 -1.1680
  150SAPE  H16R16595   1.431   3.048   7.912 -1.3722  0.1588 -1.9255
  150SAPE  H16S16596   1.279   3.115   7.945 -1.0459  1.6549 -1.8047
  150SAPE  C21716597   1.420   3.155   8.100 -0.2737 -0.1190 -0.1144
  150SAPE  H17R16598   1.361   3.241   8.138 -0.2890 -0.7896  1.4287
  150SAPE  H17S16599   1.527   3.182   8.107 -0.1418 -0.4482 -0.8140
  150SAPE  C21816600   1.389   3.030   8.183  0.3941  0.7494  0.1110
  150SAPE  H18R16601   1.420   3.041   8.289  3.1404 -0.8310 -0.4841
  150SAPE  H18S16602   1.440   2.941   8.139 -1.3745 -1.7645  2.9851
  150SAPE  C21916603   1.239   2.991   8.182 -0.3406  0.3181  0.4826
  150SAPE  H19R16604   1.222   2.930   8.091 -1.0463 -0.0288  0.8361
  150SAPE  H19S16605   1.171   3.078   8.191 -0.3567  0.4256 -0.6779
  150SAPE  C22016606   1.202   2.913   8.311  0.0213  0.0804 -0.5806
  150SAPE  H20R16607   1.288   2.847   8.335  0.3572  0.7346  0.0420
  150SAPE  H20S16608   1.108   2.853   8.307  1.0328 -1.8293  2.4225
  150SAPE  H20T16609   1.194   2.983   8.397  1.4916 -1.7012  1.0323
  150SAPE   C3316610   1.465   3.235   6.928  0.3805  0.0002 -0.5720
  150SAPE   H3X16611   1.501   3.143   6.877  0.0226  0.2459 -1.2806
  150SAPE   H3Y16612   1.371   3.259   6.873  0.0956 -1.0662 -0.5490
  150SAPE   C3416613   1.444   3.218   7.075  0.8390 -0.6793  0.6310
  150SAPE   H4X16614   1.374   3.134   7.098 -1.0175  1.5397  3.4474
  150SAPE   H4Y16615   1.397   3.310   7.116  2.0929 -0.3714  1.3811
  150SAPE   C3516616   1.574   3.190   7.150  0.4132  0.1137  0.3743
  150SAPE   H5X16617   1.629   3.284   7.170  1.2458 -0.6867  2.0498
  150SAPE   H5Y16618   1.641   3.121   7.094  0.7146 -0.5539  1.5416
  150SAPE   C3616619   1.549   3.112   7.287 -0.7260 -0.3754 -0.3233
  150SAPE   H6X16620   1.533   3.005   7.264 -0.1573 -0.0397 -2.3849
  150SAPE   H6Y16621   1.454   3.146   7.333 -0.1163 -0.3848  0.9693
  150SAPE   C3716622   1.665   3.116   7.384 -0.7973  0.7767  0.1753
  150SAPE   H7X16623   1.689   3.220   7.414  0.2485  0.3824  0.7128
  150SAPE   H7Y16624   1.759   3.082   7.335 -0.6772  1.9173 -0.4164
  150SAPE   C3816625   1.625   3.032   7.507  0.3383  0.1613  0.5376
  150SAPE   H8X16626   1.637   2.925   7.480  1.2507  0.4697 -0.3260
  150SAPE   H8Y16627   1.520   3.060   7.532  0.7055  0.7488  1.4487
  150SAPE   C3916628   1.716   3.066   7.624  0.0436 -0.1518 -0.0915
  150SAPE   H9X16629   1.693   3.168   7.659 -0.3124  0.0067 -0.7736
  150SAPE   H9Y16630   1.824   3.054   7.600 -0.1490 -0.8579 -0.6402
  150SAPE  C31016631   1.680   2.983   7.753  0.2143  0.2859  0.5301
  150SAPE  H10X16632   1.709   2.877   7.737  1.4178  0.9235 -1.6293
  150SAPE  H10Y16633   1.571   2.997   7.771 -0.4379 -0.4244 -2.4601
  150SAPE  C31116634   1.761   3.024   7.876 -0.0285 -0.4258  0.2775
  150SAPE  H11X16635   1.722   3.119   7.917  0.2455 -0.5189  0.7586
  150SAPE  H11Y16636   1.868   3.038   7.849  0.8080 -1.3502  2.9197
  150SAPE  C31216637   1.737   2.926   7.998 -0.1755 -0.4385 -0.6168
  150SAPE  H12X16638   1.794   2.835   7.969  1.4159  0.9897 -2.1051
  150SAPE  H12Y16639   1.628   2.912   8.017 -0.1279 -0.7049 -0.5392
  150SAPE  C31316640   1.794   2.989   8.125  0.1048 -0.6891 -0.2341
  150SAPE  H13X16641   1.744   3.086   8.149 -0.4496 -1.2152  0.7343
  150SAPE  H13Y16642   1.902   3.006   8.104 -0.0953  1.2250  0.1350
  150SAPE  C31416643   1.778   2.893   8.243 -0.4192  0.9233  0.2057
  150SAPE  H14X16644   1.859   2.817   8.244 -1.9092 -0.6907  0.9130
  150SAPE  H14Y16645   1.680   2.841   8.252 -0.4060  1.4002  3.8250
  150SAPE  C31516646   1.790   2.967   8.378 -0.5311  0.0490 -0.2339
  150SAPE  H15X16647   1.732   3.062   8.386 -0.7787 -0.1740  0.7780
  150SAPE  H15Y16648   1.897   2.988   8.396 -0.0309 -0.7239 -2.2125
  150SAPE  C31616649   1.745   2.882   8.501 -0.0079 -0.3981  0.1529
  150SAPE  H16X16650   1.811   2.909   8.586  0.9887 -0.9157 -0.4492
  150SAPE  H16Y16651   1.781   2.779   8.480  0.2629 -0.7471  2.2814
  150SAPE  C31716652   1.591   2.892   8.516 -0.1097 -0.2142 -0.6891
  150SAPE  H17X16653   1.563   2.801   8.573 -1.3379  1.0665  0.7980
  150SAPE  H17Y16654   1.528   2.890   8.425  1.5218  1.7153 -1.9104
  150SAPE  C31816655   1.548   3.010   8.603  0.7449 -0.9206 -0.5423
  150SAPE  H18X16656   1.459   2.983   8.664  1.3019  1.8470  1.6099
  150SAPE  H18Y16657   1.537   3.106   8.550  1.0162 -1.0945 -0.9160
  150SAPE  H18Z16658   1.629   3.028   8.677  1.6011 -2.9691 -0.9205
  151SAPE     N16659   3.746   1.786   6.436 -0.0938  1.0656  0.0635
  151SAPE   HN116660   3.700   1.822   6.350 -0.0739  2.5234  0.6518
  151SAPE   HN216661   3.729   1.684   6.439 -1.2352  1.2677  0.7231
  151SAPE   HN316662   3.697   1.821   6.521 -0.7389 -1.9008  0.9540
  151SAPE   C1216663   3.894   1.821   6.427 -0.0344 -0.5574  0.5064
  151SAPE  H12A16664   3.899   1.931   6.418 -0.5233 -0.5588  0.1804
  151SAPE  H12B16665   3.934   1.768   6.338  0.0648 -0.8752  0.7367
  151SAPE   C1116666   3.970   1.782   6.560  0.1241 -0.0525 -0.2727
  151SAPE  H11A16667   3.932   1.842   6.646 -0.8644 -0.2460 -0.5716
  151SAPE  H11B16668   4.076   1.810   6.541  0.7855 -2.9700 -1.0969
  151SAPE     P16669   4.048   1.532   6.560 -0.6046  0.3667  0.0583
  151SAPE   O1316670   4.039   1.499   6.417  0.0019 -0.3332  0.0200
  151SAPE   O1416671   4.183   1.561   6.612 -0.1331 -0.1813  0.5266
  151SAPE   O1216672   3.950   1.649   6.599 -0.3265  0.0856  0.2408
  151SAPE   O1116673   3.993   1.419   6.650  0.3735  0.5659  0.4385
  151SAPE    C116674   3.862   1.414   6.706 -0.2322  0.0052 -0.2302
  151SAPE    HA16675   3.788   1.469   6.644 -2.0145 -1.3399  0.6522
  151SAPE    HB16676   3.838   1.305   6.713 -1.1813  0.3540  3.4906
  151SAPE    C216677   3.852   1.480   6.841 -0.2078 -0.5007 -0.0236
  151SAPE    HS16678   3.851   1.588   6.815  0.4336 -0.2318  1.0354
  151SAPE   O2116679   3.963   1.449   6.924 -0.2093  0.5812 -0.0943
  151SAPE   C2116680   4.027   1.545   6.995  0.5376 -0.1053 -0.3599
  151SAPE   O2216681   4.014   1.663   6.982 -0.1444 -0.2252  0.2341
  151SAPE   C2216682   4.128   1.479   7.095  0.2504 -0.6545  0.5060
  151SAPE   H2R16683   4.192   1.412   7.033 -1.3576 -1.1281 -0.6880
  151SAPE   H2S16684   4.186   1.561   7.142  0.6460 -0.8567  0.3707
  151SAPE    C316685   3.714   1.471   6.912 -0.3054  0.4384  0.5366
  151SAPE    HX16686   3.688   1.368   6.947  1.2030 -0.0621  0.1985
  151SAPE    HY16687   3.639   1.502   6.836 -1.3264  1.2855  1.8724
  151SAPE   O3116688   3.717   1.553   7.038  0.1394  0.0210  0.1356
  151SAPE   C3116689   3.689   1.674   7.019  0.5027 -0.3068 -0.9799
  151SAPE   O3216690   3.662   1.725   6.911  0.1609 -0.6192 -0.5304
  151SAPE   C3216691   3.690   1.752   7.153 -0.3583  0.2110  0.3849
  151SAPE   H2X16692   3.671   1.859   7.131 -0.5725  0.1347  0.1839
  151SAPE   H2Y16693   3.792   1.749   7.196  0.3334  0.0966 -1.2157
  151SAPE   C2316694   4.054   1.389   7.196  0.1114 -0.2824 -0.0839
  151SAPE   H3R16695   4.140   1.329   7.232 -1.0232 -0.6598  2.0625
  151SAPE   H3S16696   3.981   1.319   7.150  0.7533  0.5404 -2.4071
  151SAPE   C2416697   3.981   1.468   7.309  0.2418 -1.0838 -0.0825
  151SAPE   H4R16698   3.930   1.387   7.366 -2.1024  0.7581  0.4834
  151SAPE   H4S16699   3.904   1.534   7.264  1.2523  0.1643 -0.0095
  151SAPE   C2516700   4.062   1.534   7.408  0.5304 -0.8693 -0.6442
  151SAPE   H5R16701   4.151   1.588   7.373  0.7098 -0.9932 -0.3837
  151SAPE   C2616702   4.043   1.541   7.537  0.6060 -0.0308  0.4504
  151SAPE   H6R16703   4.117   1.597   7.596  1.4075  1.1313 -1.6039
  151SAPE   C2716704   3.929   1.475   7.613  0.1597  0.2466  0.4983
  151SAPE   H7R16705   3.839   1.464   7.550  0.4112 -2.4173  0.5477
  151SAPE   H7S16706   3.903   1.529   7.706 -0.9557 -0.6238  0.6939
  151SAPE   C2816707   3.971   1.327   7.650  0.1041 -0.3032 -0.0977
  151SAPE   H8R16708   3.961   1.255   7.568  1.6597 -1.4549  0.6888
  151SAPE   C2916709   3.988   1.279   7.778  0.1753  1.0367 -0.6494
  151SAPE   H9R16710   4.015   1.173   7.788 -0.7594  1.0579  2.5259
  151SAPE  C21016711   3.987   1.360   7.905  1.0373 -0.7254 -0.0046
  151SAPE  H10R16712   3.969   1.285   7.984  2.3568 -0.4288  0.6000
  151SAPE  H10S16713   3.909   1.439   7.896  1.7319 -0.1675 -1.3530
  151SAPE  C21116714   4.127   1.416   7.931  0.2022  0.2684  0.3232
  151SAPE  H11R16715   4.187   1.408   7.840  1.4554  0.7267  1.1047
  151SAPE  C21216716   4.175   1.470   8.040 -1.4148 -0.3844  0.7283
  151SAPE  H12R16717   4.281   1.496   8.049 -0.6263 -3.3181  0.4898
  151SAPE  C21316718   4.099   1.491   8.171  0.3453  0.1513  0.1455
  151SAPE  H13R16719   4.098   1.402   8.238  3.8634 -0.0338  0.0336
  151SAPE  H13S16720   3.991   1.520   8.172  0.3114  0.1419 -2.0034
  151SAPE  C21416721   4.157   1.615   8.247  0.1867  0.2339  0.1507
  151SAPE  H14R16722   4.135   1.708   8.192 -2.5273  0.9610  2.3253
  151SAPE  C21516723   4.208   1.618   8.370  0.1291  0.7607  0.1182
  151SAPE  H15R16724   4.217   1.718   8.415  1.3311  0.0939  1.3769
  151SAPE  C21616725   4.231   1.505   8.467 -0.2982  0.4344  0.3352
  151SAPE  H16R16726   4.336   1.470   8.459 -0.5001 -0.1727  0.3394
  151SAPE  H16S16727   4.178   1.413   8.434 -0.1039  0.6040 -0.4588
  151SAPE  C21716728   4.228   1.515   8.620 -0.6546 -0.3272  0.7630
  151SAPE  H17R16729   4.322   1.560   8.658 -0.0956 -2.1465  1.5818
  151SAPE  H17S16730   4.215   1.414   8.664  1.0168 -0.3114  1.2888
  151SAPE  C21816731   4.105   1.601   8.657 -0.7592  0.1191  0.4138
  151SAPE  H18R16732   4.002   1.576   8.624 -0.0728 -2.0786 -0.1697
  151SAPE  H18S16733   4.114   1.705   8.620  0.1628  0.0516  0.4463
  151SAPE  C21916734   4.097   1.610   8.817 -0.1767  0.0482  0.2538
  151SAPE  H19R16735   4.047   1.707   8.834 -0.4483  0.1175 -0.8755
  151SAPE  H19S16736   4.198   1.620   8.860  0.0717 -2.1238  0.2367
  151SAPE  C22016737   4.023   1.490   8.883  0.3591  0.1336  0.1592
  151SAPE  H20R16738   4.059   1.395   8.837 -2.3953 -1.0704  0.4155
  151SAPE  H20S16739   4.033   1.480   8.994 -2.5948  0.3098  0.4674
  151SAPE  H20T16740   3.913   1.490   8.872  0.1817 -2.0084  1.6121
  151SAPE   C3316741   3.585   1.693   7.254 -0.7721  0.0651 -0.2284
  151SAPE   H3X16742   3.613   1.585   7.250 -0.9163  0.0355 -0.4314
  151SAPE   H3Y16743   3.480   1.703   7.219 -1.4740 -0.8246  1.5341
  151SAPE   C3416744   3.608   1.738   7.396 -0.4706 -0.2344  0.4785
  151SAPE   H4X16745   3.714   1.721   7.428 -0.2091  0.1497 -0.1729
  151SAPE   H4Y16746   3.541   1.689   7.469  0.9450 -0.1901  1.8419
  151SAPE   C3516747   3.586   1.890   7.408  0.3349  0.2163 -0.1170
  151SAPE   H5X16748   3.490   1.905   7.355  0.4007  1.4953  0.1227
  151SAPE   H5Y16749   3.673   1.937   7.356  0.1790  1.0514  0.3811
  151SAPE   C3616750   3.574   1.949   7.553 -0.1409  0.2468 -0.5106
  151SAPE   H6X16751   3.661   1.914   7.613  0.2959 -0.9757 -1.8112
  151SAPE   H6Y16752   3.482   1.914   7.604 -0.5715  1.2259 -0.6081
  151SAPE   C3716753   3.579   2.096   7.539 -0.1211  0.0891  0.4397
  151SAPE   H7X16754   3.502   2.144   7.476  1.9342  0.3585 -1.9082
  151SAPE   H7Y16755   3.678   2.113   7.492  0.0406 -3.2911 -0.5319
  151SAPE   C3816756   3.582   2.168   7.673 -0.0650 -0.1848 -0.3494
  151SAPE   H8X16757   3.609   2.273   7.652 -0.1714 -0.2969 -1.0789
  151SAPE   H8Y16758   3.651   2.124   7.748 -0.2199 -0.4532 -0.3608
  151SAPE   C3916759   3.441   2.174   7.732 -0.0311  0.0494 -0.4101
  151SAPE   H9X16760   3.399   2.073   7.753 -0.2687  0.3903  0.8346
  151SAPE   H9Y16761   3.381   2.205   7.644  0.7392  3.4237  0.2038
  151SAPE  C31016762   3.430   2.278   7.842 -0.2953  0.3486  0.5845
  151SAPE  H10X16763   3.438   2.380   7.800  0.2321  0.2750  0.5055
  151SAPE  H10Y16764   3.515   2.266   7.913  0.1904  0.1247 -0.0335
  151SAPE  C31116765   3.297   2.254   7.915  0.1239 -0.6294  0.4290
  151SAPE  H11X16766   3.296   2.154   7.964  0.6438 -0.0965  1.5555
  151SAPE  H11Y16767   3.212   2.266   7.844  1.1653  0.1858 -0.7005
  151SAPE  C31216768   3.269   2.361   8.018  0.3164 -0.4369  0.4267
  151SAPE  H12X16769   3.222   2.449   7.970 -1.1886 -1.9890 -0.9887
  151SAPE  H12Y16770   3.366   2.387   8.067 -0.0921  1.3052  0.3477
  151SAPE  C31316771   3.172   2.316   8.123 -0.7365  0.0569  0.1102
  151SAPE  H13X16772   3.225   2.258   8.202  2.0224  1.9230 -0.2690
  151SAPE  H13Y16773   3.097   2.250   8.076 -3.2609  4.0715 -1.7349
  151SAPE  C31416774   3.090   2.430   8.187 -0.3195  0.1129 -0.3815
  151SAPE  H14X16775   3.003   2.384   8.239  0.8923  0.2863  1.8492
  151SAPE  H14Y16776   3.054   2.491   8.101  1.4599 -0.3916 -1.5106
  151SAPE  C31516777   3.175   2.507   8.283 -0.3980  0.4179  0.0448
  151SAPE  H15X16778   3.137   2.612   8.288 -1.1157  0.2991 -2.1336
  151SAPE  H15Y16779   3.267   2.537   8.229 -0.1866  0.6333  0.5212
  151SAPE  C31616780   3.188   2.453   8.425 -0.4784  0.2289 -0.0917
  151SAPE  H16X16781   3.176   2.342   8.430  1.4563 -0.0263 -0.6009
  151SAPE  H16Y16782   3.113   2.501   8.491 -0.5298 -0.2858  0.2304
  151SAPE  C31716783   3.327   2.474   8.489 -0.2903  0.2966 -0.4247
  151SAPE  H17X16784   3.351   2.578   8.517  0.6171  0.1810 -0.7539
  151SAPE  H17Y16785   3.407   2.447   8.416 -0.9418 -1.1809 -0.6133
  151SAPE  C31816786   3.345   2.384   8.618  0.5373  0.0893 -0.1389
  151SAPE  H18X16787   3.255   2.397   8.682 -0.5298  0.1660 -1.6290
  151SAPE  H18Y16788   3.432   2.411   8.681  0.2974  1.2674 -0.3118
  151SAPE  H18Z16789   3.348   2.278   8.583 -2.2488 -0.5816  1.5333
  152SAPE     N16790   1.514   4.258   6.415  0.0106 -0.5456 -0.4113
  152SAPE   HN116791   1.606   4.299   6.388 -0.1466 -0.5617 -0.9773
  152SAPE   HN216792   1.525   4.214   6.508 -1.8371 -1.2556 -0.5203
  152SAPE   HN316793   1.495   4.194   6.335  0.2630 -0.1650 -0.7832
  152SAPE   C1216794   1.397   4.355   6.426  0.4289 -0.3278 -0.0411
  152SAPE  H12A16795   1.433   4.445   6.480 -0.5617 -0.0024  0.0878
  152SAPE  H12B16796   1.323   4.304   6.491 -2.0191  1.0473 -1.6833
  152SAPE   C1116797   1.345   4.392   6.287  0.2152 -0.7349  0.9138
  152SAPE  H11A16798   1.414   4.467   6.243 -0.5547 -0.5727 -0.0493
  152SAPE  H11B16799   1.249   4.445   6.306  1.0374  0.5075  1.6627
  152SAPE     P16800   1.216   4.179   6.213 -0.0753 -0.2809 -0.2665
  152SAPE   O1316801   1.093   4.251   6.183  0.5008 -0.0006  0.2230
  152SAPE   O1416802   1.247   4.075   6.117  0.6094 -0.9737 -0.1834
  152SAPE   O1216803   1.337   4.280   6.201 -0.1438  0.2851 -0.8494
  152SAPE   O1116804   1.226   4.123   6.357 -0.0811 -0.5227  0.1970
  152SAPE    C116805   1.109   4.056   6.406 -0.2203  0.0758 -0.5356
  152SAPE    HA16806   1.022   4.038   6.340  0.4211 -3.8006 -0.3957
  152SAPE    HB16807   1.151   3.958   6.438  2.2942  0.6425 -1.9570
  152SAPE    C216808   1.066   4.127   6.531  0.1535 -0.1941 -0.9070
  152SAPE    HS16809   1.072   4.236   6.510  0.3772 -0.1773 -0.7669
  152SAPE   O2116810   1.142   4.095   6.647  0.6152  0.0940 -0.0339
  152SAPE   C2116811   1.160   4.189   6.735  0.6022  0.3353  0.4375
  152SAPE   O2216812   1.119   4.300   6.723  0.4135 -0.7824 -0.4895
  152SAPE   C2216813   1.263   4.141   6.843 -0.2273  0.2100  0.1213
  152SAPE   H2R16814   1.262   4.030   6.850 -1.6310  0.3016  1.6887
  152SAPE   H2S16815   1.367   4.173   6.819 -0.4646  0.7769 -0.1733
  152SAPE    C316816   0.915   4.099   6.553  0.1138  0.5054  0.1384
  152SAPE    HX16817   0.903   3.990   6.569 -2.8489  1.1181  2.6421
  152SAPE    HY16818   0.870   4.131   6.456 -0.3067 -0.3342  0.0523
  152SAPE   O3116819   0.853   4.170   6.659 -0.1591  0.2382 -0.2244
  152SAPE   C3116820   0.811   4.293   6.633 -0.3461  0.6399 -0.3986
  152SAPE   O3216821   0.810   4.347   6.525 -0.4668  0.2192 -0.6002
  152SAPE   C3216822   0.774   4.355   6.765  0.3759  0.3691  1.1606
  152SAPE   H2X16823   0.859   4.346   6.837  0.5778 -3.3011  0.5269
  152SAPE   H2Y16824   0.696   4.288   6.805  0.6184 -1.3195 -1.1352
  152SAPE   C2316825   1.225   4.203   6.984 -0.2590  0.3169  0.4916
  152SAPE   H3R16826   1.227   4.313   6.975  0.4969  0.2564 -0.0758
  152SAPE   H3S16827   1.307   4.178   7.055 -0.4218  2.0156  1.2957
  152SAPE   C2416828   1.090   4.159   7.039  0.2716 -0.3445 -1.0057
  152SAPE   H4R16829   1.069   4.050   7.038 -0.1182 -0.2725 -0.8850
  152SAPE   H4S16830   1.014   4.213   6.979  0.0371  0.0322 -0.3769
  152SAPE   C2516831   1.073   4.199   7.182 -0.1999 -0.6040  0.1004
  152SAPE   H5R16832   1.028   4.298   7.201 -2.0977 -0.8217 -2.8299
  152SAPE   C2616833   1.110   4.128   7.287 -0.1835  0.3177 -0.1825
  152SAPE   H6R16834   1.087   4.174   7.384  0.7859 -2.2052  1.2941
  152SAPE   C2716835   1.179   3.992   7.290 -0.2777 -0.8188 -0.5694
  152SAPE   H7R16836   1.269   4.001   7.354 -2.0166 -3.9727  2.5132
  152SAPE   H7S16837   1.220   3.971   7.189 -1.0209 -0.8955 -0.8646
  152SAPE   C2816838   1.085   3.880   7.330  0.4802 -0.5477 -0.1165
  152SAPE   H8R16839   1.012   3.868   7.249  0.7474 -1.1565 -0.2679
  152SAPE   C2916840   1.069   3.810   7.448  0.3823 -0.7125  0.5977
  152SAPE   H9R16841   0.990   3.734   7.451  0.0961 -0.3897  1.4692
  152SAPE  C21016842   1.141   3.824   7.578 -0.4858 -0.3140 -0.3384
  152SAPE  H10R16843   1.222   3.899   7.566 -1.6131  0.8781 -0.5383
  152SAPE  H10S16844   1.189   3.724   7.589 -2.0290 -0.9222  1.3068
  152SAPE  C21116845   1.049   3.851   7.694  0.8579  0.0828 -0.0530
  152SAPE  H11R16846   0.946   3.883   7.673  1.6590  1.2986 -2.3287
  152SAPE  C21216847   1.075   3.830   7.822  0.3022 -0.4914 -0.6819
  152SAPE  H12R16848   1.007   3.866   7.900 -0.1684 -4.1102  0.6605
  152SAPE  C21316849   1.206   3.783   7.875 -0.4299 -0.7184  0.2121
  152SAPE  H13R16850   1.220   3.861   7.953 -0.1538 -0.3702 -0.1774
  152SAPE  H13S16851   1.295   3.800   7.810  0.3507 -0.0458  1.4258
  152SAPE  C21416852   1.194   3.646   7.931 -0.0431  0.8755  0.4899
  152SAPE  H14R16853   1.179   3.560   7.864 -0.7546  0.8861  0.6355
  152SAPE  C21516854   1.215   3.609   8.057 -0.2209  0.3214 -0.5121
  152SAPE  H15R16855   1.215   3.501   8.079 -1.9458 -0.0578 -2.2692
  152SAPE  C21616856   1.259   3.697   8.173  0.0674 -0.4156 -0.0549
  152SAPE  H16R16857   1.200   3.653   8.256 -0.0787  0.6618  0.4330
  152SAPE  H16S16858   1.223   3.802   8.160 -0.7238 -0.8503 -1.3929
  152SAPE  C21716859   1.410   3.698   8.186  0.4283  0.3379 -0.6704
  152SAPE  H17R16860   1.430   3.782   8.254  1.6477 -0.1115 -0.4718
  152SAPE  H17S16861   1.473   3.713   8.096  3.0313  1.8981  1.3536
  152SAPE  C21816862   1.461   3.578   8.264  0.1659  0.3039 -0.3034
  152SAPE  H18R16863   1.571   3.589   8.271  0.3497 -1.8185  0.5318
  152SAPE  H18S16864   1.434   3.489   8.204 -0.9304  2.1932 -2.7105
  152SAPE  C21916865   1.422   3.581   8.412 -0.2291 -0.1157 -0.3318
  152SAPE  H19R16866   1.314   3.580   8.439 -0.8763  1.1754 -2.6848
  152SAPE  H19S16867   1.454   3.680   8.452 -0.5341  0.4136 -1.3792
  152SAPE  C22016868   1.501   3.477   8.499 -0.1419  0.3559 -0.4689
  152SAPE  H20R16869   1.610   3.501   8.498  0.1269 -0.5429  2.5847
  152SAPE  H20S16870   1.461   3.380   8.464  0.7048 -0.0274 -0.3821
  152SAPE  H20T16871   1.475   3.483   8.607 -0.7318  0.1543 -0.6003
  152SAPE   C3316872   0.726   4.498   6.761 -0.0325  0.2124 -0.1638
  152SAPE   H3X16873   0.615   4.503   6.755 -0.1333 -0.8742  0.8305
  152SAPE   H3Y16874   0.768   4.555   6.675 -0.0771 -3.4071 -2.6662
  152SAPE   C3416875   0.788   4.575   6.877 -0.4070  0.1224 -0.2377
  152SAPE   H4X16876   0.785   4.685   6.864 -1.5825 -0.0151 -1.1661
  152SAPE   H4Y16877   0.894   4.540   6.878 -0.6142 -0.6142 -2.5240
  152SAPE   C3516878   0.708   4.544   7.011  0.6135 -0.1221  0.1938
  152SAPE   H5X16879   0.673   4.438   7.003  1.3298 -0.2726 -0.9518
  152SAPE   H5Y16880   0.615   4.604   7.008 -0.9194 -2.4264 -0.2133
  152SAPE   C3616881   0.796   4.573   7.129  0.6895 -0.0510  0.1524
  152SAPE   H6X16882   0.805   4.683   7.140 -0.2818 -0.0096  0.5747
  152SAPE   H6Y16883   0.896   4.527   7.112  2.4727  2.7055  2.6429
  152SAPE   C3716884   0.743   4.527   7.267 -0.3381 -0.5819  0.1446
  152SAPE   H7X16885   0.758   4.418   7.283 -2.5246 -1.0652 -0.8243
  152SAPE   H7Y16886   0.632   4.533   7.275 -0.4920 -2.0103 -0.6201
  152SAPE   C3816887   0.807   4.614   7.375 -0.3324 -0.3770 -0.2717
  152SAPE   H8X16888   0.769   4.718   7.384  1.0513 -0.0095  1.7908
  152SAPE   H8Y16889   0.914   4.634   7.351 -1.0493  1.9753 -1.5691
  152SAPE   C3916890   0.798   4.546   7.511  0.0810  0.4978 -0.8242
  152SAPE   H9X16891   0.861   4.595   7.588 -1.7682 -0.1708  1.1468
  152SAPE   H9Y16892   0.826   4.438   7.515 -2.7039 -0.1681  2.1465
  152SAPE  C31016893   0.658   4.547   7.586  0.3834 -0.4064 -0.4065
  152SAPE  H10X16894   0.582   4.478   7.543 -1.6106  1.5146 -0.0723
  152SAPE  H10Y16895   0.612   4.648   7.586  0.4643 -0.3290  2.0428
  152SAPE  C31116896   0.692   4.505   7.730 -0.5336  0.2446  0.8449
  152SAPE  H11X16897   0.783   4.442   7.736  0.4373  1.3414 -1.7018
  152SAPE  H11Y16898   0.608   4.441   7.766  0.5281 -0.5837  1.9156
  152SAPE  C31216899   0.718   4.630   7.815  0.4364 -1.1209  0.0742
  152SAPE  H12X16900   0.648   4.714   7.791  0.6430 -1.2867 -1.1257
  152SAPE  H12Y16901   0.819   4.669   7.793  0.2899 -1.6784 -1.6719
  152SAPE  C31316902   0.723   4.595   7.966  0.1140  0.1675 -0.3601
  152SAPE  H13X16903   0.641   4.529   8.004  1.3917 -1.1645  0.1263
  152SAPE  H13Y16904   0.711   4.691   8.020  1.1899  0.9681 -1.5078
  152SAPE  C31416905   0.866   4.545   8.009  0.4568  0.6491  0.1134
  152SAPE  H14X16906   0.942   4.622   7.984  1.5895 -0.1316  1.0897
  152SAPE  H14Y16907   0.887   4.459   7.942 -3.2621 -0.5073  0.3253
  152SAPE  C31516908   0.868   4.532   8.162  0.0950 -0.4236  1.0665
  152SAPE  H15X16909   0.772   4.480   8.179 -0.0993 -0.0232  1.1902
  152SAPE  H15Y16910   0.871   4.629   8.216  1.0939  0.9110 -1.3449
  152SAPE  C31616911   0.976   4.437   8.203  0.9460  0.5978 -0.0102
  152SAPE  H16X16912   1.068   4.494   8.181  1.9163 -0.2782  1.7679
  152SAPE  H16Y16913   0.983   4.335   8.159 -3.1224  0.1413  0.1930
  152SAPE  C31716914   0.972   4.403   8.353  0.3023  0.2478 -0.1191
  152SAPE  H17X16915   0.873   4.358   8.376  1.4055 -1.2627  1.7379
  152SAPE  H17Y16916   0.983   4.496   8.412 -2.2280  0.1539  0.5410
  152SAPE  C31816917   1.079   4.310   8.408  0.8432  0.0472  0.4169
  152SAPE  H18X16918   1.076   4.309   8.519  0.6462 -1.5004  0.4073
  152SAPE  H18Y16919   1.178   4.332   8.362  0.4988 -0.3815 -0.5533
  152SAPE  H18Z16920   1.055   4.207   8.373 -0.4245  0.2496  0.6850
  153SAPE     N16921   3.709   4.394   6.133  0.1874 -0.6683  0.1515
  153SAPE   HN116922   3.747   4.471   6.075 -0.2428  1.2338  2.3226
  153SAPE   HN216923   3.727   4.301   6.089  2.7112 -0.5472  0.8456
  153SAPE   HN316924   3.607   4.409   6.147  0.3878 -0.0262  0.9779
  153SAPE   C1216925   3.758   4.391   6.273  0.6092  0.6049  0.2754
  153SAPE  H12A16926   3.719   4.296   6.315 -1.3937  0.9371 -0.7729
  153SAPE  H12B16927   3.713   4.482   6.319 -1.5980  0.3535 -1.3149
  153SAPE   C1116928   3.920   4.381   6.269 -0.6845 -0.5608 -0.5964
  153SAPE  H11A16929   3.948   4.284   6.223 -0.4950 -1.3385  1.1037
  153SAPE  H11B16930   3.954   4.375   6.374  0.8623  2.1739 -0.8937
  153SAPE     P16931   4.004   4.631   6.257  0.1174 -0.1917  0.0488
  153SAPE   O1316932   4.146   4.665   6.227  0.0283 -0.4906 -0.0170
  153SAPE   O1416933   3.912   4.740   6.211 -0.4769 -0.2406 -0.4807
  153SAPE   O1216934   3.973   4.490   6.203  0.1387 -0.0763  0.2527
  153SAPE   O1116935   3.981   4.609   6.417 -0.7398  0.6728  0.4486
  153SAPE    C116936   3.917   4.713   6.490  0.6999 -0.3728  0.3756
  153SAPE    HA16937   3.820   4.743   6.444 -0.7687  0.3513  3.8065
  153SAPE    HB16938   3.887   4.681   6.592  0.8123 -0.9511  0.2304
  153SAPE    C216939   4.005   4.839   6.515 -0.6914 -0.7131  0.3657
  153SAPE    HS16940   3.989   4.896   6.421  3.0348  1.6150  1.0780
  153SAPE   O2116941   4.148   4.805   6.522  0.1824 -0.0298  0.1984
  153SAPE   C2116942   4.231   4.907   6.500  0.3732 -0.6592  0.9642
  153SAPE   O2216943   4.198   5.020   6.474 -0.0263 -0.1885 -0.3858
  153SAPE   C2216944   4.380   4.859   6.502  0.2045  0.8633  0.1698
  153SAPE   H2R16945   4.375   4.763   6.559 -0.9879 -0.1657 -1.6248
  153SAPE   H2S16946   4.400   4.813   6.403 -1.3506  0.5932 -0.0384
  153SAPE    C316947   3.946   4.928   6.625 -0.1364 -0.6224  0.0029
  153SAPE    HX16948   3.843   4.946   6.589 -0.0995 -1.2119 -0.4190
  153SAPE    HY16949   4.000   5.025   6.623 -3.5289  1.3002 -1.4127
  153SAPE   O3116950   3.946   4.872   6.760  0.0779  0.2756 -0.5245
  153SAPE   C3116951   4.044   4.923   6.836 -0.7000 -0.6158 -0.2206
  153SAPE   O3216952   4.128   5.010   6.800  0.2627  0.3408 -0.0413
  153SAPE   C3216953   4.051   4.855   6.970 -0.1603 -0.0747  0.4112
  153SAPE   H2X16954   4.156   4.854   7.005 -0.1019 -1.0609  0.2223
  153SAPE   H2Y16955   4.015   4.750   6.971 -0.6341  0.0855  0.2298
  153SAPE   C2316956   4.478   4.962   6.555 -0.2583 -0.2177  0.3736
  153SAPE   H3R16957   4.430   5.046   6.609  1.4215 -0.1136  1.7488
  153SAPE   H3S16958   4.526   5.017   6.471 -0.2015 -2.4852 -1.1234
  153SAPE   C2416959   4.580   4.917   6.651 -0.5090  0.2848  0.1949
  153SAPE   H4R16960   4.637   4.843   6.592  0.6917  3.0198 -2.2157
  153SAPE   H4S16961   4.530   4.853   6.727  0.1690 -0.8616 -0.3073
  153SAPE   C2516962   4.677   5.021   6.689 -0.1794 -0.0658 -0.5010
  153SAPE   H5R16963   4.733   5.069   6.608 -0.6417  2.9615  0.9021
  153SAPE   C2616964   4.686   5.058   6.817 -0.3271  0.0615  0.7446
  153SAPE   H6R16965   4.755   5.140   6.840 -0.3455  0.4318 -0.4617
  153SAPE   C2716966   4.602   5.010   6.933  0.5782  0.1415 -0.4321
  153SAPE   H7R16967   4.656   5.053   7.020  0.9269 -3.0862  0.9923
  153SAPE   H7S16968   4.596   4.902   6.956 -0.9841  0.3911  0.4493
  153SAPE   C2816969   4.456   5.049   6.927  0.7666 -0.1140 -0.5560
  153SAPE   H8R16970   4.404   5.054   6.830 -0.0299  0.9249 -0.0755
  153SAPE   C2916971   4.389   5.101   7.028  0.2999  0.3703 -0.0446
  153SAPE   H9R16972   4.285   5.131   7.008  0.3296 -1.1107 -2.7654
  153SAPE  C21016973   4.437   5.123   7.167 -0.0014  0.0641 -0.0863
  153SAPE  H10R16974   4.392   5.216   7.206  1.4652  0.2079  1.3361
  153SAPE  H10S16975   4.547   5.142   7.162 -0.3252  2.0480 -0.1416
  153SAPE  C21116976   4.420   5.009   7.257 -0.3090  0.3555  0.6832
  153SAPE  H11R16977   4.445   4.911   7.214  0.0271  0.5118  0.5154
  153SAPE  C21216978   4.370   5.007   7.386  0.6322  1.1808  0.5403
  153SAPE  H12R16979   4.366   4.907   7.433  1.0529 -0.0480 -1.9371
  153SAPE  C21316980   4.332   5.131   7.467 -0.0534 -0.4782 -0.1321
  153SAPE  H13R16981   4.255   5.103   7.542  0.6658  1.9792  1.5471
  153SAPE  H13S16982   4.271   5.200   7.405 -0.1307 -1.1822 -0.8561
  153SAPE  C21416983   4.452   5.205   7.525  0.2195  0.4505 -0.3435
  153SAPE  H14R16984   4.525   5.240   7.450 -0.4073 -1.0866 -1.7063
  153SAPE  C21516985   4.482   5.214   7.655  0.4145 -0.4657 -0.0143
  153SAPE  H15R16986   4.568   5.275   7.688  0.0895  0.7819 -1.4017
  153SAPE  C21616987   4.396   5.169   7.763  0.9857  0.8821 -0.5280
  153SAPE  H16R16988   4.369   5.061   7.755 -0.8746  1.1456  1.5855
  153SAPE  H16S16989   4.298   5.222   7.762 -0.4425 -1.5994  1.5860
  153SAPE  C21716990   4.459   5.199   7.899 -0.0160 -0.8121  0.5859
  153SAPE  H17R16991   4.567   5.171   7.903  0.5636  1.3077  0.3761
  153SAPE  H17S16992   4.409   5.131   7.971 -0.5443 -3.1510 -1.9251
  153SAPE  C21816993   4.453   5.346   7.949  0.4514  0.0161 -0.3749
  153SAPE  H18R16994   4.344   5.365   7.962  0.2317 -0.3990 -1.4928
  153SAPE  H18S16995   4.507   5.415   7.880  1.1222  0.7389  0.8456
  153SAPE  C21916996   4.504   5.354   8.095  0.2307 -0.0915 -0.1321
  153SAPE  H19R16997   4.536   5.457   8.121 -3.0820  0.7517  0.8630
  153SAPE  H19S16998   4.593   5.289   8.091 -0.3359 -0.7547 -2.9881
  153SAPE  C22016999   4.393   5.296   8.188  0.9153 -0.3896 -0.1913
  153SAPE  H20R17000   4.379   5.185   8.189 -0.1742 -0.2622 -0.1692
  153SAPE  H20S17001   4.289   5.328   8.163  0.6910 -0.4542  0.6525
  153SAPE  H20T17002   4.414   5.333   8.290  3.0359 -1.1557 -0.3317
  153SAPE   C3317003   3.987   4.929   7.092 -0.1560 -0.8614 -0.4221
  153SAPE   H3X17004   3.878   4.934   7.074  0.1076 -1.0372 -2.0979
  153SAPE   H3Y17005   4.028   5.033   7.093  0.6450 -1.1454 -2.2327
  153SAPE   C3417006   4.018   4.867   7.233  0.0196 -0.1645  0.9811
  153SAPE   H4X17007   4.128   4.855   7.246  0.1398  0.2257  0.3404
  153SAPE   H4Y17008   3.968   4.768   7.244 -1.4248  0.4481  0.0799
  153SAPE   C3517009   3.968   4.956   7.346 -0.6517  0.4215 -0.7237
  153SAPE   H5X17010   3.862   4.985   7.331 -0.7426  1.5445  1.8494
  153SAPE   H5Y17011   4.027   5.050   7.342  0.1403 -0.0439 -0.1577
  153SAPE   C3617012   3.990   4.898   7.493  0.0433 -0.3526 -0.1123
  153SAPE   H6X17013   4.084   4.942   7.534  0.1920 -0.5026 -0.2903
  153SAPE   H6Y17014   4.001   4.788   7.488  0.3887 -0.2183 -2.6899
  153SAPE   C3717015   3.871   4.921   7.582  0.1804  0.1568 -0.2645
  153SAPE   H7X17016   3.782   4.860   7.553  0.9802 -0.8097 -0.7212
  153SAPE   H7Y17017   3.850   5.029   7.573  1.9364  0.8085  2.7479
  153SAPE   C3817018   3.910   4.892   7.729 -0.7923  0.1557 -0.1438
  153SAPE   H8X17019   3.997   4.955   7.756  1.0789 -1.7620 -1.5179
  153SAPE   H8Y17020   3.948   4.787   7.727  0.6430  0.6636  0.4944
  153SAPE   C3917021   3.796   4.921   7.836 -0.5184 -0.1595 -0.3492
  153SAPE   H9X17022   3.704   4.864   7.811 -0.1317 -0.3694 -1.3117
  153SAPE   H9Y17023   3.775   5.028   7.816  1.2264  0.2983  0.2299
  153SAPE  C31017024   3.848   4.878   7.972 -0.5156  0.1152  0.6106
  153SAPE  H10X17025   3.901   4.781   7.959 -0.3426  0.3346 -0.3353
  153SAPE  H10Y17026   3.769   4.859   8.049 -0.2178  1.4864  1.2654
  153SAPE  C31117027   3.929   4.976   8.065 -0.1368 -0.9123 -0.9944
  153SAPE  H11X17028   3.887   5.079   8.058 -0.6654 -1.0717 -0.2500
  153SAPE  H11Y17029   4.032   4.973   8.025 -0.0261 -0.1555 -0.7877
  153SAPE  C31217030   3.932   4.940   8.215 -0.0960 -0.6058  0.4524
  153SAPE  H12X17031   3.971   4.842   8.250 -1.4284 -1.1195  0.5284
  153SAPE  H12Y17032   3.829   4.938   8.257 -0.0400 -0.0297  0.6096
  153SAPE  C31317033   4.006   5.050   8.295 -0.1197 -0.1822  0.9886
  153SAPE  H13X17034   3.943   5.139   8.274  1.4465  0.7002 -0.0959
  153SAPE  H13Y17035   4.106   5.078   8.255 -0.4019  1.1133  1.1535
  153SAPE  C31417036   4.025   5.024   8.449 -0.4388  0.2370 -0.4393
  153SAPE  H14X17037   3.931   4.973   8.482 -0.7163  1.4835  0.7090
  153SAPE  H14Y17038   4.029   5.124   8.495 -0.6993  0.3949 -0.7580
  153SAPE  C31517039   4.139   4.940   8.485 -0.0361  0.2490  0.1618
  153SAPE  H15X17040   4.233   4.999   8.492  0.6262 -0.8271  0.5364
  153SAPE  H15Y17041   4.154   4.868   8.401  0.2944  3.1207 -2.3099
  153SAPE  C31617042   4.122   4.872   8.619 -1.1141  0.5883  0.0121
  153SAPE  H16X17043   4.050   4.788   8.614  0.0950 -0.3646 -2.2448
  153SAPE  H16Y17044   4.091   4.947   8.695 -0.0810  0.8282  0.2118
  153SAPE  C31717045   4.254   4.814   8.674 -0.2906  0.5622 -0.4429
  153SAPE  H17X17046   4.247   4.800   8.784 -1.5420 -0.7312 -0.6776
  153SAPE  H17Y17047   4.330   4.893   8.654  1.9123 -1.8070 -1.5535
  153SAPE  C31817048   4.276   4.678   8.608 -0.8638 -0.4960  0.2436
  153SAPE  H18X17049   4.365   4.620   8.640 -1.0507 -0.7758  0.2641
  153SAPE  H18Y17050   4.281   4.680   8.497  2.3174 -1.5148  0.3071
  153SAPE  H18Z17051   4.194   4.609   8.638 -2.2070 -0.1150 -2.4334
  154SAPE     N17052   2.034   4.697   6.540  0.1394  0.1869  0.3642
  154SAPE   HN117053   1.972   4.720   6.459  1.4420  1.3639 -0.3247
  154SAPE   HN217054   1.986   4.710   6.632 -0.7894  1.2458 -0.2538
  154SAPE   HN317055   2.111   4.765   6.523  0.7046 -1.1443 -2.5976
  154SAPE   C1217056   2.094   4.557   6.540 -0.0058 -0.8109 -0.0913
  154SAPE  H12A17057   2.017   4.489   6.582 -0.2229 -0.5965 -0.1401
  154SAPE  H12B17058   2.181   4.551   6.609  0.5644  1.9507 -0.5136
  154SAPE   C1117059   2.117   4.512   6.394 -0.2502 -0.0530  0.2222
  154SAPE  H11A17060   2.185   4.425   6.404  1.0265  0.7430 -1.2189
  154SAPE  H11B17061   2.170   4.575   6.319 -0.5907  0.2609  0.2418
  154SAPE     P17062   1.944   4.331   6.309  0.3655 -0.2028  0.4983
  154SAPE   O1317063   1.799   4.322   6.284  0.0093 -0.4444 -0.1240
  154SAPE   O1417064   2.032   4.276   6.197  0.0866  0.1378 -0.6220
  154SAPE   O1217065   1.988   4.482   6.338 -0.1225  0.5819  1.1480
  154SAPE   O1117066   1.985   4.246   6.439  0.0489 -0.4470  0.2358
  154SAPE    C117067   1.889   4.237   6.542 -0.1810  0.2919  0.6718
  154SAPE    HA17068   1.895   4.336   6.593  0.2522  1.3803 -1.4351
  154SAPE    HB17069   1.780   4.234   6.518 -0.6492  1.9773  2.4405
  154SAPE    C217070   1.934   4.129   6.644 -0.2631  0.6384 -0.0690
  154SAPE    HS17071   1.886   4.159   6.740  3.2834  0.6005  1.7822
  154SAPE   O2117072   2.072   4.124   6.668  0.0234 -0.4608 -0.3229
  154SAPE   C2117073   2.133   4.238   6.699 -0.2448  0.6265  0.1745
  154SAPE   O2217074   2.084   4.330   6.759 -0.2462 -0.8376 -0.1063
  154SAPE   C2217075   2.282   4.214   6.663 -0.5316 -0.3293 -0.3415
  154SAPE   H2R17076   2.330   4.131   6.719 -0.6192  0.6104  1.1836
  154SAPE   H2S17077   2.286   4.179   6.558  0.4077 -0.6478 -0.2006
  154SAPE    C317078   1.876   3.987   6.604  0.0155 -0.4468 -0.2747
  154SAPE    HX17079   1.948   3.956   6.525  0.5774 -1.4497  0.6207
  154SAPE    HY17080   1.783   3.985   6.544 -0.8583 -0.8095  1.0713
  154SAPE   O3117081   1.875   3.891   6.714  0.5819  0.7488  0.4217
  154SAPE   C3117082   1.772   3.893   6.797 -0.7478 -0.8380 -0.4746
  154SAPE   O3217083   1.686   3.975   6.798  0.2450 -0.1210  0.1609
  154SAPE   C3217084   1.778   3.784   6.901 -0.6276  0.3440 -0.1905
  154SAPE   H2X17085   1.836   3.837   6.979 -1.0590 -1.9414  1.7281
  154SAPE   H2Y17086   1.845   3.700   6.872 -3.5148 -1.3329 -2.2877
  154SAPE   C2317087   2.376   4.338   6.666 -0.1641 -0.2649 -0.3356
  154SAPE   H3R17088   2.343   4.422   6.601  3.0304  0.6267 -0.8789
  154SAPE   H3S17089   2.477   4.311   6.628  2.9396  3.1412  4.8351
  154SAPE   C2417090   2.409   4.389   6.803  0.2575  0.5839 -0.5979
  154SAPE   H4R17091   2.311   4.432   6.833  0.5665  0.9069 -0.0376
  154SAPE   H4S17092   2.486   4.467   6.785  1.0438  0.1026  0.6137
  154SAPE   C2517093   2.461   4.273   6.885  0.8038  0.3042 -0.0263
  154SAPE   H5R17094   2.534   4.210   6.832 -0.0578 -0.1207 -0.7202
  154SAPE   C2617095   2.445   4.257   7.020  0.0540  0.6041 -0.0367
  154SAPE   H6R17096   2.473   4.160   7.063  0.5271 -0.4203 -2.5581
  154SAPE   C2717097   2.374   4.354   7.122 -0.0572  0.2240 -0.2455
  154SAPE   H7R17098   2.273   4.317   7.150 -0.3118  1.0483 -0.0534
  154SAPE   H7S17099   2.362   4.456   7.079 -1.4063 -0.3244 -1.2226
  154SAPE   C2817100   2.454   4.368   7.246 -0.4872  0.0747 -0.0946
  154SAPE   H8R17101   2.552   4.415   7.235 -0.6193  0.5632  0.7586
  154SAPE   C2917102   2.425   4.316   7.369  1.4184  0.1068  0.8389
  154SAPE   H9R17103   2.495   4.345   7.448  0.9671  1.3472  0.7853
  154SAPE  C21017104   2.299   4.241   7.411 -0.3483 -0.1968 -0.4048
  154SAPE  H10R17105   2.245   4.196   7.325  1.4568  1.3378 -2.3864
  154SAPE  H10S17106   2.227   4.314   7.453  0.6653 -0.5043  1.9405
  154SAPE  C21117107   2.322   4.140   7.528  0.6135  0.2134  0.4067
  154SAPE  H11R17108   2.332   4.034   7.502 -1.6362  0.4213 -1.5118
  154SAPE  C21217109   2.330   4.170   7.658 -0.1593 -0.4837 -0.0686
  154SAPE  H12R17110   2.342   4.090   7.733 -2.9039 -1.6663 -0.8217
  154SAPE  C21317111   2.321   4.311   7.713 -0.1334 -0.0205 -0.2215
  154SAPE  H13R17112   2.213   4.326   7.733 -0.1115 -0.9359  0.6339
  154SAPE  H13S17113   2.359   4.396   7.652  0.7246  0.5820  1.1118
  154SAPE  C21417114   2.394   4.318   7.843 -0.3955 -0.1135  0.4445
  154SAPE  H14R17115   2.503   4.319   7.827 -0.6635  2.7264 -1.5104
  154SAPE  C21517116   2.350   4.311   7.965 -0.9024 -0.1500 -0.5761
  154SAPE  H15R17117   2.421   4.313   8.049  0.1479 -1.0277 -1.4226
  154SAPE  C21617118   2.204   4.301   8.008  0.0301  0.7255 -0.4669
  154SAPE  H16R17119   2.138   4.333   7.925 -0.4088  0.7162 -0.1217
  154SAPE  H16S17120   2.180   4.372   8.091 -0.5246 -1.9689  1.7525
  154SAPE  C21717121   2.167   4.165   8.071  0.6129 -0.0035  0.2402
  154SAPE  H17R17122   2.170   4.090   7.990 -2.3353  0.7774 -0.6442
  154SAPE  H17S17123   2.060   4.183   8.097  0.1168 -1.6837 -0.6345
  154SAPE  C21817124   2.226   4.133   8.207 -0.3337 -0.2668  0.4918
  154SAPE  H18R17125   2.331   4.097   8.207 -0.6209 -1.1307  0.0689
  154SAPE  H18S17126   2.166   4.047   8.244 -1.4441 -0.7621 -2.3158
  154SAPE  C21917127   2.233   4.239   8.315  0.2421 -0.3935 -0.4637
  154SAPE  H19R17128   2.138   4.286   8.348  1.0722  1.6401 -0.9479
  154SAPE  H19S17129   2.289   4.328   8.279 -1.3434  0.7104 -0.2343
  154SAPE  C22017130   2.303   4.164   8.440  0.1667  0.6771  0.3070
  154SAPE  H20R17131   2.409   4.145   8.413 -0.0926 -0.1503 -0.1452
  154SAPE  H20S17132   2.259   4.065   8.464 -1.4398  1.0142 -1.1415
  154SAPE  H20T17133   2.316   4.215   8.538 -1.8494 -0.3073  1.1133
  154SAPE   C3317134   1.639   3.739   6.968 -0.5979 -0.5901  0.2449
  154SAPE   H3X17135   1.591   3.662   6.904 -3.9492  1.3351  0.3267
  154SAPE   H3Y17136   1.571   3.827   6.968 -1.2764 -1.0976 -0.9155
  154SAPE   C3417137   1.652   3.676   7.104  0.0696 -0.3357  0.4105
  154SAPE   H4X17138   1.697   3.744   7.180  1.4418  0.5995 -1.2058
  154SAPE   H4Y17139   1.711   3.583   7.111  0.0177 -0.4283 -0.3084
  154SAPE   C3517140   1.511   3.641   7.154 -0.0513  0.0837 -0.8759
  154SAPE   H5X17141   1.470   3.570   7.079 -0.6644  0.7896 -1.2106
  154SAPE   H5Y17142   1.432   3.718   7.145 -0.1931  0.0581  0.0436
  154SAPE   C3617143   1.513   3.585   7.291 -0.1512  0.8357  0.0038
  154SAPE   H6X17144   1.579   3.495   7.293 -1.1479  0.0943  0.2720
  154SAPE   H6Y17145   1.412   3.546   7.317 -0.4641  2.4358  1.2432
  154SAPE   C3717146   1.550   3.686   7.403 -0.8383  0.1793 -0.4136
  154SAPE   H7X17147   1.462   3.753   7.417 -0.2981  0.7418  0.3149
  154SAPE   H7Y17148   1.650   3.727   7.380 -1.6097  1.9026 -0.8075
  154SAPE   C3817149   1.560   3.610   7.540 -0.1267 -0.0728  0.7881
  154SAPE   H8X17150   1.463   3.558   7.552  0.6038 -1.3100  1.4081
  154SAPE   H8Y17151   1.575   3.682   7.624 -0.6852 -1.3378  1.9992
  154SAPE   C3917152   1.693   3.527   7.547 -0.1986  0.4742  0.6201
  154SAPE   H9X17153   1.783   3.583   7.512 -1.9740  1.9230 -1.7692
  154SAPE   H9Y17154   1.684   3.445   7.473 -0.8663  1.9605 -0.9990
  154SAPE  C31017155   1.735   3.474   7.679  0.5909 -0.6283 -0.4374
  154SAPE  H10X17156   1.814   3.398   7.666  0.7751 -0.6006  0.4457
  154SAPE  H10Y17157   1.644   3.422   7.717  1.1832 -0.2145  1.6140
  154SAPE  C31117158   1.777   3.568   7.798  0.2909 -0.5313  0.2728
  154SAPE  H11X17159   1.680   3.596   7.845 -0.3461 -1.3662 -0.5204
  154SAPE  H11Y17160   1.827   3.658   7.757  0.2170 -0.7686 -0.3452
  154SAPE  C31217161   1.877   3.519   7.895 -0.8352 -0.2839 -0.4710
  154SAPE  H12X17162   1.913   3.601   7.961 -1.4415 -1.3751  1.2479
  154SAPE  H12Y17163   1.972   3.487   7.847 -0.7900 -0.5215 -0.2285
  154SAPE  C31317164   1.834   3.402   7.984  0.6985 -0.3554 -0.3092
  154SAPE  H13X17165   1.762   3.339   7.929  0.2262  0.3300 -0.4820
  154SAPE  H13Y17166   1.773   3.450   8.063  0.7662  1.0426 -1.0974
  154SAPE  C31417167   1.943   3.323   8.039  0.5314 -0.0308  0.1707
  154SAPE  H14X17168   1.995   3.256   7.966  1.6402 -0.7100  1.5725
  154SAPE  H14Y17169   1.894   3.264   8.119 -0.7233  1.1829  0.3095
  154SAPE  C31517170   2.046   3.412   8.110  0.6230 -0.0499  0.1924
  154SAPE  H15X17171   1.981   3.465   8.182  1.0662  1.2754 -0.3502
  154SAPE  H15Y17172   2.095   3.486   8.043  0.6409 -1.2546 -1.1489
  154SAPE  C31617173   2.155   3.326   8.177 -0.5345 -0.1884 -0.0426
  154SAPE  H16X17174   2.183   3.250   8.101 -1.3659 -1.6652  1.0913
  154SAPE  H16Y17175   2.105   3.272   8.260 -2.4964 -0.5856 -1.4490
  154SAPE  C31717176   2.275   3.412   8.232 -0.3599 -0.0083  1.1206
  154SAPE  H17X17177   2.320   3.470   8.148 -2.1922 -2.1356 -1.4083
  154SAPE  H17Y17178   2.344   3.344   8.286  1.5764  1.0159 -0.0179
  154SAPE  C31817179   2.238   3.523   8.332 -0.5743 -0.6193  0.4109
  154SAPE  H18X17180   2.183   3.474   8.415 -1.2356 -0.2434  0.2002
  154SAPE  H18Y17181   2.166   3.600   8.295 -0.9966  0.1708  2.7704
  154SAPE  H18Z17182   2.319   3.575   8.388  0.8148 -2.8996  0.5667
  155SAPE     N17183   2.590   5.147   6.606 -0.5556 -0.4711 -0.4886
  155SAPE   HN117184   2.573   5.056   6.654  0.4781  0.4216  1.6101
  155SAPE   HN217185   2.691   5.154   6.580 -0.7775  0.4135 -1.1149
  155SAPE   HN317186   2.565   5.217   6.678  1.6653  0.6626 -0.7599
  155SAPE   C1217187   2.516   5.154   6.482  0.0034 -0.4426  0.1707
  155SAPE  H12A17188   2.521   5.057   6.427  1.3126 -0.2100 -0.1178
  155SAPE  H12B17189   2.549   5.238   6.417  0.4107 -0.8049 -0.0878
  155SAPE   C1117190   2.367   5.178   6.513  0.1071  0.2889 -0.4727
  155SAPE  H11A17191   2.297   5.168   6.427  2.0083 -1.9452 -1.8283
  155SAPE  H11B17192   2.360   5.279   6.559  0.3565  0.3096 -0.4781
  155SAPE     P17193   2.174   5.050   6.644 -0.2236 -0.0458 -0.2858
  155SAPE   O1317194   2.093   5.174   6.664  0.2004  0.0912  1.0490
  155SAPE   O1417195   2.127   4.956   6.545 -0.3879  0.2588 -0.0619
  155SAPE   O1217196   2.326   5.084   6.617 -0.2571 -0.1585  0.0783
  155SAPE   O1117197   2.180   4.980   6.786  0.3182 -0.2697 -0.3977
  155SAPE    C117198   2.198   5.048   6.909 -1.1153  0.2749 -0.4656
  155SAPE    HA17199   2.135   5.140   6.911 -1.2039  0.3988 -4.4210
  155SAPE    HB17200   2.164   4.986   6.994 -1.9675 -0.5439 -1.3822
  155SAPE    C217201   2.346   5.094   6.935  0.1453  0.2748  0.4910
  155SAPE    HS17202   2.394   5.128   6.840  0.5551 -0.2696  0.5028
  155SAPE   O2117203   2.407   4.970   6.989 -0.3341 -0.3108  0.3811
  155SAPE   C2117204   2.510   4.939   6.917 -0.0861  0.1966 -0.0829
  155SAPE   O2217205   2.538   4.971   6.800 -0.0537 -0.6455  0.5530
  155SAPE   C2217206   2.609   4.856   6.998  0.5694 -0.4118 -0.3536
  155SAPE   H2R17207   2.711   4.897   6.979  0.8297 -0.2186  1.4329
  155SAPE   H2S17208   2.581   4.867   7.105 -0.0765 -0.3122 -0.5291
  155SAPE    C317209   2.351   5.205   7.042  0.3891 -0.1254  0.4745
  155SAPE    HX17210   2.274   5.274   7.001 -0.4700 -0.7815  0.9661
  155SAPE    HY17211   2.451   5.254   7.036 -0.2095  1.0392 -0.2047
  155SAPE   O3117212   2.306   5.181   7.182 -0.3465  0.0584 -0.4811
  155SAPE   C3117213   2.388   5.116   7.259 -0.4911 -0.4771  0.4780
  155SAPE   O3217214   2.504   5.091   7.229  1.0458  0.1905 -0.2519
  155SAPE   C3217215   2.328   5.078   7.394  0.2007 -0.5214 -0.5594
  155SAPE   H2X17216   2.234   5.031   7.359 -0.1056 -1.8253  1.8956
  155SAPE   H2Y17217   2.303   5.173   7.447  0.6352 -0.6897 -0.0530
  155SAPE   C2317218   2.605   4.705   6.967 -0.7718 -0.5553 -0.6317
  155SAPE   H3R17219   2.665   4.689   6.875 -0.6040 -0.5256 -0.5275
  155SAPE   H3S17220   2.500   4.669   6.956 -0.7820 -1.5855  2.5026
  155SAPE   C2417221   2.669   4.614   7.077 -0.3441 -0.1579 -0.7628
  155SAPE   H4R17222   2.657   4.513   7.032 -0.1755  0.0358 -1.2404
  155SAPE   H4S17223   2.609   4.622   7.171 -0.7247 -1.8248 -0.8500
  155SAPE   C2517224   2.818   4.643   7.092  0.4363 -0.4093 -0.2199
  155SAPE   H5R17225   2.882   4.616   7.007 -0.2074 -0.8776 -0.5629
  155SAPE   C2617226   2.883   4.680   7.204  0.1999  0.7669  0.1165
  155SAPE   H6R17227   2.992   4.696   7.198  0.7609 -0.9730  4.0430
  155SAPE   C2717228   2.820   4.703   7.338  0.2707  0.1901 -0.6708
  155SAPE   H7R17229   2.729   4.765   7.324 -0.8551 -2.1816 -4.7625
  155SAPE   H7S17230   2.898   4.762   7.391  0.4104  0.3427 -1.0470
  155SAPE   C2817231   2.781   4.574   7.404  0.2163  0.0592  0.1249
  155SAPE   H8R17232   2.755   4.496   7.331 -0.3763  1.5071 -1.2564
  155SAPE   C2917233   2.771   4.554   7.537 -0.7313 -0.8186 -0.2399
  155SAPE   H9R17234   2.745   4.452   7.569 -3.2841 -1.2268 -3.3648
  155SAPE  C21017235   2.790   4.659   7.637 -0.4997  0.4416  0.4700
  155SAPE  H10R17236   2.730   4.622   7.723 -1.6137 -1.9921 -1.3083
  155SAPE  H10S17237   2.749   4.756   7.601 -0.4054  0.3547  0.1269
  155SAPE  C21117238   2.936   4.680   7.677  0.1268 -0.8198  0.5358
  155SAPE  H11R17239   3.005   4.718   7.600 -0.3850 -1.2773 -0.1551
  155SAPE  C21217240   2.992   4.663   7.805 -0.5674 -0.3245  0.0794
  155SAPE  H12R17241   3.101   4.677   7.808 -0.7960  3.1261 -3.3956
  155SAPE  C21317242   2.904   4.628   7.931 -0.9277  0.6351  0.2665
  155SAPE  H13R17243   2.972   4.567   7.994 -1.6945  1.8277  2.2845
  155SAPE  H13S17244   2.820   4.562   7.900  0.3567 -2.1380  2.4987
  155SAPE  C21417245   2.858   4.757   7.991 -0.2277  0.2630 -0.3248
  155SAPE  H14R17246   2.874   4.848   7.932  0.2166  1.7152  1.9566
  155SAPE  C21517247   2.781   4.756   8.100  0.8731 -0.5680 -0.5384
  155SAPE  H15R17248   2.756   4.853   8.145  2.1478  0.7220 -2.5580
  155SAPE  C21617249   2.754   4.633   8.176 -0.2050 -0.0004 -0.8479
  155SAPE  H16R17250   2.830   4.552   8.172  0.8864  0.9654  0.0939
  155SAPE  H16S17251   2.666   4.581   8.133  0.2798 -2.2742  0.8661
  155SAPE  C21717252   2.713   4.667   8.324  0.5293  0.3184 -0.4663
  155SAPE  H17R17253   2.649   4.758   8.320 -1.5376 -1.0486  0.5972
  155SAPE  H17S17254   2.800   4.710   8.376 -0.1737  0.4105  0.6393
  155SAPE  C21817255   2.639   4.559   8.397 -0.4291  0.1254  0.0227
  155SAPE  H18R17256   2.677   4.456   8.383 -1.3942 -0.3641  0.9059
  155SAPE  H18S17257   2.539   4.549   8.350 -0.3223 -1.3822  0.0888
  155SAPE  C21917258   2.625   4.586   8.548  0.3413  0.7659  0.8405
  155SAPE  H19R17259   2.601   4.694   8.545  2.6612  1.2728 -1.5818
  155SAPE  H19S17260   2.723   4.586   8.600  1.0575 -1.1319 -0.4778
  155SAPE  C22017261   2.514   4.505   8.618  0.4501 -0.0296 -0.5722
  155SAPE  H20R17262   2.501   4.562   8.712 -0.5365 -0.3552 -0.5007
  155SAPE  H20S17263   2.547   4.401   8.643 -0.3267 -0.2000 -0.2405
  155SAPE  H20T17264   2.415   4.525   8.570  1.0569 -0.0891 -1.8764
  155SAPE   C3317265   2.419   4.993   7.489 -0.1244 -0.1390 -0.5294
  155SAPE   H3X17266   2.469   5.062   7.561  0.1348  0.3493 -1.1699
  155SAPE   H3Y17267   2.494   4.937   7.430 -0.6142 -2.0280  0.5869
  155SAPE   C3417268   2.336   4.893   7.567 -0.2719 -0.7181  0.0696
  155SAPE   H4X17269   2.269   4.834   7.499 -0.1427 -1.7217  0.8038
  155SAPE   H4Y17270   2.274   4.953   7.637  0.3985  0.4082 -0.2905
  155SAPE   C3517271   2.418   4.786   7.642  0.0130  0.0468  0.3135
  155SAPE   H5X17272   2.502   4.837   7.693 -0.7080  1.3116  0.2664
  155SAPE   H5Y17273   2.454   4.727   7.555 -1.0390  1.2251 -0.9579
  155SAPE   C3617274   2.336   4.706   7.734  0.2066 -0.5690  0.6682
  155SAPE   H6X17275   2.383   4.607   7.754 -0.5297 -1.0863 -0.1446
  155SAPE   H6Y17276   2.239   4.676   7.689  1.1799 -0.1022 -1.7802
  155SAPE   C3717277   2.300   4.776   7.868  0.0388 -0.9822  0.2456
  155SAPE   H7X17278   2.221   4.850   7.846  0.7195 -0.5911 -0.8891
  155SAPE   H7Y17279   2.391   4.832   7.900 -1.2428  0.0876  2.1447
  155SAPE   C3817280   2.264   4.676   7.978 -0.1173 -0.4585  0.6370
  155SAPE   H8X17281   2.332   4.588   7.970 -0.2234 -0.3070 -2.5729
  155SAPE   H8Y17282   2.159   4.646   7.958 -1.5182  3.3895  1.8513
  155SAPE   C3917283   2.264   4.740   8.119  0.2327 -0.3948  0.1845
  155SAPE   H9X17284   2.188   4.821   8.120 -1.3050 -1.8359  2.1607
  155SAPE   H9Y17285   2.354   4.805   8.129  0.1993 -0.5402  1.6269
  155SAPE  C31017286   2.250   4.643   8.235 -0.0023 -0.0273  0.1498
  155SAPE  H10X17287   2.324   4.561   8.223 -0.4693 -0.3800 -0.3685
  155SAPE  H10Y17288   2.148   4.599   8.233 -0.4004  0.7342  2.3180
  155SAPE  C31117289   2.271   4.698   8.372 -0.4584 -0.3573  0.0599
  155SAPE  H11X17290   2.374   4.736   8.389  0.6737 -3.6635  0.9719
  155SAPE  H11Y17291   2.252   4.616   8.445  2.6007  0.4026  1.7948
  155SAPE  C31217292   2.176   4.814   8.423  0.0843  0.3313  0.0708
  155SAPE  H12X17293   2.089   4.795   8.357  2.0142 -2.2569 -1.8188
  155SAPE  H12Y17294   2.210   4.912   8.384  1.5045 -0.2352 -0.1323
  155SAPE  C31317295   2.144   4.811   8.570  0.6557  0.9521 -0.2574
  155SAPE  H13X17296   2.110   4.710   8.601 -1.5661  0.8409 -2.8505
  155SAPE  H13Y17297   2.059   4.878   8.595 -0.3534  0.5221 -2.4319
  155SAPE  C31417298   2.273   4.854   8.641 -0.1624 -0.3281  0.6035
  155SAPE  H14X17299   2.317   4.951   8.610  0.5666 -0.1468  2.1815
  155SAPE  H14Y17300   2.361   4.786   8.630  0.3024  0.4932 -1.0602
  155SAPE  C31517301   2.237   4.871   8.784  0.5483  0.9888 -0.9289
  155SAPE  H15X17302   2.189   4.779   8.824  1.9344  0.3756 -0.6408
  155SAPE  H15Y17303   2.170   4.956   8.808  0.4187  0.7975 -0.6089
  155SAPE  C31617304   2.364   4.881   8.868  0.1262 -0.5685 -0.5875
  155SAPE  H16X17305   2.413   4.980   8.858  0.5373 -0.2697  3.6897
  155SAPE  H16Y17306   2.444   4.813   8.831  0.3627  0.1259 -1.3638
  155SAPE  C31717307   2.340   4.857   9.013 -0.0402 -0.0035  0.1768
  155SAPE  H17X17308   2.319   4.748   9.013 -0.1477  0.0152 -0.2022
  155SAPE  H17Y17309   2.252   4.914   9.049 -1.1074 -0.4143 -1.7276
  155SAPE  C31817310   2.451   4.890   9.104 -0.4893 -0.0721  0.2688
  155SAPE  H18X17311   2.547   4.851   9.064  0.3385  0.9276  1.2276
  155SAPE  H18Y17312   2.427   4.838   9.200 -1.2717 -0.1160  0.0492
  155SAPE  H18Z17313   2.448   5.000   9.118  4.3963 -0.0512  2.0075
  156SAPE     N17314   0.109   5.281   6.285  0.5039 -0.4958 -0.3865
  156SAPE   HN117315   0.014   5.271   6.244 -0.2754  2.0602  0.7402
  156SAPE   HN217316   0.102   5.211   6.362 -1.4322  1.4867  1.3185
  156SAPE   HN317317   0.118   5.379   6.316 -2.4544  0.2907 -1.8155
  156SAPE   C1217318   0.209   5.248   6.188 -0.5970  0.1993  0.3686
  156SAPE  H12A17319   0.194   5.315   6.101  0.1262 -1.1324 -0.8129
  156SAPE  H12B17320   0.201   5.141   6.160 -2.5514  0.0872  1.3167
  156SAPE   C1117321   0.350   5.267   6.248 -0.4138 -0.3368 -0.1542
  156SAPE  H11A17322   0.428   5.277   6.169 -0.6933 -0.9352 -0.5127
  156SAPE  H11B17323   0.366   5.173   6.305 -3.6903 -0.8678 -0.0438
  156SAPE     P17324   0.485   5.389   6.427 -0.2776 -0.2084  0.2553
  156SAPE   O1317325   0.601   5.324   6.361  0.1847 -0.2136 -0.4802
  156SAPE   O1417326   0.499   5.513   6.502 -0.7745 -0.2383  0.2589
  156SAPE   O1217327   0.358   5.386   6.327  0.0082  0.7181  0.1303
  156SAPE   O1117328   0.445   5.289   6.536 -0.1893 -0.6296  0.2704
  156SAPE    C117329   0.324   5.289   6.608 -1.0473  0.0496 -0.1171
  156SAPE    HA17330   0.237   5.317   6.545 -1.9497  1.8640  1.9041
  156SAPE    HB17331   0.307   5.184   6.640  0.3425 -0.8836 -2.3439
  156SAPE    C217332   0.325   5.377   6.734  0.2983  0.0435  0.2864
  156SAPE    HS17333   0.374   5.470   6.699  0.5398 -1.1644 -2.6560
  156SAPE   O2117334   0.384   5.310   6.842  0.3229  0.2142 -0.5386
  156SAPE   C2117335   0.479   5.377   6.902 -0.6242  0.0206 -0.6294
  156SAPE   O2217336   0.507   5.495   6.878 -0.4288 -0.0005  0.0306
  156SAPE   C2217337   0.533   5.290   7.014  0.0995  0.2677  0.1099
  156SAPE   H2R17338   0.460   5.243   7.082  0.7273  2.9113  2.6909
  156SAPE   H2S17339   0.605   5.213   6.979  1.2017  1.4768 -0.3296
  156SAPE    C317340   0.177   5.422   6.768  0.6066  0.4121 -0.3737
  156SAPE    HX17341   0.117   5.328   6.769 -0.8438  1.3366  1.4132
  156SAPE    HY17342   0.138   5.474   6.678 -0.6139 -0.6043 -0.4462
  156SAPE   O3117343   0.174   5.507   6.885 -0.5768  0.5231  0.0932
  156SAPE   C3117344   0.106   5.454   6.990  0.1631  1.5086 -0.3147
  156SAPE   O3217345   0.034   5.359   6.992  0.2764  0.3406 -0.3589
  156SAPE   C3217346   0.128   5.537   7.113 -0.2956  0.8338  0.2592
  156SAPE   H2X17347   0.028   5.564   7.153 -0.4919  1.3853 -0.5933
  156SAPE   H2Y17348   0.191   5.628   7.099 -0.7031  1.2347  1.0062
  156SAPE   C2317349   0.623   5.380   7.110 -0.6629 -0.2670  0.6453
  156SAPE   H3R17350   0.545   5.440   7.162 -1.4593 -0.9228  0.2301
  156SAPE   H3S17351   0.690   5.446   7.051  1.9826  0.8746  4.7355
  156SAPE   C2417352   0.714   5.298   7.203  0.7390  0.8170 -0.1853
  156SAPE   H4R17353   0.782   5.368   7.256 -0.4938  1.1283  0.9911
  156SAPE   H4S17354   0.779   5.232   7.140  1.1415  1.6811 -0.6857
  156SAPE   C2517355   0.624   5.215   7.287 -0.0726  0.4564  0.1035
  156SAPE   H5R17356   0.577   5.135   7.227  1.0691 -0.0125 -0.1773
  156SAPE   C2617357   0.596   5.246   7.415  0.0763 -0.1314 -0.0916
  156SAPE   H6R17358   0.527   5.195   7.484  0.8628  1.7269  2.1277
  156SAPE   C2717359   0.669   5.356   7.482 -0.1620 -0.2357 -0.6079
  156SAPE   H7R17360   0.649   5.449   7.425 -1.0374  0.2222  0.4267
  156SAPE   H7S17361   0.780   5.348   7.480 -0.2480 -1.5251 -0.6062
  156SAPE   C2817362   0.646   5.379   7.636  0.2578 -0.1250  0.1542
  156SAPE   H8R17363   0.583   5.467   7.654  4.0147  2.4516  1.3314
  156SAPE   C2917364   0.698   5.313   7.741 -0.3387 -0.4876  0.2179
  156SAPE   H9R17365   0.694   5.348   7.845  1.9722 -1.1294  0.5705
  156SAPE  C21017366   0.789   5.193   7.712 -0.2103 -0.5132 -0.3925
  156SAPE  H10R17367   0.882   5.230   7.761 -0.1912  0.0633 -0.8613
  156SAPE  H10S17368   0.819   5.168   7.608  0.0117  0.8168 -0.6494
  156SAPE  C21117369   0.751   5.058   7.770  0.0916  0.1093  0.3726
  156SAPE  H11R17370   0.684   5.008   7.699 -2.0721  2.3033  0.7824
  156SAPE  C21217371   0.773   5.004   7.890 -0.4444 -0.2081  0.2617
  156SAPE  H12R17372   0.730   4.904   7.904  1.0941 -0.5579  2.8019
  156SAPE  C21317373   0.856   5.060   8.001  0.8055  0.2613  0.1538
  156SAPE  H13R17374   0.799   5.142   8.049  1.4302  1.1112 -0.5424
  156SAPE  H13S17375   0.955   5.094   7.962  1.2106 -0.1269  0.8464
  156SAPE  C21417376   0.893   4.954   8.098 -0.3967  0.1342 -0.2791
  156SAPE  H14R17377   0.911   4.858   8.047  0.3268 -1.3964  2.7299
  156SAPE  C21517378   0.929   4.958   8.227 -0.3110 -0.5236  0.0326
  156SAPE  H15R17379   0.960   4.864   8.276 -0.5928 -0.0471  1.1357
  156SAPE  C21617380   0.917   5.066   8.331 -0.3746  0.3730  0.5680
  156SAPE  H16R17381   0.874   5.160   8.290 -1.0834 -0.0654  0.2882
  156SAPE  H16S17382   1.015   5.080   8.381 -0.4249  1.6432  0.3221
  156SAPE  C21717383   0.816   5.020   8.439  0.4512 -0.5053 -0.1570
  156SAPE  H17R17384   0.731   4.965   8.394 -0.4311 -0.3381  1.2714
  156SAPE  H17S17385   0.764   5.104   8.490  0.8733 -1.4458  1.8823
  156SAPE  C21817386   0.876   4.926   8.546 -0.2987  0.5380  0.9757
  156SAPE  H18R17387   0.965   4.973   8.593  1.6171 -0.2165 -1.7784
  156SAPE  H18S17388   0.917   4.840   8.489  0.1018  0.6239  1.1313
  156SAPE  C21917389   0.771   4.875   8.653 -0.6823 -0.8577 -0.1902
  156SAPE  H19R17390   0.713   4.789   8.613 -3.2462  1.1306 -0.8324
  156SAPE  H19S17391   0.705   4.955   8.692  2.2414  0.9245  1.3285
  156SAPE  C22017392   0.843   4.815   8.775  0.6252 -0.1594 -0.1942
  156SAPE  H20R17393   0.780   4.748   8.837  0.0195  0.4625 -0.1286
  156SAPE  H20S17394   0.876   4.892   8.847 -1.4373  0.5818 -0.0172
  156SAPE  H20T17395   0.933   4.762   8.737 -0.9814 -1.5705 -2.1355
  156SAPE   C3317396   0.201   5.460   7.227  0.3746  0.0070 -0.8779
  156SAPE   H3X17397   0.311   5.447   7.217  0.4157 -1.5051  1.3882
  156SAPE   H3Y17398   0.158   5.358   7.236 -3.5464  1.6107 -0.0500
  156SAPE   C3417399   0.170   5.511   7.368 -0.1956 -0.3613 -0.3582
  156SAPE   H4X17400   0.067   5.483   7.400 -0.0404  1.3987  1.7763
  156SAPE   H4Y17401   0.168   5.622   7.369 -1.9016 -0.3884  1.1391
  156SAPE   C3517402   0.264   5.457   7.477 -0.1393 -0.1788  0.8796
  156SAPE   H5X17403   0.374   5.462   7.463 -0.3757  2.1927 -0.3861
  156SAPE   H5Y17404   0.238   5.349   7.474 -0.9061 -0.1221  3.7495
  156SAPE   C3617405   0.231   5.493   7.626 -0.3959  0.0832 -0.0559
  156SAPE   H6X17406   0.122   5.514   7.635 -0.2424  0.4722  0.9251
  156SAPE   H6Y17407   0.289   5.587   7.640 -0.1628  0.2905 -2.2035
  156SAPE   C3717408   0.282   5.385   7.720  0.0777 -0.7696 -0.4069
  156SAPE   H7X17409   0.376   5.348   7.674 -0.0252  1.3180 -2.3740
  156SAPE   H7Y17410   0.204   5.307   7.708 -0.3075 -0.5394  0.5763
  156SAPE   C3817411   0.310   5.432   7.862  0.2132  0.3986  0.1378
  156SAPE   H8X17412   0.209   5.459   7.899  1.6144  2.4228  2.5941
  156SAPE   H8Y17413   0.386   5.512   7.849  0.4154  0.2282  0.2714
  156SAPE   C3917414   0.347   5.305   7.935  0.4901  0.1664 -0.3840
  156SAPE   H9X17415   0.418   5.247   7.872 -0.7169  0.3567 -1.9607
  156SAPE   H9Y17416   0.259   5.239   7.954  1.4693 -0.5161  1.9444
  156SAPE  C31017417   0.421   5.321   8.065 -0.1356  0.3280  0.0274
  156SAPE  H10X17418   0.530   5.341   8.058 -0.1665  0.4741 -0.0397
  156SAPE  H10Y17419   0.418   5.219   8.109 -0.9129  1.2137  2.1249
  156SAPE  C31117420   0.369   5.427   8.163 -0.5466 -0.2885 -0.4609
  156SAPE  H11X17421   0.260   5.415   8.182 -0.2071  0.7613  2.3012
  156SAPE  H11Y17422   0.393   5.528   8.123  0.4108 -0.2936  0.0998
  156SAPE  C31217423   0.432   5.424   8.305 -0.4194 -0.4582 -0.5033
  156SAPE  H12X17424   0.465   5.319   8.320  0.9589 -0.1037 -0.9579
  156SAPE  H12Y17425   0.362   5.465   8.380  0.9991  0.3160  0.4310
  156SAPE  C31317426   0.555   5.519   8.325  0.6545 -0.1668  0.6593
  156SAPE  H13X17427   0.513   5.622   8.320 -0.9313 -0.6371  3.2738
  156SAPE  H13Y17428   0.631   5.492   8.248 -0.1899 -0.0418 -0.2258
  156SAPE  C31417429   0.622   5.530   8.461 -0.5545  0.4146 -0.3467
  156SAPE  H14X17430   0.547   5.524   8.543 -0.0088 -1.4839  0.0419
  156SAPE  H14Y17431   0.679   5.624   8.455 -0.1630  0.2001 -0.0174
  156SAPE  C31517432   0.718   5.411   8.487 -0.2999 -0.5824 -0.3190
  156SAPE  H15X17433   0.792   5.415   8.404  0.0649 -2.2751 -0.0801
  156SAPE  H15Y17434   0.671   5.311   8.478  0.6213 -0.9573 -1.1642
  156SAPE  C31617435   0.786   5.430   8.615 -0.1680  0.0904 -0.0131
  156SAPE  H16X17436   0.843   5.525   8.619  1.3258 -0.7392 -1.0112
  156SAPE  H16Y17437   0.872   5.359   8.610 -1.2886 -1.4687  2.0436
  156SAPE  C31717438   0.700   5.412   8.750 -0.4860 -0.5143 -0.0824
  156SAPE  H17X17439   0.745   5.327   8.804  1.5688  0.6361  0.0688
  156SAPE  H17Y17440   0.595   5.385   8.725 -0.5924 -1.1500  1.0526
  156SAPE  C31817441   0.699   5.536   8.841 -0.2789 -0.6231  0.6587
  156SAPE  H18X17442   0.616   5.526   8.914 -2.4601  0.2015 -1.6231
  156SAPE  H18Y17443   0.679   5.619   8.770  0.5681  0.2103  1.3831
  156SAPE  H18Z17444   0.801   5.561   8.877  0.0665  0.1692 -0.7979
  157SAPE     N17445   4.299   0.352   6.297  0.1431  0.2043  0.1313
  157SAPE   HN117446   4.248   0.362   6.207  1.0624 -0.6036 -0.4996
  157SAPE   HN217447   4.365   0.431   6.312 -1.4225  1.2424  1.5517
  157SAPE   HN317448   4.357   0.266   6.294  0.1217  0.1822  0.3800
  157SAPE   C1217449   4.194   0.357   6.399 -0.6749 -0.0983 -0.0541
  157SAPE  H12A17450   4.231   0.320   6.497 -0.1929  2.3087  0.6893
  157SAPE  H12B17451   4.107   0.299   6.359 -2.0541  2.8702 -1.4960
  157SAPE   C1117452   4.147   0.499   6.411 -0.7668 -0.3832  0.9089
  157SAPE  H11A17453   4.225   0.553   6.469  1.5047 -2.1713 -0.4179
  157SAPE  H11B17454   4.059   0.504   6.479 -0.2734  0.8076  1.4832
  157SAPE     P17455   4.058   0.690   6.261  0.1031  0.2812  0.0588
  157SAPE   O1317456   4.123   0.768   6.154  0.2245  0.4207  0.3272
  157SAPE   O1417457   3.910   0.667   6.262  0.1452  0.0732  0.0355
  157SAPE   O1217458   4.135   0.550   6.275 -0.1462 -0.3380  0.1283
  157SAPE   O1117459   4.095   0.754   6.398 -0.4363 -0.1787  0.3526
  157SAPE    C117460   4.170   0.878   6.413 -0.3225  0.5557  0.0826
  157SAPE    HA17461   4.277   0.870   6.385 -0.5818 -0.3633 -0.6961
  157SAPE    HB17462   4.125   0.956   6.348  0.5476  1.1230  0.1501
  157SAPE    C217463   4.163   0.930   6.564  0.6237  0.5028  0.3125
  157SAPE    HS17464   4.242   1.008   6.570  1.1071 -0.1019  1.9984
  157SAPE   O2117465   4.166   0.825   6.665  0.1061 -0.4497  0.0488
  157SAPE   C2117466   4.270   0.754   6.666  0.0668  0.2728  0.1319
  157SAPE   O2217467   4.355   0.734   6.580  0.1041 -0.3930  0.0176
  157SAPE   C2217468   4.266   0.697   6.807 -0.0203 -0.4577  0.1396
  157SAPE   H2R17469   4.165   0.709   6.851  0.4415  1.8202  0.6202
  157SAPE   H2S17470   4.293   0.590   6.794  2.3241  0.2433 -0.9995
  157SAPE    C317471   4.030   0.998   6.595  0.1529 -0.3222 -0.2320
  157SAPE    HX17472   3.950   0.932   6.555 -1.2568  1.2458 -0.0622
  157SAPE    HY17473   4.030   1.090   6.534 -0.9583  0.7793  1.3656
  157SAPE   O3117474   4.000   1.023   6.735 -0.7149  0.0230  0.3376
  157SAPE   C3117475   4.081   1.106   6.795 -0.1106  0.4436 -0.1469
  157SAPE   O3217476   4.174   1.163   6.742 -0.1991  0.9554  0.4277
  157SAPE   C3217477   4.047   1.102   6.948 -0.3957 -0.3063 -0.2174
  157SAPE   H2X17478   3.958   1.166   6.969 -0.2730 -0.5265  0.9917
  157SAPE   H2Y17479   4.135   1.149   6.996 -0.8244 -1.0922  1.3902
  157SAPE   C2317480   4.384   0.747   6.903  0.3136  0.2123  0.0737
  157SAPE   H3R17481   4.338   0.794   6.992  2.1777 -1.3479  1.9247
  157SAPE   H3S17482   4.427   0.839   6.858  0.9713 -0.4049 -0.5738
  157SAPE   C2417483   4.506   0.656   6.941  1.0640  0.0299  0.0531
  157SAPE   H4R17484   4.589   0.712   6.989  1.1819  0.5158 -0.7036
  157SAPE   H4S17485   4.546   0.605   6.851  1.3717  1.0492 -0.3926
  157SAPE   C2517486   4.450   0.554   7.039  0.2256  0.2009  0.6001
  157SAPE   H5R17487   4.435   0.457   6.990  2.2635 -0.1353  0.6143
  157SAPE   C2617488   4.446   0.552   7.168 -0.3501  0.5849 -0.4135
  157SAPE   H6R17489   4.395   0.470   7.219 -3.2118  3.0982  0.9439
  157SAPE   C2717490   4.482   0.667   7.267 -0.0188  0.4633 -0.5374
  157SAPE   H7R17491   4.487   0.762   7.210  1.0007 -0.3025 -1.7559
  157SAPE   H7S17492   4.589   0.656   7.294 -0.1991  0.4453  0.1712
  157SAPE   C2817493   4.401   0.684   7.390 -0.1001 -0.3673 -0.4839
  157SAPE   H8R17494   4.330   0.767   7.378 -1.4443 -1.2167  1.3919
  157SAPE   C2917495   4.410   0.628   7.512 -0.1338 -0.4458  0.0265
  157SAPE   H9R17496   4.332   0.667   7.578 -0.3428 -1.2440  0.2600
  157SAPE  C21017497   4.495   0.507   7.554  0.4231 -0.6612 -0.8416
  157SAPE  H10R17498   4.564   0.484   7.470 -0.5793 -1.7237 -1.3902
  157SAPE  H10S17499   4.426   0.422   7.575 -0.3527 -0.2958 -1.8742
  157SAPE  C21117500   4.589   0.529   7.670  0.1294  0.0624 -0.1713
  157SAPE  H11R17501   4.682   0.576   7.636  1.0735 -1.3737  0.3854
  157SAPE  C21217502   4.570   0.525   7.800  0.9071  0.2163  0.1492
  157SAPE  H12R17503   4.658   0.545   7.862  1.9656  0.5252 -1.4101
  157SAPE  C21317504   4.438   0.498   7.871 -0.8363 -0.2125 -0.0225
  157SAPE  H13R17505   4.466   0.406   7.927 -0.7967  0.0310  0.3630
  157SAPE  H13S17506   4.365   0.462   7.796 -1.2900 -2.1691  1.3173
  157SAPE  C21417507   4.381   0.615   7.943  0.8303 -0.0503  0.5473
  157SAPE  H14R17508   4.323   0.689   7.885  0.4919  0.1674  1.1532
  157SAPE  C21517509   4.382   0.633   8.077 -0.2278 -0.0085 -0.3827
  157SAPE  H15R17510   4.325   0.722   8.109 -0.5903  0.8387 -3.2969
  157SAPE  C21617511   4.435   0.540   8.180 -0.5169 -0.4812 -0.2700
  157SAPE  H16R17512   4.459   0.439   8.139  1.3097 -0.1976  0.0234
  157SAPE  H16S17513   4.367   0.524   8.266 -0.7114  3.1509  0.3122
  157SAPE  C21717514   4.568   0.581   8.246 -0.0295  0.1934  0.2779
  157SAPE  H17R17515   4.640   0.596   8.163 -0.2563  0.8377  0.1937
  157SAPE  H17S17516   4.605   0.490   8.297 -2.3541 -1.5366 -1.0173
  157SAPE  C21817517   4.553   0.697   8.340  0.1472 -0.9966 -0.2331
  157SAPE  H18R17518   4.522   0.784   8.277  0.2840 -1.0626 -0.3932
  157SAPE  H18S17519   4.651   0.714   8.389 -0.5253  2.5822  0.0150
  157SAPE  C21917520   4.451   0.679   8.450 -0.0057 -0.2744 -0.2909
  157SAPE  H19R17521   4.457   0.585   8.509 -0.8961  0.7645  1.5090
  157SAPE  H19S17522   4.352   0.676   8.399  0.3957  0.1685 -1.0937
  157SAPE  C22017523   4.457   0.788   8.556  0.0867  0.1086 -0.3367
  157SAPE  H20R17524   4.549   0.771   8.616 -1.3929  2.0696  2.6382
  157SAPE  H20S17525   4.365   0.786   8.618  0.2534  0.1984 -0.0882
  157SAPE  H20T17526   4.478   0.884   8.505  0.5750  0.2860  0.1907
  157SAPE   C3317527   4.035   0.965   7.006 -0.0226  0.1343 -0.0435
  157SAPE   H3X17528   4.139   0.926   7.003  0.1270  0.3535  1.9904
  157SAPE   H3Y17529   3.966   0.896   6.954 -1.1222  0.5394  0.8677
  157SAPE   C3417530   3.987   0.979   7.148 -0.3521 -0.2652 -0.6959
  157SAPE   H4X17531   3.896   1.043   7.159 -1.5579 -2.0268 -0.1529
  157SAPE   H4Y17532   4.062   1.020   7.218 -0.2484 -0.4071 -0.7245
  157SAPE   C3517533   3.972   0.846   7.212 -0.7285  0.0860 -0.2275
  157SAPE   H5X17534   4.067   0.793   7.231 -0.8617  0.0091  0.2281
  157SAPE   H5Y17535   3.910   0.792   7.137 -0.1681  0.5309 -1.0212
  157SAPE   C3617536   3.899   0.854   7.346 -0.7728 -0.2927 -0.3058
  157SAPE   H6X17537   3.887   0.749   7.381 -1.4539 -0.3169 -0.6138
  157SAPE   H6Y17538   3.799   0.900   7.332 -0.1527  1.2102  0.0848
  157SAPE   C3717539   3.985   0.931   7.454  0.7500  0.3287  0.3903
  157SAPE   H7X17540   3.982   1.040   7.432  0.4860  0.4710  1.1142
  157SAPE   H7Y17541   4.088   0.890   7.448  0.8073  0.1152  2.4120
  157SAPE   C3817542   3.951   0.912   7.602 -0.0430 -1.3908  0.1119
  157SAPE   H8X17543   3.847   0.939   7.630  0.6344  1.0846  0.4000
  157SAPE   H8Y17544   4.008   0.986   7.662 -1.2107  1.2577 -1.8799
  157SAPE   C3917545   4.005   0.778   7.659  0.0433  0.3381 -0.3868
  157SAPE   H9X17546   4.115   0.782   7.649  0.0581 -0.9186 -0.8278
  157SAPE   H9Y17547   3.969   0.699   7.589  0.2413 -0.6190  0.5731
  157SAPE  C31017548   3.966   0.725   7.800 -0.4390  0.2482 -1.0306
  157SAPE  H10X17549   4.012   0.793   7.874 -0.0500  0.5513 -1.5456
  157SAPE  H10Y17550   4.011   0.626   7.822  1.5503  1.3879  0.1620
  157SAPE  C31117551   3.814   0.707   7.829 -0.5302 -0.3968  0.4781
  157SAPE  H11X17552   3.784   0.603   7.804  2.3330 -1.1093 -0.2193
  157SAPE  H11Y17553   3.770   0.786   7.764 -2.2802 -0.3407  1.6985
  157SAPE  C31217554   3.776   0.751   7.974 -0.5098  0.6098 -0.4416
  157SAPE  H12X17555   3.670   0.784   7.972 -0.0417  2.7329  3.7621
  157SAPE  H12Y17556   3.841   0.837   8.002  0.6577 -0.8606  1.4330
  157SAPE  C31317557   3.814   0.638   8.071 -0.1497  0.1989  0.3811
  157SAPE  H13X17558   3.915   0.600   8.048 -0.6034 -1.8302  1.6918
  157SAPE  H13Y17559   3.744   0.552   8.066  0.8276 -0.6257  0.7468
  157SAPE  C31417560   3.812   0.680   8.222  0.1291 -0.5540 -0.2083
  157SAPE  H14X17561   3.718   0.738   8.237  2.2249  2.7410  0.7107
  157SAPE  H14Y17562   3.892   0.750   8.257  0.1145 -1.6581  2.1489
  157SAPE  C31517563   3.827   0.564   8.317 -0.1225 -0.2091  0.1574
  157SAPE  H15X17564   3.921   0.508   8.297  0.1302  0.5171 -0.6815
  157SAPE  H15Y17565   3.745   0.490   8.307  0.7636 -0.7900 -3.2657
  157SAPE  C31617566   3.833   0.592   8.468  0.0463  0.4173 -1.1067
  157SAPE  H16X17567   3.804   0.501   8.526  1.3197  1.4044  1.1685
  157SAPE  H16Y17568   3.750   0.663   8.486 -1.4030 -1.6648  0.6884
  157SAPE  C31717569   3.971   0.639   8.529  0.3181  0.4324  0.4085
  157SAPE  H17X17570   3.980   0.739   8.480 -2.3078 -0.2146 -1.5402
  157SAPE  H17Y17571   4.045   0.575   8.477  0.8076  2.2446 -1.2186
  157SAPE  C31817572   4.002   0.634   8.677  0.4515  0.1424 -0.5024
  157SAPE  H18X17573   3.928   0.683   8.744  2.5712  0.9519  1.3429
  157SAPE  H18Y17574   4.096   0.689   8.699  0.0449  0.3213  0.8354
  157SAPE  H18Z17575   4.008   0.530   8.717 -0.1099 -0.2520 -1.4416
  158SAPE     N17576   6.773   4.371   6.130  0.0550  0.7334  0.0955
  158SAPE   HN117577   6.743   4.275   6.157 -0.9033  0.8633 -0.5035
  158SAPE   HN217578   6.697   4.430   6.092 -0.3943  0.4759  0.5754
  158SAPE   HN317579   6.845   4.362   6.055 -0.9110 -2.8962 -0.4802
  158SAPE   C1217580   6.837   4.423   6.256 -0.4665  0.3766  0.5413
  158SAPE  H12A17581   6.919   4.353   6.283  0.3899  0.2607 -2.2165
  158SAPE  H12B17582   6.758   4.435   6.333 -1.1738 -2.3321  0.2824
  158SAPE   C1117583   6.916   4.559   6.236  0.1821 -0.2408  0.2339
  158SAPE  H11A17584   7.005   4.546   6.171  0.5034 -1.3601  0.8817
  158SAPE  H11B17585   6.946   4.585   6.340  1.9062 -2.1802  0.2481
  158SAPE     P17586   6.835   4.810   6.233  0.3234 -0.1480  0.6873
  158SAPE   O1317587   6.970   4.842   6.285  0.6408  0.1470 -0.3396
  158SAPE   O1417588   6.775   4.913   6.139 -0.2807 -0.1649  0.3893
  158SAPE   O1217589   6.836   4.663   6.169  0.1771 -0.1051 -0.3099
  158SAPE   O1117590   6.744   4.790   6.357  0.0777 -0.1817 -0.1028
  158SAPE    C117591   6.603   4.747   6.350  0.2667 -0.1018  0.8885
  158SAPE    HA17592   6.560   4.726   6.250 -1.6969  0.5492  1.5743
  158SAPE    HB17593   6.576   4.654   6.405 -2.4168 -0.4723 -1.0043
  158SAPE    C217594   6.518   4.865   6.408 -0.8526  0.3501  0.4939
  158SAPE    HS17595   6.530   4.956   6.345  4.0653 -0.2363  0.4333
  158SAPE   O2117596   6.563   4.887   6.539  0.0912  0.1575 -0.3436
  158SAPE   C2117597   6.646   4.994   6.559 -0.3143  0.1677 -0.1828
  158SAPE   O2217598   6.665   5.084   6.481 -0.4361 -0.4729 -0.0804
  158SAPE   C2217599   6.699   4.994   6.705  0.1289  0.6809 -0.0212
  158SAPE   H2R17600   6.730   4.894   6.742  1.4040  0.7435 -0.9310
  158SAPE   H2S17601   6.793   5.052   6.707  0.7790 -0.3706  2.2100
  158SAPE    C317602   6.372   4.824   6.429  0.0712  0.0752 -0.6852
  158SAPE    HX17603   6.372   4.739   6.500 -0.2010 -0.7635 -1.6711
  158SAPE    HY17604   6.330   4.792   6.331  1.9063  0.1073 -1.5012
  158SAPE   O3117605   6.305   4.951   6.469  0.3265 -0.0119  0.2807
  158SAPE   C3117606   6.249   4.951   6.591  0.6412  0.0128  0.8277
  158SAPE   O3217607   6.235   4.850   6.665 -0.2892 -0.0206 -0.1845
  158SAPE   C3217608   6.204   5.096   6.626  0.4474 -0.1988 -1.1418
  158SAPE   H2X17609   6.098   5.110   6.596 -0.6193 -1.0076  2.0818
  158SAPE   H2Y17610   6.263   5.175   6.575 -0.1496  0.4638 -0.8068
  158SAPE   C2317611   6.603   5.059   6.814 -0.0161  0.0205  0.7084
  158SAPE   H3R17612   6.501   5.024   6.786  0.8638 -2.0614  0.0696
  158SAPE   H3S17613   6.604   5.170   6.806 -0.6782 -0.1172 -1.5931
  158SAPE   C2417614   6.645   5.024   6.957  0.0392  0.0539 -0.1259
  158SAPE   H4R17615   6.727   5.088   6.997  0.5010 -0.7613  0.2354
  158SAPE   H4S17616   6.683   4.920   6.956 -1.7059 -0.6238  1.5125
  158SAPE   C2517617   6.517   5.039   7.040 -0.4991 -0.7217  0.3690
  158SAPE   H5R17618   6.439   4.967   7.016 -3.4670  2.9360 -1.5068
  158SAPE   C2617619   6.492   5.114   7.147 -0.6246  0.6788 -0.4832
  158SAPE   H6R17620   6.393   5.110   7.196  0.0227 -0.6743  0.7481
  158SAPE   C2717621   6.591   5.206   7.213 -1.0008  0.1969 -0.0562
  158SAPE   H7R17622   6.696   5.184   7.184 -2.0759 -2.5107 -2.0479
  158SAPE   H7S17623   6.585   5.190   7.323 -1.0361  0.7665  0.0254
  158SAPE   C2817624   6.562   5.351   7.184 -0.0706  0.6438  0.2861
  158SAPE   H8R17625   6.570   5.375   7.077 -0.1148 -0.0181  0.1318
  158SAPE   C2917626   6.551   5.452   7.269  0.3372  1.0917  0.2030
  158SAPE   H9R17627   6.538   5.550   7.220 -0.3056 -0.0059 -1.8650
  158SAPE  C21017628   6.565   5.446   7.418  0.2582 -0.1086 -0.7015
  158SAPE  H10R17629   6.538   5.549   7.451 -0.9350 -0.5842 -0.1318
  158SAPE  H10S17630   6.666   5.420   7.454 -0.6104 -1.5382  0.7934
  158SAPE  C21117631   6.458   5.356   7.481  0.5874 -0.0228 -0.4502
  158SAPE  H11R17632   6.381   5.317   7.412  0.0236  1.0674 -0.4357
  158SAPE  C21217633   6.452   5.317   7.614  0.4674  0.9125 -0.0617
  158SAPE  H12R17634   6.369   5.254   7.650  1.2246  1.0167  1.8779
  158SAPE  C21317635   6.542   5.379   7.723  0.2372  0.6379 -0.3323
  158SAPE  H13R17636   6.504   5.346   7.822 -1.4824  0.7310 -0.9603
  158SAPE  H13S17637   6.537   5.490   7.722 -0.2590  0.6185 -1.8633
  158SAPE  C21417638   6.688   5.335   7.707  0.3545 -0.2685  0.2322
  158SAPE  H14R17639   6.758   5.395   7.646 -0.2974 -0.5406 -0.8000
  158SAPE  C21517640   6.741   5.221   7.757 -0.7023 -0.5593 -0.2605
  158SAPE  H15R17641   6.848   5.199   7.747 -0.3720  1.5208 -1.4954
  158SAPE  C21617642   6.667   5.131   7.849  0.1479  0.7449 -0.3386
  158SAPE  H16R17643   6.679   5.022   7.831 -2.9222  0.2044  0.5281
  158SAPE  H16S17644   6.559   5.136   7.824 -0.2157  2.6977  1.4653
  158SAPE  C21717645   6.659   5.173   8.003  0.1877 -0.1122  1.1465
  158SAPE  H17R17646   6.585   5.105   8.051 -1.2162  0.2933 -0.4038
  158SAPE  H17S17647   6.608   5.271   7.990 -1.3591 -1.3165 -2.4234
  158SAPE  C21817648   6.798   5.183   8.064 -0.3296  0.2108  0.3119
  158SAPE  H18R17649   6.868   5.246   8.005 -0.3672 -2.1921 -2.4249
  158SAPE  H18S17650   6.841   5.081   8.055 -0.0353  0.6135 -3.9734
  158SAPE  C21917651   6.793   5.214   8.214  0.5763  0.3879 -0.0832
  158SAPE  H19R17652   6.705   5.159   8.254  0.6312  0.2321 -0.1809
  158SAPE  H19S17653   6.760   5.320   8.227  2.2659  0.8425  0.6307
  158SAPE  C22017654   6.926   5.198   8.299  0.0011  0.3033  0.5949
  158SAPE  H20R17655   6.956   5.091   8.298 -0.7995  0.0661  2.1236
  158SAPE  H20S17656   6.916   5.236   8.402  0.6714 -1.0736  1.1834
  158SAPE  H20T17657   7.009   5.252   8.248 -0.8337  0.7263 -0.3441
  158SAPE   C3317658   6.195   5.115   6.778 -0.0452 -0.3309  0.6109
  158SAPE   H3X17659   6.290   5.120   6.836 -0.2587 -0.3322  0.9607
  158SAPE   H3Y17660   6.134   5.035   6.825 -0.8003 -0.3298 -0.3433
  158SAPE   C3417661   6.108   5.242   6.798 -0.3598  0.0193  0.2645
  158SAPE   H4X17662   6.007   5.222   6.756 -1.1225 -0.4617  2.2667
  158SAPE   H4Y17663   6.157   5.326   6.745 -2.4808 -0.0232 -1.8758
  158SAPE   C3517664   6.096   5.286   6.952  0.1223 -0.1201  0.1897
  158SAPE   H5X17665   6.062   5.391   6.941 -0.8234 -0.3379  1.0172
  158SAPE   H5Y17666   6.196   5.267   6.997  0.2763 -1.6409 -0.7650
  158SAPE   C3617667   6.001   5.199   7.028 -0.3572 -0.7637 -0.4345
  158SAPE   H6X17668   6.026   5.091   7.029  2.5073 -0.1300 -1.0357
  158SAPE   H6Y17669   5.903   5.214   6.977 -0.7074 -0.4053  0.3230
  158SAPE   C3717670   5.961   5.247   7.174  0.2662  0.3503  0.0721
  158SAPE   H7X17671   5.972   5.357   7.183 -3.9638  1.0097 -1.2626
  158SAPE   H7Y17672   5.854   5.231   7.199 -0.0433  1.1892 -0.6931
  158SAPE   C3817673   6.047   5.175   7.285  0.1936 -0.5003 -0.1363
  158SAPE   H8X17674   6.149   5.149   7.249 -0.0395  0.4620 -1.5454
  158SAPE   H8Y17675   5.996   5.079   7.306 -1.0049  0.4504  1.4156
  158SAPE   C3917676   6.063   5.263   7.410 -0.9618 -0.3633  0.6864
  158SAPE   H9X17677   6.100   5.366   7.386  0.9392 -1.3450 -0.8062
  158SAPE   H9Y17678   6.152   5.218   7.458 -0.4600 -0.9934 -0.7890
  158SAPE  C31017679   5.944   5.287   7.506 -0.7261 -0.3663 -0.1975
  158SAPE  H10X17680   5.920   5.184   7.540 -0.5328 -0.6478 -0.9129
  158SAPE  H10Y17681   5.865   5.324   7.438  1.6444 -1.3182 -3.5643
  158SAPE  C31117682   5.974   5.372   7.628  0.3831  0.4143 -0.0596
  158SAPE  H11X17683   5.885   5.418   7.677  0.2623  1.3811 -1.1741
  158SAPE  H11Y17684   6.047   5.450   7.597  2.3752 -1.7302 -0.9130
  158SAPE  C31217685   6.044   5.302   7.745  0.2546  1.1741  0.2910
  158SAPE  H12X17686   6.143   5.263   7.712 -2.0329 -2.6848 -2.3835
  158SAPE  H12Y17687   5.989   5.215   7.789  1.2338 -0.6898 -2.0764
  158SAPE  C31317688   6.065   5.413   7.851  0.0188 -0.8291 -0.3110
  158SAPE  H13X17689   5.963   5.454   7.866  0.4317  0.7121 -1.5420
  158SAPE  H13Y17690   6.128   5.496   7.811 -0.6421  0.4484  1.2633
  158SAPE  C31417691   6.131   5.367   7.983 -0.0866  0.7420 -0.3146
  158SAPE  H14X17692   6.231   5.326   7.960  0.7006  2.0092  0.7590
  158SAPE  H14Y17693   6.066   5.297   8.040 -0.8959  0.6532 -1.3309
  158SAPE  C31517694   6.165   5.481   8.085  0.0115 -0.2102  0.4625
  158SAPE  H15X17695   6.070   5.534   8.106  0.0745  0.1972 -0.2623
  158SAPE  H15Y17696   6.229   5.557   8.035 -1.6845  1.7339  1.1722
  158SAPE  C31617697   6.232   5.432   8.209  0.1370  0.5312 -0.3559
  158SAPE  H16X17698   6.196   5.332   8.240 -1.5782  1.2080 -0.1159
  158SAPE  H16Y17699   6.208   5.501   8.293  0.4518 -0.9399  0.9590
  158SAPE  C31717700   6.392   5.408   8.197  0.6891 -0.2028 -0.1694
  158SAPE  H17X17701   6.402   5.318   8.133 -1.0232 -1.0736  0.7627
  158SAPE  H17Y17702   6.425   5.377   8.299  3.3504  0.2487 -0.8625
  158SAPE  C31817703   6.484   5.507   8.148  0.5640  0.1907 -0.2441
  158SAPE  H18X17704   6.481   5.522   8.038  1.4517  0.2530 -0.2681
  158SAPE  H18Y17705   6.587   5.479   8.181  0.2651 -0.3951  0.2085
  158SAPE  H18Z17706   6.450   5.602   8.193  1.7780  1.1116 -1.2198
  159SAPE     N17707   5.866   1.591   6.332  0.0900 -0.2940  0.1285
  159SAPE   HN117708   5.926   1.545   6.260  0.8995  0.2929  0.4184
  159SAPE   HN217709   5.783   1.635   6.287  0.5522 -0.7410 -1.1768
  159SAPE   HN317710   5.929   1.659   6.381 -1.5307 -1.1109  3.4177
  159SAPE   C1217711   5.824   1.486   6.426  0.0173 -0.5941  0.1582
  159SAPE  H12A17712   5.768   1.407   6.372 -3.5434  0.6825  1.8097
  159SAPE  H12B17713   5.750   1.527   6.498  0.9068 -0.9860  1.3005
  159SAPE   C1117714   5.954   1.417   6.474 -0.2679  0.4578  0.7857
  159SAPE  H11A17715   5.918   1.335   6.540 -2.7200  0.9357  0.1118
  159SAPE  H11B17716   6.004   1.497   6.533  0.6648  2.2421 -2.3085
  159SAPE     P17717   6.032   1.222   6.325 -0.5287  0.1089  0.0660
  159SAPE   O1317718   5.893   1.170   6.311  0.8361 -0.1477  0.4002
  159SAPE   O1417719   6.122   1.206   6.210 -0.6374 -0.3790  0.1131
  159SAPE   O1217720   6.030   1.375   6.361  0.4122 -0.7638 -0.3228
  159SAPE   O1117721   6.093   1.153   6.449 -0.1787 -0.1017  0.0274
  159SAPE    C117722   6.213   1.186   6.515 -0.0044 -0.2758 -0.0524
  159SAPE    HA17723   6.290   1.227   6.446 -1.0675  0.0235 -1.0796
  159SAPE    HB17724   6.187   1.255   6.599 -0.4202 -0.5420  0.0392
  159SAPE    C217725   6.279   1.072   6.597 -0.9752 -0.1449  0.3830
  159SAPE    HS17726   6.305   0.994   6.522  0.6611  0.3290  0.4387
  159SAPE   O2117727   6.187   1.009   6.694  0.3420 -0.4299 -0.1472
  159SAPE   C2117728   6.160   1.087   6.799 -0.0659 -0.3168 -0.0348
  159SAPE   O2217729   6.204   1.200   6.823  0.2853  0.7390  0.4064
  159SAPE   C2217730   6.080   1.004   6.898 -0.0688 -0.4975 -0.0040
  159SAPE   H2R17731   6.025   0.927   6.839  1.7060 -1.2404 -0.7018
  159SAPE   H2S17732   6.150   0.951   6.965  0.0522  1.6794  1.6411
  159SAPE    C317733   6.417   1.119   6.653  0.0555  0.1945  0.0203
  159SAPE    HX17734   6.396   1.206   6.718 -0.5292  0.0941 -0.0231
  159SAPE    HY17735   6.471   1.142   6.559 -1.0768  0.9896 -0.4422
  159SAPE   O3117736   6.465   1.004   6.720 -0.4096 -0.4901 -0.1319
  159SAPE   C3117737   6.585   1.005   6.763  0.0403 -0.0868 -0.3162
  159SAPE   O3217738   6.670   1.092   6.740  0.2691 -0.0250 -0.1901
  159SAPE   C3217739   6.605   0.872   6.832 -0.4999  0.0221  0.2345
  159SAPE   H2X17740   6.618   0.789   6.759 -2.3993 -0.2910  0.2162
  159SAPE   H2Y17741   6.510   0.857   6.888 -0.9673  0.0055 -0.5524
  159SAPE   C2317742   5.977   1.089   6.978 -0.2167  0.1093  0.1933
  159SAPE   H3R17743   5.897   1.127   6.910  0.0614 -0.1840 -0.2962
  159SAPE   H3S17744   6.028   1.178   7.019 -1.0618  0.9250 -0.4843
  159SAPE   C2417745   5.904   1.001   7.084  0.0939  0.7381  0.4238
  159SAPE   H4R17746   5.977   0.959   7.157 -0.2114 -1.5823 -0.5690
  159SAPE   H4S17747   5.850   0.915   7.039 -0.2313  0.7555  0.7779
  159SAPE   C2517748   5.796   1.083   7.142 -0.4252  0.7677  0.0099
  159SAPE   H5R17749   5.713   1.096   7.072  1.7945  1.2533 -2.6084
  159SAPE   C2617750   5.785   1.126   7.267  0.8806 -0.6024 -0.1578
  159SAPE   H6R17751   5.689   1.171   7.297  0.2379 -0.2075 -2.6891
  159SAPE   C2717752   5.881   1.118   7.385 -0.2923  0.1336  0.3644
  159SAPE   H7R17753   5.981   1.083   7.353 -0.2486 -1.0297  1.7386
  159SAPE   H7S17754   5.836   1.042   7.452 -0.6801 -0.3192 -0.4035
  159SAPE   C2817755   5.903   1.239   7.473 -0.4103  0.9257  0.3337
  159SAPE   H8R17756   5.913   1.334   7.418 -0.1164  0.7707  0.1179
  159SAPE   C2917757   5.926   1.251   7.603  0.1261  0.1062 -0.1332
  159SAPE   H9R17758   5.951   1.353   7.633 -0.0976  1.1719 -3.3808
  159SAPE  C21017759   5.943   1.145   7.709  0.3303  0.0120  0.0336
  159SAPE  H10R17760   6.053   1.133   7.724  0.1865  0.9168  2.0195
  159SAPE  H10S17761   5.897   1.053   7.668 -1.2556  0.7501  0.1533
  159SAPE  C21117762   5.891   1.189   7.844  0.1292 -0.6925 -0.3088
  159SAPE  H11R17763   5.850   1.291   7.849  0.8467 -0.4554  0.7591
  159SAPE  C21217764   5.893   1.133   7.964  0.0656 -0.3775 -0.3780
  159SAPE  H12R17765   5.847   1.183   8.050 -1.5330 -0.3510 -1.2242
  159SAPE  C21317766   5.947   0.991   7.982 -0.2255 -0.3642 -0.0230
  159SAPE  H13R17767   6.046   0.991   7.931  0.9018 -0.0539  2.1413
  159SAPE  H13S17768   5.887   0.917   7.923 -0.1842 -0.5461  0.1646
  159SAPE  C21417769   5.963   0.932   8.120 -0.1281  0.9307 -0.4490
  159SAPE  H14R17770   6.061   0.962   8.160 -0.3903  4.2145 -2.1420
  159SAPE  C21517771   5.869   0.867   8.188 -0.0725  0.0189 -0.0121
  159SAPE  H15R17772   5.901   0.814   8.279 -0.7186  1.5783  1.1523
  159SAPE  C21617773   5.739   0.828   8.121 -0.8619  0.3611  0.1823
  159SAPE  H16R17774   5.768   0.769   8.032  0.4117  0.1257  0.7450
  159SAPE  H16S17775   5.688   0.918   8.081  0.4399  0.6172 -0.9462
  159SAPE  C21717776   5.655   0.752   8.232 -0.1619  0.7865 -0.2992
  159SAPE  H17R17777   5.627   0.823   8.312  0.1135  2.2177 -1.4437
  159SAPE  H17S17778   5.713   0.669   8.276  0.3365  0.4061 -1.6587
  159SAPE  C21817779   5.521   0.699   8.182 -0.3755  0.4208  0.0731
  159SAPE  H18R17780   5.557   0.612   8.121 -0.9195 -0.5338  1.0993
  159SAPE  H18S17781   5.469   0.771   8.116 -1.2369  0.4068  0.7346
  159SAPE  C21917782   5.429   0.630   8.283 -0.2763  0.1842  0.2102
  159SAPE  H19R17783   5.496   0.592   8.364 -0.0785 -2.8931 -1.3152
  159SAPE  H19S17784   5.371   0.557   8.223 -0.6215 -0.0113  0.7806
  159SAPE  C22017785   5.312   0.725   8.334 -0.7948  0.2512  0.3313
  159SAPE  H20R17786   5.236   0.660   8.382  0.0700 -0.2715  1.0042
  159SAPE  H20S17787   5.263   0.775   8.248  1.0286  0.7326 -0.4535
  159SAPE  H20T17788   5.356   0.805   8.396 -1.3271  0.2772  0.6746
  159SAPE   C3317789   6.715   0.872   6.935 -0.0456  0.9597 -0.0623
  159SAPE   H3X17790   6.673   0.808   7.015 -3.1891 -0.7753 -3.0019
  159SAPE   H3Y17791   6.722   0.972   6.983 -0.3699  1.5222 -1.1697
  159SAPE   C3417792   6.850   0.835   6.887  0.2674 -0.6588  0.5685
  159SAPE   H4X17793   6.888   0.922   6.830  1.2235 -0.4921  1.4440
  159SAPE   H4Y17794   6.851   0.745   6.822 -1.9066  1.0722 -1.9310
  159SAPE   C3517795   6.939   0.803   7.009  0.6886  0.2329  0.5639
  159SAPE   H5X17796   6.924   0.886   7.081  2.9677  0.4839  0.7937
  159SAPE   H5Y17797   7.046   0.812   6.980  0.5616  0.8435  0.2942
  159SAPE   C3617798   6.912   0.664   7.072  0.5002  0.6563 -0.2214
  159SAPE   H6X17799   6.927   0.581   7.000 -0.1095  0.2747  0.0962
  159SAPE   H6Y17800   6.804   0.663   7.098  1.1801  1.5339  2.7604
  159SAPE   C3717801   7.012   0.637   7.188  1.1138 -0.0323  0.3467
  159SAPE   H7X17802   6.997   0.703   7.276 -1.6058 -2.3079  1.6523
  159SAPE   H7Y17803   7.115   0.656   7.151 -0.3317  1.0107 -3.3244
  159SAPE   C3817804   7.004   0.495   7.232 -0.5574 -0.0434  0.5400
  159SAPE   H8X17805   7.044   0.439   7.145  1.5589  0.1244  1.3730
  159SAPE   H8Y17806   6.900   0.459   7.249  0.6070 -3.7805  0.1269
  159SAPE   C3917807   7.087   0.459   7.359 -0.4576  0.1664  1.4594
  159SAPE   H9X17808   7.191   0.500   7.360  0.2033 -1.0958 -2.8918
  159SAPE   H9Y17809   7.101   0.349   7.369  2.7100  0.2006 -1.3434
  159SAPE  C31017810   7.018   0.507   7.487  0.3967 -0.4935  0.6582
  159SAPE  H10X17811   6.925   0.446   7.489 -1.6408  2.4516  0.4045
  159SAPE  H10Y17812   6.989   0.614   7.475 -0.9161 -0.8962  0.0726
  159SAPE  C31117813   7.101   0.502   7.612  0.3806 -0.2912  0.2513
  159SAPE  H11X17814   7.201   0.546   7.589  1.2759 -1.1774  2.2767
  159SAPE  H11Y17815   7.119   0.395   7.635  0.1657 -0.1890  0.9193
  159SAPE  C31217816   7.045   0.570   7.737  1.0408 -0.3133 -0.3210
  159SAPE  H12X17817   7.013   0.675   7.718  3.2569  0.2640 -1.0030
  159SAPE  H12Y17818   7.128   0.568   7.811 -0.4248 -0.0634  1.3805
  159SAPE  C31317819   6.919   0.498   7.799 -0.1283  0.0057 -0.3072
  159SAPE  H13X17820   6.923   0.394   7.762  0.5538  0.6304 -2.0319
  159SAPE  H13Y17821   6.825   0.543   7.763 -0.0706 -0.8439 -1.5397
  159SAPE  C31417822   6.910   0.491   7.954 -0.0554  0.4059  0.4225
  159SAPE  H14X17823   6.828   0.421   7.980 -0.1331 -0.5725 -2.2507
  159SAPE  H14Y17824   6.886   0.592   7.994 -1.4178  0.2187  0.1058
  159SAPE  C31517825   7.038   0.445   8.025  0.2162  0.3892  0.3695
  159SAPE  H15X17826   7.111   0.529   8.023  0.4296  0.2884  2.6411
  159SAPE  H15Y17827   7.075   0.360   7.963  2.8974 -0.2676  2.7447
  159SAPE  C31617828   7.024   0.391   8.170 -0.6943  0.2861 -0.0860
  159SAPE  H16X17829   6.971   0.293   8.172  0.0979 -0.1713 -0.9890
  159SAPE  H16Y17830   6.961   0.457   8.232 -0.0749 -0.7009  1.6229
  159SAPE  C31717831   7.150   0.388   8.256  0.1864 -0.1965 -0.3539
  159SAPE  H17X17832   7.234   0.360   8.189  2.1718  0.7166  1.6770
  159SAPE  H17Y17833   7.146   0.309   8.335 -1.8208  0.4355  0.2198
  159SAPE  C31817834   7.174   0.520   8.337 -0.1073  0.0055  0.4894
  159SAPE  H18X17835   7.183   0.607   8.269  0.6849  0.1171  0.7360
  159SAPE  H18Y17836   7.261   0.510   8.405 -0.7980 -2.1908  1.1066
  159SAPE  H18Z17837   7.084   0.538   8.400  0.2152  1.1887  0.6333
  160SAPE     N17838   0.108   0.068   6.388 -0.4603  0.5710 -0.2665
  160SAPE   HN117839   0.139  -0.023   6.351  0.7801  0.5444  0.7823
  160SAPE   HN217840   0.005   0.067   6.408 -0.3774 -0.8952  0.1162
  160SAPE   HN317841   0.126   0.146   6.321 -0.5847  0.6521 -0.2089
  160SAPE   C1217842   0.173   0.086   6.521 -0.1412  0.9013  0.0242
  160SAPE  H12A17843   0.153   0.188   6.559  1.8793  0.4896  2.3477
  160SAPE  H12B17844   0.284   0.081   6.522 -0.1321  1.2921  1.5378
  160SAPE   C1117845   0.127  -0.030   6.611 -0.6295  0.3176 -0.0040
  160SAPE  H11A17846   0.017  -0.030   6.625 -1.0290 -0.4940 -2.7629
  160SAPE  H11B17847   0.169  -0.021   6.713  0.2737  1.4105 -0.4512
  160SAPE     P17848   0.096  -0.283   6.603 -0.0501  0.1625 -0.2382
  160SAPE   O1317849  -0.005  -0.315   6.503  0.1268 -0.0984  0.0634
  160SAPE   O1417850   0.206  -0.381   6.627 -0.1783  0.2783  0.1771
  160SAPE   O1217851   0.161  -0.152   6.551 -0.4706 -0.5016  0.1120
  160SAPE   O1117852   0.028  -0.243   6.737  0.1809  0.5705  0.1134
  160SAPE    C117853   0.052  -0.337   6.843  0.1968 -0.3105 -0.4450
  160SAPE    HA17854   0.159  -0.352   6.869 -0.2767 -1.3623  0.9958
  160SAPE    HB17855   0.011  -0.289   6.935 -2.5331 -0.4221 -1.5473
  160SAPE    C217856  -0.019  -0.470   6.818  0.2666  0.6414 -0.9708
  160SAPE    HS17857   0.029  -0.528   6.736 -0.5190  2.0217 -2.4291
  160SAPE   O2117858  -0.158  -0.445   6.787 -0.0732 -0.7706  0.6391
  160SAPE   C2117859  -0.244  -0.540   6.757 -0.1001 -0.2630  0.1955
  160SAPE   O2217860  -0.220  -0.661   6.750 -0.1092  0.0184  0.0699
  160SAPE   C2217861  -0.387  -0.482   6.746 -0.2116 -0.3638  0.1131
  160SAPE   H2R17862  -0.398  -0.389   6.805 -1.8767  0.2525 -1.1003
  160SAPE   H2S17863  -0.392  -0.456   6.638  1.5240 -1.9375 -0.3786
  160SAPE    C317864  -0.003  -0.564   6.937  0.5127 -0.0626  0.2791
  160SAPE    HX17865   0.102  -0.598   6.941  0.6145  0.2963  0.8342
  160SAPE    HY17866  -0.063  -0.658   6.940  0.0124  0.2778  1.2878
  160SAPE   O3117867  -0.038  -0.491   7.052  0.4930 -0.0773 -0.3131
  160SAPE   C3117868   0.008  -0.545   7.165  0.8899  0.2051 -0.7056
  160SAPE   O3217869   0.054  -0.657   7.173  0.0420 -0.2968 -0.4688
  160SAPE   C3217870  -0.007  -0.448   7.287  0.2010  0.0562 -0.0048
  160SAPE   H2X17871  -0.116  -0.440   7.310  0.9974  2.1580  3.4453
  160SAPE   H2Y17872   0.030  -0.353   7.244  3.7414 -0.8343  0.9795
  160SAPE   C2317873  -0.500  -0.588   6.772 -0.5010  0.6165  0.1672
  160SAPE   H3R17874  -0.483  -0.672   6.701 -1.7401 -1.4843  2.2930
  160SAPE   H3S17875  -0.600  -0.545   6.752 -0.3896  0.8607  0.1319
  160SAPE   C2417876  -0.496  -0.646   6.916  0.3156  1.0407  0.0996
  160SAPE   H4R17877  -0.394  -0.690   6.926  0.1125  0.8821  1.5631
  160SAPE   H4S17878  -0.560  -0.736   6.926  1.6771 -0.0001 -0.4156
  160SAPE   C2517879  -0.535  -0.545   7.019  0.0348 -0.0538  0.0065
  160SAPE   H5R17880  -0.542  -0.445   6.973  1.8005  0.1759  0.2260
  160SAPE   C2617881  -0.538  -0.556   7.153 -0.1290  0.7442 -0.4001
  160SAPE   H6R17882  -0.572  -0.463   7.200  1.6131  2.0099 -1.5877
  160SAPE   C2717883  -0.502  -0.675   7.244 -0.1192 -0.7057 -0.0717
  160SAPE   H7R17884  -0.489  -0.767   7.184 -0.2027 -0.1554 -0.9421
  160SAPE   H7S17885  -0.594  -0.695   7.303 -0.4037  0.9482  0.0830
  160SAPE   C2817886  -0.378  -0.652   7.329  0.0612  0.1813  0.6018
  160SAPE   H8R17887  -0.286  -0.696   7.287 -1.1689 -1.5588 -0.3003
  160SAPE   C2917888  -0.363  -0.588   7.446  0.2536 -0.5440  0.2382
  160SAPE   H9R17889  -0.264  -0.581   7.494  0.5546  2.3984 -0.6551
  160SAPE  C21017890  -0.470  -0.515   7.516 -0.1962 -0.1535  0.2707
  160SAPE  H10R17891  -0.447  -0.517   7.625  1.7757  1.4549 -0.0788
  160SAPE  H10S17892  -0.570  -0.562   7.515 -0.3675  0.1823  1.2368
  160SAPE  C21117893  -0.480  -0.367   7.482 -0.6182 -0.4045  0.1454
  160SAPE  H11R17894  -0.391  -0.303   7.487 -0.9541  0.0230  0.7528
  160SAPE  C21217895  -0.594  -0.302   7.451 -0.5477  0.5666  0.1465
  160SAPE  H12R17896  -0.590  -0.201   7.408  0.9610 -0.8951 -3.2466
  160SAPE  C21317897  -0.733  -0.360   7.448  0.2156  0.1013 -0.7673
  160SAPE  H13R17898  -0.761  -0.389   7.552  0.8280  1.3075 -0.2468
  160SAPE  H13S17899  -0.729  -0.451   7.386  0.1853 -0.7708  0.4876
  160SAPE  C21417900  -0.831  -0.265   7.383 -0.3559 -0.3343 -0.3403
  160SAPE  H14R17901  -0.805  -0.234   7.281 -0.9390 -0.3550 -0.4950
  160SAPE  C21517902  -0.935  -0.209   7.445  0.1165 -0.3318 -0.4802
  160SAPE  H15R17903  -1.009  -0.151   7.388 -1.2583 -0.5627  1.0328
  160SAPE  C21617904  -0.977  -0.243   7.586 -0.0218 -0.2532  0.1212
  160SAPE  H16R17905  -0.990  -0.352   7.602 -0.8954  0.1802  2.5134
  160SAPE  H16S17906  -1.074  -0.197   7.612 -0.3109 -0.7292 -0.1139
  160SAPE  C21717907  -0.900  -0.209   7.715  0.7692 -0.0608  0.1680
  160SAPE  H17R17908  -0.891  -0.099   7.725 -1.6657 -0.0582  2.9385
  160SAPE  H17S17909  -0.795  -0.245   7.705 -0.3599 -3.4029 -0.5166
  160SAPE  C21817910  -0.957  -0.272   7.843 -0.2444  0.4384  0.0742
  160SAPE  H18R17911  -0.878  -0.277   7.921 -0.0517 -3.2113 -0.2916
  160SAPE  H18S17912  -0.984  -0.377   7.821  2.5038 -0.1181 -0.8332
  160SAPE  C21917913  -1.076  -0.192   7.896 -0.7329  0.1753 -0.3061
  160SAPE  H19R17914  -1.155  -0.161   7.824 -1.2326 -0.1966  0.0777
  160SAPE  H19S17915  -1.045  -0.089   7.923  0.2931 -0.5164  1.2003
  160SAPE  C22017916  -1.142  -0.259   8.016 -0.3385 -0.5186 -0.2321
  160SAPE  H20R17917  -1.217  -0.188   8.057  0.8966 -0.2843  1.6900
  160SAPE  H20S17918  -1.062  -0.266   8.093  0.4787  0.0955 -1.0208
  160SAPE  H20T17919  -1.179  -0.360   7.990 -0.5680 -0.1095 -1.5286
  160SAPE   C3317920   0.067  -0.508   7.407  0.4344  0.0439 -0.1327
  160SAPE   H3X17921   0.170  -0.541   7.379 -0.0801 -1.6811 -0.0508
  160SAPE   H3Y17922   0.011  -0.603   7.423 -0.0225  0.0274 -1.7069
  160SAPE   C3417923   0.062  -0.417   7.526  0.0631 -0.3664 -0.0865
  160SAPE   H4X17924  -0.044  -0.383   7.537 -0.3583 -0.9091 -2.3230
  160SAPE   H4Y17925   0.127  -0.333   7.495  2.0063 -2.4034 -1.7360
  160SAPE   C3517926   0.122  -0.479   7.660  0.3812 -0.3289 -0.3215
  160SAPE   H5X17927   0.232  -0.497   7.655 -0.1114 -3.7154  0.0658
  160SAPE   H5Y17928   0.058  -0.568   7.674  0.2048 -0.4376 -1.7693
  160SAPE   C3617929   0.089  -0.388   7.778  0.4837 -0.0161 -0.3401
  160SAPE   H6X17930  -0.018  -0.396   7.808  0.7236 -0.9025  0.3011
  160SAPE   H6Y17931   0.122  -0.284   7.758  2.0151 -0.2751  0.7570
  160SAPE   C3717932   0.170  -0.441   7.899  0.6350 -0.0344  0.9584
  160SAPE   H7X17933   0.276  -0.432   7.869  0.3517  3.7455  0.8343
  160SAPE   H7Y17934   0.140  -0.548   7.911 -0.6065  0.5110  2.9038
  160SAPE   C3817935   0.144  -0.371   8.035  0.0309 -0.0130  0.3837
  160SAPE   H8X17936   0.044  -0.393   8.078  1.0086 -0.1238  2.6586
  160SAPE   H8Y17937   0.141  -0.261   8.018  1.9974  0.1560  1.0278
  160SAPE   C3917938   0.247  -0.390   8.136  0.0753 -0.2134 -0.1068
  160SAPE   H9X17939   0.232  -0.311   8.212 -1.3196 -0.4931 -0.0739
  160SAPE   H9Y17940   0.349  -0.378   8.092  0.9861 -1.7871  1.4840
  160SAPE  C31017941   0.226  -0.529   8.209  0.1466  0.6306  0.8736
  160SAPE  H10X17942   0.319  -0.568   8.254  0.3637  1.6593  1.3425
  160SAPE  H10Y17943   0.197  -0.606   8.134  0.3060  0.6905  0.7495
  160SAPE  C31117944   0.125  -0.530   8.322  0.0770  0.3018  0.7068
  160SAPE  H11X17945   0.130  -0.428   8.367 -0.6451  0.0810  1.2914
  160SAPE  H11Y17946   0.153  -0.603   8.401 -0.6064  0.2892  0.9382
  160SAPE  C31217947  -0.016  -0.570   8.280  0.4917  0.3836 -0.4019
  160SAPE  H12X17948  -0.003  -0.651   8.205  1.7607  0.3533 -0.1542
  160SAPE  H12Y17949  -0.063  -0.480   8.233  1.8560  0.5679 -1.4485
  160SAPE  C31317950  -0.118  -0.608   8.394  0.3442  0.8708  0.1218
  160SAPE  H13X17951  -0.219  -0.613   8.347  1.2977  1.4032 -2.0081
  160SAPE  H13Y17952  -0.139  -0.525   8.465  1.0538  1.0281  0.1461
  160SAPE  C31417953  -0.086  -0.737   8.470 -0.4476 -0.0604 -0.0871
  160SAPE  H14X17954  -0.158  -0.758   8.552 -0.3668 -0.7498 -0.1915
  160SAPE  H14Y17955   0.014  -0.743   8.518 -0.8988  1.2830  1.0634
  160SAPE  C31517956  -0.103  -0.857   8.376  0.6455  0.3041 -0.0111
  160SAPE  H15X17957  -0.013  -0.866   8.312  0.2590 -0.3364 -0.4667
  160SAPE  H15Y17958  -0.189  -0.837   8.308  0.5337  0.3351  0.1386
  160SAPE  C31617959  -0.116  -0.991   8.460 -0.4411  0.0291 -0.2597
  160SAPE  H16X17960  -0.220  -0.976   8.495 -0.5691  1.7620 -1.2660
  160SAPE  H16Y17961  -0.049  -0.988   8.548  1.1014 -0.8192 -1.3732
  160SAPE  C31717962  -0.099  -1.118   8.381 -0.3985  0.4663  0.7963
  160SAPE  H17X17963  -0.146  -1.118   8.281 -0.2146 -0.4017  0.7054
  160SAPE  H17Y17964  -0.152  -1.199   8.437  2.5875 -0.7195  2.0119
  160SAPE  C31817965   0.051  -1.159   8.387  0.1562 -0.4842  0.4588
  160SAPE  H18X17966   0.080  -1.244   8.322 -1.4295 -0.2285 -0.5988
  160SAPE  H18Y17967   0.083  -1.188   8.489  0.0231 -0.0318  0.6305
  160SAPE  H18Z17968   0.115  -1.072   8.362  1.8278 -1.8652 -0.1892
  161SOPE     N17969   5.531   2.410  10.535  0.0383  0.2378 -0.0505
  161SOPE   HN117970   5.588   2.497  10.534 -1.0510  0.9836  1.5415
  161SOPE   HN217971   5.595   2.328  10.529  0.5810  0.7690 -1.9788
  161SOPE   HN317972   5.478   2.409  10.445  0.5168  1.2484 -0.3492
  161SOPE   C1217973   5.438   2.403  10.655  0.6611  0.0659 -0.0460
  161SOPE  H12A17974   5.416   2.510  10.678  0.2827 -0.1390  0.5465
  161SOPE  H12B17975   5.497   2.352  10.734  0.2133  1.5603  1.2871
  161SOPE   C1117976   5.314   2.331  10.615 -0.3229 -0.7935  0.7276
  161SOPE  H11A17977   5.257   2.399  10.548  1.4828  0.7127  0.6850
  161SOPE  H11B17978   5.255   2.311  10.708  1.2476  3.5912  2.7909
  161SOPE     P17979   5.375   2.070  10.616 -0.0394  0.1140 -0.2375
  161SOPE   O1317980   5.237   2.030  10.654 -0.1993  0.2628  0.5739
  161SOPE   O1417981   5.472   2.088  10.727 -0.5419  0.1822 -0.5262
  161SOPE   O1217982   5.353   2.207  10.549 -0.4140  0.1008  0.1298
  161SOPE   O1117983   5.430   1.970  10.509 -0.3120  0.1448  0.4677
  161SOPE    C117984   5.368   1.981  10.380 -0.7893  0.0881  0.1481
  161SOPE    HA17985   5.287   2.057  10.376 -0.8807 -0.0010  0.2896
  161SOPE    HB17986   5.319   1.887  10.350  1.6928 -1.4082  0.6145
  161SOPE    C217987   5.474   2.037  10.279 -0.2919 -0.3225 -0.5218
  161SOPE    HS17988   5.507   2.139  10.307  0.8247 -0.3465 -1.6784
  161SOPE   O2117989   5.434   2.035  10.137  0.1863  0.2484 -0.3727
  161SOPE   C2117990   5.342   2.119  10.096 -0.3437  0.2731 -0.0369
  161SOPE   O2217991   5.281   2.196  10.170  0.3896  0.2204  0.1265
  161SOPE   C2217992   5.341   2.111   9.942  0.4738 -0.4273 -0.0663
  161SOPE   H2R17993   5.266   2.038   9.906  1.2639  0.7400 -4.3470
  161SOPE   H2S17994   5.436   2.076   9.899  0.1072 -1.1373 -0.2982
  161SOPE    C317995   5.602   1.949  10.292 -0.0840 -0.9572  0.9388
  161SOPE    HX17996   5.557   1.848  10.295 -0.4965 -1.0622 -3.8378
  161SOPE    HY17997   5.633   1.980  10.394 -0.8897  0.0580  0.8906
  161SOPE   O3117998   5.698   1.967  10.180 -0.3073  0.0114 -0.1582
  161SOPE   C3117999   5.757   2.089  10.178 -0.4393 -0.4022 -0.2497
  161SOPE   O3218000   5.737   2.185  10.258 -0.2715  0.6700 -0.0517
  161SOPE   C3218001   5.862   2.102  10.068  0.0587  0.5123  0.5665
  161SOPE   H2X18002   5.942   2.027  10.086 -0.2477  0.6850  2.7152
  161SOPE   H2Y18003   5.899   2.206  10.076  2.7276 -0.1501 -2.1685
  161SOPE   C2318004   5.287   2.245   9.871 -0.0093  0.1843  0.3197
  161SOPE   H3R18005   5.330   2.321   9.940 -1.4636  0.5946  0.7994
  161SOPE   H3S18006   5.176   2.250   9.860 -0.1526 -0.1159  1.6032
  161SOPE   C2418007   5.361   2.270   9.732  0.1156  0.9462  0.1525
  161SOPE   H4R18008   5.333   2.371   9.694 -0.6767 -0.0636 -2.0287
  161SOPE   H4S18009   5.467   2.249   9.757  0.1687 -1.0515 -1.6867
  161SOPE   C2518010   5.314   2.176   9.621  0.1997 -0.4386  0.2148
  161SOPE   H5R18011   5.374   2.204   9.532 -1.6902  0.6101 -0.7723
  161SOPE   H5S18012   5.337   2.071   9.650  0.2963 -0.9289 -1.5666
  161SOPE   C2618013   5.170   2.185   9.566 -0.4556  0.1059 -0.0215
  161SOPE   H6R18014   5.096   2.198   9.648 -1.6528 -0.7207 -0.9516
  161SOPE   H6S18015   5.162   2.280   9.508  0.6869 -0.7834 -1.6859
  161SOPE   C2718016   5.132   2.067   9.467  0.1555 -0.4910  0.0928
  161SOPE   H7R18017   5.043   2.092   9.406  0.3935  1.7314  0.5911
  161SOPE   H7S18018   5.212   2.071   9.391  0.8171 -2.7223  0.6392
  161SOPE   C2818019   5.094   1.937   9.548  0.8820  0.3652 -0.0241
  161SOPE   H8R18020   5.083   1.865   9.464  1.1328  1.1993 -0.7773
  161SOPE   H8S18021   5.179   1.897   9.607 -0.8303 -1.8858  1.0434
  161SOPE   C2918022   4.972   1.970   9.635  0.5640 -0.3761  0.1880
  161SOPE   H9118023   4.993   2.023   9.730  0.4473  0.9650 -0.5285
  161SOPE  C21018024   4.844   1.927   9.605  0.8035  0.2708 -0.0824
  161SOPE  H10118025   4.763   1.955   9.674  1.7923  0.6052  0.9693
  161SOPE  C21118026   4.787   1.836   9.499  0.8608 -0.3052 -0.0455
  161SOPE  H11R18027   4.826   1.732   9.507  0.6345 -0.4138 -0.3168
  161SOPE  H11S18028   4.818   1.878   9.401  0.7510  0.1775  0.1255
  161SOPE  C21218029   4.634   1.826   9.499  0.3650 -0.0872 -0.5416
  161SOPE  H12R18030   4.583   1.925   9.503 -0.7220 -0.6624  0.2589
  161SOPE  H12S18031   4.602   1.780   9.595 -2.8250  1.8563 -0.6044
  161SOPE  C21318032   4.584   1.731   9.384  0.0903 -0.0354  0.5073
  161SOPE  H13R18033   4.630   1.630   9.395  0.3179 -0.0386 -0.4149
  161SOPE  H13S18034   4.619   1.774   9.287  0.1585 -2.0741 -0.3912
  161SOPE  C21418035   4.429   1.715   9.366 -0.3839  0.4809  0.3673
  161SOPE  H14R18036   4.379   1.734   9.464  3.2862  0.4410  2.3437
  161SOPE  H14S18037   4.404   1.612   9.334  0.8507 -0.3234  1.8943
  161SOPE  C21518038   4.384   1.807   9.252 -0.0077  0.0766  0.8663
  161SOPE  H15R18039   4.434   1.771   9.159 -0.4198  3.1830 -0.6249
  161SOPE  H15S18040   4.420   1.912   9.261  1.2339 -0.2633  0.0935
  161SOPE  C21618041   4.230   1.805   9.224 -0.4368 -0.5589  0.1759
  161SOPE  H16R18042   4.180   1.864   9.304 -2.4663 -1.1132 -0.6625
  161SOPE  H16S18043   4.183   1.705   9.229 -0.9779 -0.3943 -1.2449
  161SOPE  C21718044   4.182   1.883   9.099  0.4142 -0.1392  0.1985
  161SOPE  H17R18045   4.215   1.824   9.011 -0.6653 -0.8506  0.2655
  161SOPE  H17S18046   4.234   1.982   9.097 -1.6741  1.0232  1.2717
  161SOPE  C21818047   4.028   1.913   9.094 -0.1310 -0.3813 -0.1044
  161SOPE  H18R18048   3.964   1.822   9.083  0.5742 -1.1803  2.1746
  161SOPE  H18S18049   4.000   1.978   9.009 -0.5256  0.2310  0.4889
  161SOPE  H18T18050   3.993   1.951   9.192 -0.6030  1.3390 -0.9186
  161SOPE   C3318051   5.787   2.085   9.931 -0.2416 -0.1410  0.5439
  161SOPE   H3X18052   5.710   2.164   9.920  1.3441  1.1947 -1.3807
  161SOPE   H3Y18053   5.745   1.982   9.927  2.5607 -1.3037 -0.3575
  161SOPE   C3418054   5.887   2.106   9.814  0.0169  0.2738 -0.0693
  161SOPE   H4X18055   5.962   2.024   9.810  0.1447  0.4640 -2.2307
  161SOPE   H4Y18056   5.953   2.194   9.829  0.2083 -0.0891  1.2697
  161SOPE   C3518057   5.810   2.120   9.685  0.1492 -0.2335 -0.4370
  161SOPE   H5X18058   5.755   2.215   9.706 -0.8134 -1.2749  1.9402
  161SOPE   H5Y18059   5.736   2.038   9.678 -0.7839  0.2873  2.4987
  161SOPE   C3618060   5.897   2.131   9.560  0.0737  0.5411 -0.0024
  161SOPE   H6X18061   5.944   2.032   9.542 -2.0215 -0.4745 -0.0412
  161SOPE   H6Y18062   5.984   2.200   9.573 -1.1584  2.3724 -1.3690
  161SOPE   C3718063   5.816   2.184   9.439  0.1449 -0.2727  0.9236
  161SOPE   H7X18064   5.891   2.211   9.362 -1.3132  0.9825 -0.0828
  161SOPE   H7Y18065   5.752   2.268   9.473 -1.8399 -1.7048  0.7874
  161SOPE   C3818066   5.729   2.077   9.381 -0.5067 -0.6522 -0.0972
  161SOPE   H8X18067   5.673   2.012   9.451  1.3604 -3.4881 -1.1415
  161SOPE   H8Y18068   5.798   2.004   9.333  1.6186 -0.0740  2.0071
  161SOPE   C3918069   5.640   2.124   9.263  1.1081 -0.3122  0.1514
  161SOPE   H9X18070   5.701   2.174   9.185 -0.2159 -0.7731 -1.1972
  161SOPE   H9Y18071   5.559   2.189   9.303  0.5296 -1.7561  1.3940
  161SOPE  C31018072   5.582   2.001   9.187  0.1960 -0.1523 -0.3824
  161SOPE  H10X18073   5.487   1.977   9.239 -0.5476  1.2768 -1.0717
  161SOPE  H10Y18074   5.656   1.918   9.194 -1.0863 -1.1725  1.4987
  161SOPE  C31118075   5.547   2.023   9.032 -0.0355  0.1711 -0.5767
  161SOPE  H11X18076   5.511   1.926   8.990  0.1180  0.1787 -0.7276
  161SOPE  H11Y18077   5.641   2.035   8.975  0.4476  1.6759  0.5171
  161SOPE  C31218078   5.440   2.120   8.998 -0.1047 -0.1753 -0.1108
  161SOPE  H12X18079   5.452   2.207   9.066  2.2878 -0.0547 -0.6580
  161SOPE  H12Y18080   5.333   2.089   9.002 -0.3646  0.3636 -2.3212
  161SOPE  C31318081   5.461   2.172   8.853  0.2245  0.8663  0.1488
  161SOPE  H13X18082   5.436   2.093   8.780  0.6014 -0.7323  1.7069
  161SOPE  H13Y18083   5.570   2.195   8.845  0.1452  0.9081 -0.8682
  161SOPE  C31418084   5.388   2.300   8.825  0.6956 -0.1138 -0.7887
  161SOPE  H14X18085   5.446   2.348   8.743 -0.7734 -1.9570 -2.9557
  161SOPE  H14Y18086   5.391   2.369   8.912  0.9249  0.1222 -0.9820
  161SOPE  C31518087   5.251   2.284   8.763 -0.2911  0.0428  0.3070
  161SOPE  H15X18088   5.204   2.187   8.790  1.8006 -0.7856  1.1490
  161SOPE  H15Y18089   5.274   2.280   8.655 -0.1856 -1.6406  0.3797
  161SOPE  C31618090   5.155   2.400   8.812 -0.2197 -0.0844  0.6793
  161SOPE  H16X18091   5.078   2.405   8.732 -0.1337  0.6233  0.6375
  161SOPE  H16Y18092   5.214   2.494   8.811  0.9854 -0.8434 -1.2045
  161SOPE  C31718093   5.089   2.378   8.949 -0.3918  0.2641  0.7463
  161SOPE  H17X18094   5.153   2.353   9.036  0.7554  2.3195  0.5269
  161SOPE  H17Y18095   5.027   2.287   8.933  1.7538 -1.4579  1.8406
  161SOPE  C31818096   4.988   2.481   8.995 -0.2679  0.3820  0.2860
  161SOPE  H18X18097   5.034   2.582   8.996 -0.1375  0.3487 -0.9746
  161SOPE  H18Y18098   4.949   2.445   9.093 -0.9672 -0.3053 -0.2360
  161SOPE  H18Z18099   4.910   2.502   8.918  0.2323 -0.0636 -0.3387
  162SOPE     N18100   4.434   1.791  10.907  0.1500  0.4188  0.0353
  162SOPE   HN118101   4.504   1.799  10.983  0.4138 -1.5066  0.0135
  162SOPE   HN218102   4.341   1.796  10.953 -0.1389  2.8369 -0.7598
  162SOPE   HN318103   4.448   1.698  10.861 -2.0427  0.2389 -0.3136
  162SOPE   C1218104   4.432   1.884  10.792 -0.2548 -0.7005 -0.3778
  162SOPE  H12A18105   4.530   1.874  10.740  0.2683  0.9014  0.2588
  162SOPE  H12B18106   4.426   1.991  10.823 -1.4454 -0.7970 -0.2542
  162SOPE   C1118107   4.306   1.856  10.709  0.3955 -0.2878 -1.0848
  162SOPE  H11A18108   4.319   1.770  10.639 -1.5383 -0.6315 -1.0435
  162SOPE  H11B18109   4.287   1.936  10.635 -3.9155  0.4436  0.6583
  162SOPE     P18110   4.083   1.949  10.821 -0.5250  0.0700  0.0053
  162SOPE   O1318111   4.155   2.075  10.829  0.3940 -0.1537  0.3981
  162SOPE   O1418112   4.001   1.911  10.939 -0.0768 -0.8089 -0.1656
  162SOPE   O1218113   4.187   1.833  10.793  0.1626 -0.1786 -0.6134
  162SOPE   O1118114   3.996   1.951  10.693  0.8265  0.5875  0.3047
  162SOPE    C118115   3.971   1.843  10.611  0.1002 -0.0789  0.2034
  162SOPE    HA18116   3.948   1.748  10.665  0.3831 -0.1979  0.1165
  162SOPE    HB18117   4.064   1.815  10.556 -0.3606  1.8305 -1.5924
  162SOPE    C218118   3.853   1.862  10.514  0.0041 -0.3881  0.0502
  162SOPE    HS18119   3.823   1.765  10.471  0.2976 -0.4299 -0.0580
  162SOPE   O2118120   3.885   1.954  10.404 -0.1982 -0.1632 -0.3192
  162SOPE   C2118121   3.936   1.893  10.299 -0.5162  0.0584 -0.4106
  162SOPE   O2218122   3.950   1.772  10.285  0.1431  0.1792  1.0034
  162SOPE   C2218123   3.978   1.993  10.200  0.3341  0.1808  0.1009
  162SOPE   H2R18124   4.015   1.931  10.116  1.4343  0.4683  0.3627
  162SOPE   H2S18125   4.073   2.041  10.233  1.0788 -1.0601 -0.2036
  162SOPE    C318126   3.732   1.919  10.598 -0.2482  0.0790 -0.1098
  162SOPE    HX18127   3.754   2.018  10.644  0.5593 -0.0754 -0.1612
  162SOPE    HY18128   3.714   1.859  10.689 -0.2440  1.4356  0.8077
  162SOPE   O3118129   3.611   1.905  10.523 -0.0538  0.1865  0.0350
  162SOPE   C3118130   3.585   2.010  10.445 -0.4693 -0.0848  0.4337
  162SOPE   O3218131   3.643   2.118  10.448  0.0972  0.0181  0.1788
  162SOPE   C3218132   3.465   1.984  10.344  0.4718 -0.6046  0.3583
  162SOPE   H2X18133   3.382   2.027  10.403  0.5451 -1.8401  1.3873
  162SOPE   H2Y18134   3.438   1.876  10.335 -0.5245 -0.4257  1.1157
  162SOPE   C2318135   3.863   2.081  10.155  0.1025 -0.2567 -1.2637
  162SOPE   H3R18136   3.820   2.129  10.246  0.2277 -2.6888  0.1080
  162SOPE   H3S18137   3.787   2.020  10.103 -0.4593 -0.8268  0.2233
  162SOPE   C2418138   3.900   2.177  10.048  0.3365  0.0890  0.2690
  162SOPE   H4R18139   3.988   2.237  10.080  1.1306 -0.4537 -0.8232
  162SOPE   H4S18140   3.939   2.136   9.952 -0.6346  0.1571 -0.1623
  162SOPE   C2518141   3.786   2.276  10.027  0.2309 -0.5551  0.2596
  162SOPE   H5R18142   3.692   2.234   9.986 -1.2904  2.2352  0.8355
  162SOPE   H5S18143   3.773   2.332  10.122 -0.4007 -2.1706  1.1596
  162SOPE   C2618144   3.812   2.395   9.930 -0.3211  0.1660 -1.1043
  162SOPE   H6R18145   3.725   2.464   9.935  2.0156  3.1389 -0.0397
  162SOPE   H6S18146   3.898   2.453   9.971 -0.6130  0.1249 -0.4336
  162SOPE   C2718147   3.851   2.369   9.785  0.1618 -0.1715 -0.7737
  162SOPE   H7R18148   3.919   2.282   9.771  2.0547  0.9707  1.0494
  162SOPE   H7S18149   3.750   2.338   9.750 -1.1250  0.9899  1.7930
  162SOPE   C2818150   3.925   2.489   9.711 -0.2047  0.3155  0.3042
  162SOPE   H8R18151   3.935   2.458   9.605  2.2884  1.8744  0.0416
  162SOPE   H8S18152   3.856   2.576   9.715  1.4156  1.7612 -2.1882
  162SOPE   C2918153   4.060   2.530   9.770 -0.0247  0.1806 -0.6148
  162SOPE   H9118154   4.060   2.593   9.860 -0.0821  0.0225 -0.5042
  162SOPE  C21018155   4.184   2.509   9.716  0.3200 -0.0256  0.6444
  162SOPE  H10118156   4.275   2.553   9.758 -0.8528  2.4118  0.6906
  162SOPE  C21118157   4.219   2.440   9.587  0.1173 -0.2051 -0.1224
  162SOPE  H11R18158   4.153   2.351   9.593 -1.9176  1.1013 -1.9628
  162SOPE  H11S18159   4.324   2.407   9.579  0.9209  2.2140 -0.0778
  162SOPE  C21218160   4.170   2.517   9.463 -0.3045  0.4784  0.1732
  162SOPE  H12R18161   4.211   2.620   9.474  0.8846 -0.1495  1.8752
  162SOPE  H12S18162   4.060   2.523   9.472 -0.3346 -0.1096  0.2383
  162SOPE  C21318163   4.218   2.461   9.325 -0.0099 -0.8255  0.1705
  162SOPE  H13R18164   4.200   2.352   9.331  2.1144 -1.4933 -3.5579
  162SOPE  H13S18165   4.324   2.490   9.314 -0.3007 -0.0579 -0.6948
  162SOPE  C21418166   4.141   2.509   9.200  0.1880  0.6475 -0.1668
  162SOPE  H14R18167   4.143   2.620   9.192  0.1898  0.5714 -1.2351
  162SOPE  H14S18168   4.036   2.477   9.217  1.5708 -4.4215 -0.5998
  162SOPE  C21518169   4.186   2.434   9.079 -0.1885  0.8149 -0.2686
  162SOPE  H15R18170   4.158   2.326   9.078  1.2028  0.3104  4.1318
  162SOPE  H15S18171   4.297   2.427   9.080 -0.1039  1.0961 -3.1762
  162SOPE  C21618172   4.123   2.487   8.954 -0.1131  0.1941  0.0206
  162SOPE  H16R18173   4.163   2.590   8.946  0.4871 -0.1140 -0.9958
  162SOPE  H16S18174   4.013   2.496   8.958 -0.3480 -2.4113  0.2505
  162SOPE  C21718175   4.167   2.412   8.830  0.8664 -0.0275  0.2775
  162SOPE  H17R18176   4.136   2.307   8.846  0.1498 -0.0733 -1.3597
  162SOPE  H17S18177   4.277   2.424   8.813  1.0880 -1.5013  0.6014
  162SOPE  C21818178   4.098   2.459   8.703 -0.7154  0.1587 -0.0669
  162SOPE  H18R18179   3.992   2.483   8.730 -0.2083  0.1874  2.0324
  162SOPE  H18S18180   4.098   2.374   8.632  1.5120  1.3698 -1.5763
  162SOPE  H18T18181   4.154   2.550   8.672  1.0671 -0.7432  0.4559
  162SOPE   C3318182   3.493   2.054  10.211  0.2489 -0.0053  0.2508
  162SOPE   H3X18183   3.578   2.006  10.157 -0.9828 -0.5910 -1.2021
  162SOPE   H3Y18184   3.527   2.159  10.225 -2.3720  0.9257  0.0255
  162SOPE   C3418185   3.366   2.052  10.127 -0.0054 -0.3372  0.2448
  162SOPE   H4X18186   3.353   1.943  10.111 -1.3904 -0.3222  1.2244
  162SOPE   H4Y18187   3.385   2.101  10.029  3.2876 -0.4488  0.7747
  162SOPE   C3518188   3.246   2.112  10.191 -0.3430 -0.3952 -0.0417
  162SOPE   H5X18189   3.276   2.218  10.210 -2.7942  0.4543 -0.7711
  162SOPE   H5Y18190   3.216   2.067  10.288 -0.7079  1.2066  0.6014
  162SOPE   C3618191   3.128   2.105  10.096 -0.5595  0.1373  0.1311
  162SOPE   H6X18192   3.038   2.119  10.159 -0.7765 -3.0586  0.6350
  162SOPE   H6Y18193   3.132   2.008  10.042 -0.7645 -0.0078  0.3751
  162SOPE   C3718194   3.122   2.222   9.993  0.6647 -0.3882  0.5047
  162SOPE   H7X18195   3.222   2.246   9.950  1.1685 -0.3937  1.6528
  162SOPE   H7Y18196   3.089   2.313  10.049 -3.4748 -2.0476  0.8719
  162SOPE   C3818197   3.027   2.195   9.877 -0.3722 -0.5092  0.8433
  162SOPE   H8X18198   3.007   2.292   9.826 -0.5179 -0.7295  0.4869
  162SOPE   H8Y18199   2.934   2.150   9.918 -2.3008  1.8342 -0.8486
  162SOPE   C3918200   3.083   2.122   9.762  0.1882 -0.0159  0.2852
  162SOPE   H9X18201   3.112   2.020   9.797 -0.4706  0.7760  3.2966
  162SOPE   H9Y18202   3.176   2.167   9.720  0.1976  0.7808  1.1368
  162SOPE  C31018203   2.999   2.100   9.636 -0.0729  0.3090 -0.5684
  162SOPE  H10X18204   3.065   2.067   9.553 -0.8445 -0.8633 -0.7244
  162SOPE  H10Y18205   2.962   2.200   9.603  0.7245  0.5806 -0.6375
  162SOPE  C31118206   2.872   2.005   9.638  0.4408 -0.3077  0.1274
  162SOPE  H11X18207   2.794   2.061   9.695  0.4127  0.7995 -0.9763
  162SOPE  H11Y18208   2.910   1.918   9.697  0.0486  0.8061  2.0715
  162SOPE  C31218209   2.805   1.972   9.506 -0.3784  0.4012  0.4163
  162SOPE  H12X18210   2.777   2.067   9.456  1.3914  1.4154  1.3072
  162SOPE  H12Y18211   2.715   1.915   9.535 -1.4487  1.9163  0.1559
  162SOPE  C31318212   2.906   1.884   9.429  0.3874  0.5337 -0.2105
  162SOPE  H13X18213   2.937   1.789   9.477 -3.0849 -0.2424  0.6534
  162SOPE  H13Y18214   2.990   1.951   9.401  2.5025 -1.2039  1.7863
  162SOPE  C31418215   2.829   1.829   9.307  1.1054  0.0312 -0.4348
  162SOPE  H14X18216   2.732   1.779   9.328  0.5511  0.9914 -0.6983
  162SOPE  H14Y18217   2.897   1.753   9.263  0.2359 -0.8240 -0.3245
  162SOPE  C31518218   2.796   1.934   9.200 -0.0889  0.6792  0.1706
  162SOPE  H15X18219   2.883   2.003   9.191 -1.5105  2.6595  1.0689
  162SOPE  H15Y18220   2.706   1.992   9.232 -2.2893 -2.3896 -0.2396
  162SOPE  C31618221   2.763   1.881   9.064  0.0218  0.2954 -0.2571
  162SOPE  H16X18222   2.665   1.829   9.062  0.3317 -0.2608 -1.6686
  162SOPE  H16Y18223   2.838   1.806   9.029 -0.4763 -1.5742  2.4909
  162SOPE  C31718224   2.761   1.997   8.965  0.0545  0.4408 -0.0738
  162SOPE  H17X18225   2.865   2.036   8.968  0.3383  0.0184 -3.2463
  162SOPE  H17Y18226   2.688   2.080   8.979 -0.5157 -0.1289  0.3682
  162SOPE  C31818227   2.741   1.954   8.819 -0.4672 -0.2801  0.7780
  162SOPE  H18X18228   2.634   1.931   8.804 -0.3412  0.5581 -1.7695
  162SOPE  H18Y18229   2.795   1.859   8.800 -0.7944 -0.2562 -0.3458
  162SOPE  H18Z18230   2.777   2.031   8.747 -4.4399  0.1881 -0.8558
  163SOPE     N18231   4.480   6.361  11.073 -0.1392  0.1644 -0.1095
  163SOPE   HN118232   4.532   6.356  11.163 -2.1789 -1.1166  1.0365
  163SOPE   HN218233   4.386   6.395  11.103  1.8325  2.1819  4.2760
  163SOPE   HN318234   4.487   6.264  11.036  3.5855 -0.0132  0.8917
  163SOPE   C1218235   4.535   6.445  10.966  0.6492  0.5223 -0.4159
  163SOPE  H12A18236   4.626   6.391  10.933 -1.1115 -2.6052 -0.3918
  163SOPE  H12B18237   4.561   6.546  11.004 -1.3104 -0.4345  3.7109
  163SOPE   C1118238   4.437   6.458  10.853 -0.6601 -0.9515 -0.1261
  163SOPE  H11A18239   4.431   6.373  10.782  1.0091 -0.8310 -0.4438
  163SOPE  H11B18240   4.471   6.539  10.784  1.5212 -0.5585  1.3490
  163SOPE     P18241   4.260   6.642  10.924 -0.3133 -0.0940 -0.3604
  163SOPE   O1318242   4.361   6.716  10.998 -0.4099  0.3888  0.6577
  163SOPE   O1418243   4.115   6.652  10.969 -0.1716 -0.0184 -0.0298
  163SOPE   O1218244   4.293   6.489  10.904  0.3007 -0.0308  0.0975
  163SOPE   O1118245   4.259   6.690  10.770  0.6627  0.4517 -0.1111
  163SOPE    C118246   4.158   6.630  10.689  0.5845  0.9573  0.0831
  163SOPE    HA18247   4.085   6.711  10.665 -0.4398 -0.8184 -3.0255
  163SOPE    HB18248   4.107   6.542  10.733 -3.4747  2.3359 -1.6229
  163SOPE    C218249   4.213   6.576  10.557 -0.0813 -0.9587  0.4350
  163SOPE    HS18250   4.300   6.514  10.589 -1.6286 -3.8542 -0.7992
  163SOPE   O2118251   4.244   6.690  10.477 -0.2868  0.2862 -0.5422
  163SOPE   C2118252   4.348   6.672  10.403  0.1226 -0.1788 -0.1659
  163SOPE   O2218253   4.416   6.574  10.395  0.2154 -0.3343  0.2594
  163SOPE   C2218254   4.346   6.790  10.304  0.3945  0.2209 -0.2196
  163SOPE   H2R18255   4.343   6.878  10.372 -0.6189 -0.2368  0.3454
  163SOPE   H2S18256   4.248   6.797  10.253  0.0005 -1.6674  0.2501
  163SOPE    C318257   4.112   6.484  10.478 -0.6116 -0.1014  0.5077
  163SOPE    HX18258   4.017   6.538  10.456  0.0834  0.0540 -2.2534
  163SOPE    HY18259   4.071   6.405  10.544  0.4148 -0.7678  0.3616
  163SOPE   O3118260   4.166   6.429  10.352 -0.8903  0.3789  0.9162
  163SOPE   C3118261   4.245   6.322  10.374  0.0453 -0.6674  0.6224
  163SOPE   O3218262   4.253   6.270  10.483  0.2796 -0.2619  0.5866
  163SOPE   C3218263   4.329   6.288  10.250 -0.3940 -0.0207  0.1941
  163SOPE   H2X18264   4.315   6.180  10.228  2.8396 -0.6296  0.8535
  163SOPE   H2Y18265   4.435   6.302  10.281 -1.0093  0.5970  2.1038
  163SOPE   C2318266   4.464   6.790  10.197  0.5779 -0.0935 -0.3095
  163SOPE   H3R18267   4.446   6.706  10.127 -0.1969 -0.4163  0.2813
  163SOPE   H3S18268   4.563   6.776  10.246 -0.3621 -0.1818  1.5929
  163SOPE   C2418269   4.475   6.927  10.122 -0.1041 -0.0262 -0.0897
  163SOPE   H4R18270   4.476   7.010  10.196 -0.6211 -0.9188  0.9191
  163SOPE   H4S18271   4.577   6.920  10.076  0.0991  0.3598  0.2975
  163SOPE   C2518272   4.364   6.951  10.024 -0.0252  0.3910  0.5646
  163SOPE   H5R18273   4.271   6.975  10.080 -0.6479 -3.3157  1.2746
  163SOPE   H5S18274   4.397   7.043   9.971 -1.3374  0.5148 -0.0543
  163SOPE   C2618275   4.332   6.844   9.914  0.2508 -0.2841 -0.1980
  163SOPE   H6R18276   4.430   6.816   9.870 -0.3455 -1.2116 -0.9631
  163SOPE   H6S18277   4.297   6.748   9.957 -1.6265  0.8913  0.9733
  163SOPE   C2718278   4.250   6.879   9.791 -0.1826 -0.0870 -0.6927
  163SOPE   H7R18279   4.226   6.786   9.735  0.7960 -0.2091 -0.9217
  163SOPE   H7S18280   4.156   6.919   9.835  0.0582  0.1754 -0.4165
  163SOPE   C2818281   4.325   6.978   9.696 -0.0765  0.4161 -0.4722
  163SOPE   H8R18282   4.341   7.073   9.752  1.1743  0.9944 -1.7514
  163SOPE   H8S18283   4.427   6.934   9.688  0.0511  0.9172 -1.7817
  163SOPE   C2918284   4.269   6.998   9.557  0.3498 -0.0204  0.8427
  163SOPE   H9118285   4.166   7.036   9.553  0.0581 -0.8996 -0.4654
  163SOPE  C21018286   4.315   6.971   9.437 -0.4515  0.0673 -0.1389
  163SOPE  H10118287   4.254   7.012   9.355 -1.2944  0.3346  0.6122
  163SOPE  C21118288   4.445   6.906   9.397  0.1625  0.9379 -0.5559
  163SOPE  H11R18289   4.509   6.894   9.488  0.4838  0.8189 -0.7974
  163SOPE  H11S18290   4.506   6.958   9.320  0.5402  1.3373  0.0087
  163SOPE  C21218291   4.417   6.759   9.343  0.0651  0.2784  0.0272
  163SOPE  H12R18292   4.349   6.709   9.416  0.3220 -1.4096 -0.8418
  163SOPE  H12S18293   4.510   6.698   9.345  1.1711  1.9302 -0.0610
  163SOPE  C21318294   4.350   6.753   9.204  0.6371 -0.3146  0.0295
  163SOPE  H13R18295   4.268   6.827   9.214  0.3159 -0.6174 -0.3097
  163SOPE  H13S18296   4.308   6.651   9.185  1.1213 -0.5869  0.4270
  163SOPE  C21418297   4.441   6.792   9.091 -0.4085 -0.1267  0.3580
  163SOPE  H14R18298   4.500   6.882   9.116  0.1003  0.1803 -1.8725
  163SOPE  H14S18299   4.379   6.811   9.001  3.0118 -1.2933 -2.3519
  163SOPE  C21518300   4.548   6.688   9.051  0.2994 -0.0787  0.5575
  163SOPE  H15R18301   4.507   6.585   9.043 -1.1222  0.4510  0.8323
  163SOPE  H15S18302   4.627   6.695   9.129  0.0215  0.2003  0.8216
  163SOPE  C21618303   4.616   6.709   8.915  0.0168  0.0250  0.5919
  163SOPE  H16R18304   4.560   6.774   8.845 -0.1525 -0.2802  0.4419
  163SOPE  H16S18305   4.657   6.625   8.853 -2.2783 -1.0777  0.5276
  163SOPE  C21718306   4.743   6.793   8.932  0.3549  0.0429 -0.7727
  163SOPE  H17R18307   4.809   6.707   8.957  0.3069  0.0856 -0.5017
  163SOPE  H17S18308   4.746   6.864   9.018 -1.3981  0.3855 -0.9892
  163SOPE  C21818309   4.794   6.849   8.802 -0.5496 -0.6570  0.8337
  163SOPE  H18R18310   4.874   6.925   8.812 -0.1286 -1.4905  4.7795
  163SOPE  H18S18311   4.707   6.892   8.748 -0.8924  1.0105  2.6348
  163SOPE  H18T18312   4.852   6.777   8.740  2.3634  2.4241 -0.2048
  163SOPE   C3318313   4.292   6.365  10.114  0.6814  0.4387 -0.1580
  163SOPE   H3X18314   4.336   6.466  10.121  1.6909 -0.0321  0.4731
  163SOPE   H3Y18315   4.184   6.372  10.091  0.3204  0.1645  1.3464
  163SOPE   C3418316   4.350   6.291   9.990  0.3937 -0.5624 -0.5014
  163SOPE   H4X18317   4.303   6.191  10.005 -0.2338 -0.2438 -0.3401
  163SOPE   H4Y18318   4.461   6.288   9.992  0.5392  3.1229  0.7617
  163SOPE   C3518319   4.288   6.326   9.852  0.0258 -0.3445 -0.1318
  163SOPE   H5X18320   4.177   6.333   9.857  0.1065  0.4924  0.5823
  163SOPE   H5Y18321   4.299   6.233   9.792 -0.8805 -0.6046  0.1040
  163SOPE   C3618322   4.337   6.450   9.782  0.4831 -0.8447  0.0656
  163SOPE   H6X18323   4.392   6.515   9.854 -0.9929  2.7938 -1.9380
  163SOPE   H6Y18324   4.254   6.515   9.746  0.9562  0.1120  0.6843
  163SOPE   C3718325   4.422   6.418   9.653  0.4722  0.3492 -0.5627
  163SOPE   H7X18326   4.495   6.340   9.683 -0.8092 -0.7179 -0.2009
  163SOPE   H7Y18327   4.488   6.506   9.633 -1.0660  1.7007  0.2510
  163SOPE   C3818328   4.318   6.391   9.541  0.2558 -0.2345  0.1116
  163SOPE   H8X18329   4.291   6.489   9.495 -3.2238 -0.2041  2.0988
  163SOPE   H8Y18330   4.229   6.337   9.578  0.1044 -0.3438 -0.4010
  163SOPE   C3918331   4.382   6.307   9.435 -0.9896  0.1808  0.0281
  163SOPE   H9X18332   4.305   6.277   9.361 -0.1247  0.5453 -1.0245
  163SOPE   H9Y18333   4.417   6.213   9.482 -1.3103  0.6004  1.1204
  163SOPE  C31018334   4.507   6.370   9.366  0.5493  0.3724 -0.9092
  163SOPE  H10X18335   4.588   6.391   9.439  1.0118 -1.3323 -0.8946
  163SOPE  H10Y18336   4.478   6.463   9.314 -1.5798  1.0188  1.3567
  163SOPE  C31118337   4.563   6.267   9.262  0.1008  0.6472  0.0306
  163SOPE  H11X18338   4.576   6.173   9.318 -0.8095 -0.0863 -0.9540
  163SOPE  H11Y18339   4.663   6.306   9.234  0.8376 -0.5292  0.9692
  163SOPE  C31218340   4.490   6.260   9.132 -0.2211 -0.4589  0.3560
  163SOPE  H12X18341   4.478   6.365   9.099 -0.1380 -0.2084  1.1134
  163SOPE  H12Y18342   4.387   6.223   9.150 -1.1473  1.2631 -1.2033
  163SOPE  C31318343   4.554   6.175   9.022  0.0957 -0.3371  0.4129
  163SOPE  H13X18344   4.537   6.067   9.043 -0.1839 -0.5686 -0.9571
  163SOPE  H13Y18345   4.664   6.190   9.034 -0.3299  1.1402  2.7037
  163SOPE  C31418346   4.523   6.230   8.880  0.6241  0.2535  0.1975
  163SOPE  H14X18347   4.425   6.282   8.884 -1.5221 -3.6251  0.7542
  163SOPE  H14Y18348   4.515   6.146   8.808 -0.7702  0.5177  0.0387
  163SOPE  C31518349   4.624   6.339   8.830  0.2088 -0.0546 -0.0473
  163SOPE  H15X18350   4.720   6.286   8.817  1.4293  2.3369 -1.0697
  163SOPE  H15Y18351   4.643   6.426   8.897  0.8860 -0.9069  0.8748
  163SOPE  C31618352   4.596   6.388   8.682  0.4225  0.1223  0.2488
  163SOPE  H16X18353   4.516   6.464   8.694 -1.2890 -1.8837  1.8365
  163SOPE  H16Y18354   4.565   6.302   8.619 -0.3508 -0.2010  1.0580
  163SOPE  C31718355   4.715   6.460   8.619 -0.2176 -0.1296  0.0759
  163SOPE  H17X18356   4.801   6.390   8.633  2.3957  2.6068 -1.4984
  163SOPE  H17Y18357   4.742   6.548   8.681  2.2282  0.1662 -1.3225
  163SOPE  C31818358   4.702   6.509   8.477 -0.0243  0.0732  0.1664
  163SOPE  H18X18359   4.729   6.432   8.401 -0.9169 -0.2351  0.1642
  163SOPE  H18Y18360   4.751   6.607   8.460  0.5810 -0.3216 -0.4100
  163SOPE  H18Z18361   4.598   6.539   8.454 -0.0446  1.4843  1.9779
  164SOPE     N18362   6.773   4.170  10.756 -0.0167  0.4162 -0.4002
  164SOPE   HN118363   6.733   4.240  10.690 -0.0871 -0.5792 -1.4113
  164SOPE   HN218364   6.701   4.102  10.787  0.6354 -1.2734 -2.5411
  164SOPE   HN318365   6.805   4.220  10.842  0.0295 -0.3924  0.0542
  164SOPE   C1218366   6.891   4.104  10.692  0.2639  0.3148  0.3110
  164SOPE  H12A18367   6.859   4.077  10.590  0.2511 -1.6323  0.8127
  164SOPE  H12B18368   6.916   4.015  10.754 -0.4170 -0.9254 -1.1646
  164SOPE   C1118369   7.012   4.193  10.673  0.4569 -0.2790 -0.4205
  164SOPE  H11A18370   6.985   4.283  10.614  0.6065 -0.0814 -0.1862
  164SOPE  H11B18371   7.084   4.132  10.615 -1.2475 -1.5222 -1.2782
  164SOPE     P18372   7.195   4.327  10.806 -0.0536  0.2267  0.3565
  164SOPE   O1318373   7.283   4.293  10.918 -0.3500 -0.1217 -0.0584
  164SOPE   O1418374   7.152   4.469  10.802 -0.6449  0.1807  0.1088
  164SOPE   O1218375   7.062   4.229  10.809 -0.6608  0.1654  0.2920
  164SOPE   O1118376   7.271   4.299  10.666 -0.3623  0.1039  0.3890
  164SOPE    C118377   7.384   4.210  10.676  0.1055 -0.3968  0.4034
  164SOPE    HA18378   7.375   4.123  10.744 -0.4746 -0.0460  0.7718
  164SOPE    HB18379   7.463   4.274  10.721  0.5922 -0.3355 -0.5122
  164SOPE    C218380   7.438   4.174  10.535 -0.5862 -0.2379 -0.0917
  164SOPE    HS18381   7.536   4.124  10.546  0.3340  1.6163  0.3561
  164SOPE   O2118382   7.456   4.292  10.464 -0.2639 -0.5762 -0.2116
  164SOPE   C2118383   7.553   4.370  10.477 -0.0826 -0.4417  0.5123
  164SOPE   O2218384   7.624   4.382  10.576  0.1619  0.6675  0.6662
  164SOPE   C2218385   7.565   4.462  10.352  0.3393 -0.8312 -0.0590
  164SOPE   H2R18386   7.476   4.527  10.363  1.4034  0.0931  3.6263
  164SOPE   H2S18387   7.554   4.403  10.258 -1.0825  1.6120 -1.4660
  164SOPE    C318388   7.345   4.086  10.454  0.4328  0.1510 -0.6817
  164SOPE    HX18389   7.241   4.126  10.458  0.4233  0.0644  0.1642
  164SOPE    HY18390   7.338   3.986  10.502 -0.0016  1.1802  1.4675
  164SOPE   O3118391   7.389   4.079  10.320  0.1208 -0.3972  0.2341
  164SOPE   C3118392   7.317   4.134  10.224 -0.0963  0.0534 -0.3979
  164SOPE   O3218393   7.218   4.195  10.237  0.1492 -0.3936 -0.4153
  164SOPE   C3218394   7.383   4.106  10.088  0.1564  0.2993  0.0402
  164SOPE   H2X18395   7.312   4.053  10.021 -0.6557 -0.0500  1.1715
  164SOPE   H2Y18396   7.474   4.044  10.102  0.0190  0.4942  1.8527
  164SOPE   C2318397   7.701   4.541  10.352 -0.0584  0.7496 -0.2705
  164SOPE   H3R18398   7.774   4.457  10.352 -0.3683  0.4778  0.0948
  164SOPE   H3S18399   7.723   4.590  10.449 -1.0705 -0.7376  0.7380
  164SOPE   C2418400   7.740   4.630  10.228  0.0034  0.4515  0.3794
  164SOPE   H4R18401   7.667   4.714  10.224  0.0988  0.5080 -0.2777
  164SOPE   H4S18402   7.843   4.670  10.235  0.6300 -0.9906 -0.5177
  164SOPE   C2518403   7.730   4.550  10.097  0.5735  0.4640  0.2767
  164SOPE   H5R18404   7.794   4.458  10.096 -0.6029 -0.3630 -0.9592
  164SOPE   H5S18405   7.625   4.514  10.090  1.0960 -0.6850 -2.3470
  164SOPE   C2618406   7.754   4.634   9.963  0.4154  0.5892  0.4021
  164SOPE   H6R18407   7.696   4.728   9.966  1.1351  1.1707 -2.7194
  164SOPE   H6S18408   7.858   4.672   9.963  0.3275  0.8590 -1.5478
  164SOPE   C2718409   7.724   4.552   9.839  0.1617 -0.6594 -0.4055
  164SOPE   H7R18410   7.648   4.479   9.871 -2.0044  0.2861 -3.1600
  164SOPE   H7S18411   7.674   4.613   9.761  0.2467  1.2293  0.9725
  164SOPE   C2818412   7.848   4.487   9.773 -0.1677  0.5718  0.1752
  164SOPE   H8R18413   7.882   4.424   9.858  0.9399 -0.2391 -0.8369
  164SOPE   H8S18414   7.811   4.418   9.694  1.3335  1.8670 -1.6960
  164SOPE   C2918415   7.957   4.580   9.718  0.0244  0.1413  0.0251
  164SOPE   H9118416   8.047   4.580   9.782 -0.0386  0.1208  0.1154
  164SOPE  C21018417   7.961   4.637   9.597  0.0287  0.2076  0.1430
  164SOPE  H10118418   8.036   4.715   9.576 -0.9781  0.5750 -2.2835
  164SOPE  C21118419   7.847   4.627   9.494  0.6690  0.4047  0.4954
  164SOPE  H11R18420   7.752   4.632   9.553  0.0792  1.5689 -0.5213
  164SOPE  H11S18421   7.845   4.534   9.434 -1.9032  1.9666 -1.9949
  164SOPE  C21218422   7.825   4.747   9.385  0.1393 -0.2050  0.1667
  164SOPE  H12R18423   7.803   4.839   9.442 -1.6835 -0.2757 -0.3875
  164SOPE  H12S18424   7.738   4.722   9.320 -0.1074  3.8812 -1.2225
  164SOPE  C21318425   7.942   4.770   9.284 -0.0685 -0.5362  0.1321
  164SOPE  H13R18426   8.042   4.780   9.332 -0.6283  0.6343  1.0742
  164SOPE  H13S18427   7.925   4.859   9.219  0.2740  0.4262  1.3591
  164SOPE  C21418428   7.956   4.653   9.189  0.0813 -0.9094  0.4466
  164SOPE  H14R18429   7.858   4.604   9.173  0.0813 -1.1529  1.1614
  164SOPE  H14S18430   8.017   4.574   9.237 -0.6509 -1.7993 -0.0823
  164SOPE  C21518431   8.022   4.693   9.054  0.2323  0.0848 -1.1057
  164SOPE  H15R18432   8.118   4.729   9.097  0.5675 -1.9733 -0.0731
  164SOPE  H15S18433   7.962   4.770   9.002 -0.5360 -0.4931 -1.0753
  164SOPE  C21618434   8.044   4.572   8.964  0.4995  0.2345 -0.1023
  164SOPE  H16R18435   7.945   4.529   8.939 -0.0156  0.8821  0.7852
  164SOPE  H16S18436   8.102   4.492   9.013  0.7584  0.7569  0.4469
  164SOPE  C21718437   8.112   4.618   8.834 -0.1253  0.5717  0.2077
  164SOPE  H17R18438   8.202   4.671   8.871 -0.6392  1.3753  0.3219
  164SOPE  H17S18439   8.047   4.686   8.775  0.8507  0.6484 -0.7906
  164SOPE  C21818440   8.157   4.501   8.749  0.2614  0.4371 -0.6770
  164SOPE  H18R18441   8.249   4.457   8.791 -0.5260  1.0069  1.7123
  164SOPE  H18S18442   8.177   4.527   8.643  0.8237 -3.6423 -1.6467
  164SOPE  H18T18443   8.075   4.426   8.751 -0.7738  1.5654  1.0253
  164SOPE   C3318444   7.418   4.243  10.020  0.1490 -0.6030  0.3491
  164SOPE   H3X18445   7.521   4.280  10.039 -0.5554  0.6570  1.8161
  164SOPE   H3Y18446   7.353   4.323  10.062  0.7186  0.4273 -0.7021
  164SOPE   C3418447   7.395   4.229   9.864 -0.1867  0.1640 -0.2596
  164SOPE   H4X18448   7.375   4.331   9.824  2.4018  1.1012  0.7333
  164SOPE   H4Y18449   7.303   4.173   9.837  0.1283  0.4898 -2.0895
  164SOPE   C3518450   7.513   4.158   9.806 -0.0524 -0.2057  0.0501
  164SOPE   H5X18451   7.495   4.050   9.826  0.9000 -0.3621  0.0693
  164SOPE   H5Y18452   7.608   4.196   9.849  0.5615 -1.7181  0.0858
  164SOPE   C3618453   7.516   4.176   9.651  0.1187 -0.0567  0.3832
  164SOPE   H6X18454   7.497   4.284   9.635  0.5935 -0.1297 -0.7777
  164SOPE   H6Y18455   7.431   4.116   9.614  1.0994 -0.3497 -1.5000
  164SOPE   C3718456   7.646   4.135   9.578 -0.7388 -0.0590 -0.0223
  164SOPE   H7X18457   7.645   4.024   9.566 -2.2216  0.2098 -2.7537
  164SOPE   H7Y18458   7.737   4.160   9.637  0.5424 -3.4218 -0.4231
  164SOPE   C3818459   7.667   4.202   9.446 -0.1187 -0.0903 -0.2666
  164SOPE   H8X18460   7.760   4.162   9.399  0.2445  0.0589  0.3173
  164SOPE   H8Y18461   7.685   4.311   9.457  4.0089 -0.8054  1.2992
  164SOPE   C3918462   7.552   4.184   9.345  0.8137  0.3347  0.1596
  164SOPE   H9X18463   7.472   4.247   9.389 -0.9699  0.2780 -2.8578
  164SOPE   H9Y18464   7.511   4.081   9.356 -2.0412  1.7335  3.6470
  164SOPE  C31018465   7.574   4.219   9.198 -0.4619 -0.0121 -0.0090
  164SOPE  H10X18466   7.662   4.165   9.158 -0.8068  0.3874 -1.3348
  164SOPE  H10Y18467   7.616   4.321   9.189 -0.6866  0.2080  1.3064
  164SOPE  C31118468   7.448   4.197   9.111 -0.2912  0.1175 -0.3453
  164SOPE  H11X18469   7.480   4.164   9.010  1.8633 -2.6760  1.1896
  164SOPE  H11Y18470   7.387   4.290   9.105  0.3924  0.6859  1.1742
  164SOPE  C31218471   7.350   4.088   9.157 -0.0826 -0.1852  0.0375
  164SOPE  H12X18472   7.296   4.119   9.248  0.5445  0.0294  0.3436
  164SOPE  H12Y18473   7.421   4.009   9.188  1.3818  1.4854  1.0479
  164SOPE  C31318474   7.251   4.041   9.050 -0.1216 -0.0785  0.0943
  164SOPE  H13X18475   7.311   4.033   8.957 -1.0013  0.5697 -0.5377
  164SOPE  H13Y18476   7.171   4.117   9.037 -0.8126 -0.6018  1.2564
  164SOPE  C31418477   7.208   3.896   9.072  0.3438 -0.0035 -0.5669
  164SOPE  H14X18478   7.151   3.876   9.165 -0.6306 -1.5931 -1.4820
  164SOPE  H14Y18479   7.300   3.834   9.081  0.4200  0.3200  1.0530
  164SOPE  C31518480   7.126   3.857   8.949  0.1097  0.0882 -0.1340
  164SOPE  H15X18481   7.181   3.896   8.861 -0.3479  1.2306  0.0668
  164SOPE  H15Y18482   7.033   3.918   8.953 -0.4026 -0.7694  1.3881
  164SOPE  C31618483   7.090   3.706   8.938  0.2266  0.1632  0.1084
  164SOPE  H16X18484   7.027   3.667   9.020 -0.0623  2.1465  0.8687
  164SOPE  H16Y18485   7.186   3.651   8.954 -0.0877 -0.3808  0.1165
  164SOPE  C31718486   7.022   3.667   8.808  0.1256 -0.4323 -0.6160
  164SOPE  H17X18487   6.933   3.734   8.811  1.9506  2.0362  0.6900
  164SOPE  H17Y18488   6.980   3.566   8.827  0.1148 -0.4195 -0.5714
  164SOPE  C31818489   7.103   3.692   8.683  0.2134  0.3882  0.1515
  164SOPE  H18X18490   7.050   3.660   8.591  0.8291  2.5686 -0.9931
  164SOPE  H18Y18491   7.204   3.646   8.687  0.9023  1.8891  0.2511
  164SOPE  H18Z18492   7.124   3.801   8.675 -1.3880  0.7878  1.1551
  165SOPE     N18493   5.554   5.537  10.995 -0.5142 -0.8522  0.0781
  165SOPE   HN118494   5.547   5.566  10.895 -1.7548  1.0742  0.6941
  165SOPE   HN218495   5.527   5.625  11.044  2.2499 -0.9492  1.8940
  165SOPE   HN318496   5.652   5.520  11.026 -0.3044 -0.8450 -0.5684
  165SOPE   C1218497   5.472   5.420  11.040 -0.2594 -0.3489 -0.0794
  165SOPE  H12A18498   5.366   5.440  11.013 -0.2039  1.2494  0.8476
  165SOPE  H12B18499   5.499   5.404  11.147  1.4716  3.7604  0.1711
  165SOPE   C1118500   5.525   5.298  10.967 -0.3207  0.5299  0.1557
  165SOPE  H11A18501   5.509   5.320  10.860 -0.4451  0.3533  0.1376
  165SOPE  H11B18502   5.467   5.208  10.996 -1.4330  1.4448  0.8224
  165SOPE     P18503   5.738   5.161  10.929  0.2271  0.1174 -0.4607
  165SOPE   O1318504   5.670   5.042  10.986  0.3197  0.1970  0.1447
  165SOPE   O1418505   5.882   5.174  10.938 -0.2083  0.0606 -0.6027
  165SOPE   O1218506   5.663   5.278  11.004 -0.2746  0.4270 -0.3312
  165SOPE   O1118507   5.679   5.178  10.786 -0.7188  0.0959 -0.2397
  165SOPE    C118508   5.753   5.237  10.675 -0.6635  0.3647 -0.3125
  165SOPE    HA18509   5.810   5.329  10.700  3.8718 -2.1784 -0.8569
  165SOPE    HB18510   5.683   5.290  10.606  0.2021  2.0079  0.0528
  165SOPE    C218511   5.841   5.133  10.605  0.5538 -0.3148  0.5972
  165SOPE    HS18512   5.932   5.101  10.660  1.0186 -1.0826 -0.6054
  165SOPE   O2118513   5.882   5.181  10.481  0.3236 -0.3232  0.0839
  165SOPE   C2118514   5.959   5.291  10.479  0.1353 -0.5001 -0.3975
  165SOPE   O2218515   6.011   5.348  10.573  0.1282  0.2429  0.0519
  165SOPE   C2218516   5.946   5.363  10.342 -0.8556  0.1792 -0.4675
  165SOPE   H2R18517   6.033   5.432  10.340 -0.3676 -0.4505 -1.2406
  165SOPE   H2S18518   5.849   5.415  10.330 -2.3080 -2.8197 -2.3782
  165SOPE    C318519   5.758   5.000  10.589 -0.5508 -0.6477 -0.8370
  165SOPE    HX18520   5.650   5.015  10.567 -1.2052 -0.4782  2.2595
  165SOPE    HY18521   5.756   4.958  10.691 -1.6007 -1.6952 -1.2748
  165SOPE   O3118522   5.824   4.911  10.504 -0.1908 -0.2833  0.0503
  165SOPE   C3118523   5.789   4.931  10.374  0.3344  0.1570 -0.0756
  165SOPE   O3218524   5.705   5.001  10.323 -0.1192 -0.0053  1.1634
  165SOPE   C3218525   5.884   4.840  10.297 -0.6466 -0.7501  1.0877
  165SOPE   H2X18526   5.855   4.737  10.325  1.5558 -0.8208  3.3453
  165SOPE   H2Y18527   5.978   4.880  10.341 -0.1869 -0.9143  0.2490
  165SOPE   C2318528   5.946   5.263  10.223 -0.5128 -0.1204 -0.0436
  165SOPE   H3R18529   5.869   5.186  10.240 -0.3823 -0.0802  0.7306
  165SOPE   H3S18530   6.038   5.202  10.214  0.4476  1.2069  0.5881
  165SOPE   C2418531   5.922   5.342  10.097  0.7626 -0.5255  0.2219
  165SOPE   H4R18532   5.820   5.388  10.095  0.2311 -1.6745 -2.3009
  165SOPE   H4S18533   6.000   5.418  10.074 -1.2977  1.2189 -1.2751
  165SOPE   C2518534   5.931   5.239   9.980 -0.3142 -0.0807 -0.0706
  165SOPE   H5R18535   6.040   5.217   9.968 -0.4072  0.5929 -2.4983
  165SOPE   H5S18536   5.876   5.145  10.002  2.0429 -1.7118 -0.8221
  165SOPE   C2618537   5.885   5.303   9.850  0.7431  0.3537  0.8982
  165SOPE   H6R18538   5.775   5.315   9.841  0.7843  0.4572  0.5408
  165SOPE   H6S18539   5.915   5.410   9.847 -2.2230  1.2028 -2.6624
  165SOPE   C2718540   5.923   5.225   9.726  0.1232  0.7396 -0.8532
  165SOPE   H7R18541   6.026   5.185   9.726 -0.4458 -1.0141  3.6980
  165SOPE   H7S18542   5.868   5.129   9.721  0.0536  0.7310  0.0232
  165SOPE   C2818543   5.884   5.301   9.600  0.2106 -0.5526  0.9079
  165SOPE   H8R18544   5.867   5.219   9.526 -2.3072  0.0253  0.7941
  165SOPE   H8S18545   5.786   5.347   9.623 -0.3260 -0.6245 -1.1789
  165SOPE   C2918546   5.996   5.388   9.554  0.0098  0.0294 -0.6468
  165SOPE   H9118547   6.037   5.442   9.641 -1.3441  0.9355 -0.5563
  165SOPE  C21018548   6.037   5.409   9.430  0.1803  0.4879 -0.2727
  165SOPE  H10118549   6.124   5.474   9.416 -0.3129  1.2590  0.2111
  165SOPE  C21118550   5.974   5.346   9.309 -0.0832  0.1775 -0.0802
  165SOPE  H11R18551   5.894   5.413   9.271 -0.4393 -0.1696  0.0507
  165SOPE  H11S18552   5.928   5.247   9.331  2.4222 -0.8784  0.5721
  165SOPE  C21218553   6.078   5.311   9.194 -0.5573  0.6793 -0.0371
  165SOPE  H12R18554   6.038   5.229   9.131  0.5402 -0.9659  1.3891
  165SOPE  H12S18555   6.163   5.264   9.246 -1.3842  0.5255  1.1898
  165SOPE  C21318556   6.115   5.423   9.098 -0.5138 -0.6038  0.2100
  165SOPE  H13R18557   6.163   5.504   9.157 -0.7439  0.0450 -0.4881
  165SOPE  H13S18558   6.021   5.467   9.058 -0.1292  0.5470  0.5476
  165SOPE  C21418559   6.205   5.387   8.983 -0.1029  0.0216  0.9411
  165SOPE  H14R18560   6.173   5.289   8.940  0.2189  1.1734 -2.0150
  165SOPE  H14S18561   6.312   5.372   9.009  0.6359  1.7544 -0.9658
  165SOPE  C21518562   6.186   5.479   8.865  0.7380 -0.1815  0.3767
  165SOPE  H15R18563   6.247   5.570   8.884  1.1217 -0.2872 -0.3211
  165SOPE  H15S18564   6.082   5.517   8.871 -0.1805 -2.3884 -1.1077
  165SOPE  C21618565   6.216   5.413   8.729  0.3220  0.1302 -0.0478
  165SOPE  H16R18566   6.151   5.323   8.718  1.1371 -0.5821  0.8867
  165SOPE  H16S18567   6.320   5.375   8.726 -0.5294 -2.1951 -1.1522
  165SOPE  C21718568   6.208   5.497   8.602  0.0167 -0.1042 -0.3582
  165SOPE  H17R18569   6.103   5.513   8.570 -0.0897 -0.0737  0.0016
  165SOPE  H17S18570   6.254   5.447   8.514 -2.0685  0.9674 -2.1119
  165SOPE  C21818571   6.282   5.632   8.611 -0.0154 -0.8512 -0.2251
  165SOPE  H18R18572   6.391   5.622   8.631 -0.0000  0.8518  0.6933
  165SOPE  H18S18573   6.243   5.694   8.696  1.5664  0.8606 -0.7069
  165SOPE  H18T18574   6.258   5.684   8.516  2.2237  1.7769  0.5687
  165SOPE   C3318575   5.876   4.875  10.146 -0.1638 -0.3023  0.4143
  165SOPE   H3X18576   5.903   4.982  10.136  0.5046 -0.3344  1.8214
  165SOPE   H3Y18577   5.768   4.864  10.122  0.1573  0.2439 -1.3634
  165SOPE   C3418578   5.959   4.790  10.039 -0.4602  0.0381  0.2074
  165SOPE   H4X18579   5.898   4.783   9.947 -0.7627 -1.1812  0.4886
  165SOPE   H4Y18580   5.975   4.684  10.069  3.1895 -0.1066 -1.9886
  165SOPE   C3518581   6.101   4.851  10.014  0.1197 -0.1898  0.1402
  165SOPE   H5X18582   6.175   4.822  10.091 -0.8514 -1.0794  0.7567
  165SOPE   H5Y18583   6.089   4.961  10.002 -1.0253 -0.2811  0.3546
  165SOPE   C3618584   6.164   4.805   9.882 -1.0135  0.2097  0.1141
  165SOPE   H6X18585   6.128   4.701   9.868 -0.0439 -0.2075  0.6529
  165SOPE   H6Y18586   6.274   4.799   9.895 -1.1516 -0.7743  0.9264
  165SOPE   C3718587   6.122   4.889   9.760 -0.1180 -0.8252  0.1133
  165SOPE   H7X18588   6.153   4.993   9.781 -0.4951 -0.6624 -0.1374
  165SOPE   H7Y18589   6.011   4.888   9.752 -0.1232  0.8296 -0.2359
  165SOPE   C3818590   6.181   4.837   9.627  0.2204  0.1036  0.0608
  165SOPE   H8X18591   6.149   4.731   9.622  2.9139 -0.7105 -0.2633
  165SOPE   H8Y18592   6.291   4.842   9.643  0.5192 -0.2372 -1.7066
  165SOPE   C3918593   6.133   4.914   9.500  0.3774  0.1593 -0.6117
  165SOPE   H9X18594   6.140   5.021   9.525 -0.3452 -0.0610  0.5504
  165SOPE   H9Y18595   6.024   4.892   9.502  0.2675  0.7702  2.1798
  165SOPE  C31018596   6.213   4.896   9.371  0.0399 -0.3837  0.3742
  165SOPE  H10X18597   6.233   4.786   9.369  2.1650  0.0005  0.2067
  165SOPE  H10Y18598   6.307   4.954   9.367 -0.9168  1.2344  1.0625
  165SOPE  C31118599   6.131   4.933   9.243  0.1313  0.7690  0.5862
  165SOPE  H11X18600   6.110   5.042   9.244 -1.2751  0.5637 -2.1892
  165SOPE  H11Y18601   6.026   4.895   9.247  0.2363  0.5560  1.3979
  165SOPE  C31218602   6.191   4.886   9.110 -0.0304 -0.3995  0.9056
  165SOPE  H12X18603   6.191   4.776   9.093 -1.8297 -0.5027  1.3869
  165SOPE  H12Y18604   6.296   4.921   9.118 -0.1751  0.1006  0.6185
  165SOPE  C31318605   6.128   4.949   8.983  0.2450  0.5431 -0.4329
  165SOPE  H13X18606   6.130   5.060   8.982 -1.8046  0.6140  0.6580
  165SOPE  H13Y18607   6.021   4.919   8.986  0.3327  0.2712 -0.0324
  165SOPE  C31418608   6.179   4.885   8.853  0.4595 -0.4357  0.1986
  165SOPE  H14X18609   6.165   4.775   8.856 -0.8345 -0.2728  0.3726
  165SOPE  H14Y18610   6.289   4.889   8.843  0.4619 -1.0399  0.0059
  165SOPE  C31518611   6.103   4.939   8.729  0.5446 -0.6352  0.0467
  165SOPE  H15X18612   6.164   4.908   8.642 -0.3300 -1.9058 -0.1252
  165SOPE  H15Y18613   6.087   5.048   8.744  0.0857 -0.4782 -1.5402
  165SOPE  C31618614   5.974   4.862   8.708  0.8319 -0.4164 -0.0650
  165SOPE  H16X18615   5.917   4.863   8.803 -1.7875 -2.8560 -1.5510
  165SOPE  H16Y18616   5.997   4.755   8.688  0.2478 -0.7611  1.0597
  165SOPE  C31718617   5.898   4.921   8.589 -0.1600 -0.0755  0.6325
  165SOPE  H17X18618   5.976   4.970   8.528  1.7193 -0.5981  2.5590
  165SOPE  H17Y18619   5.823   4.990   8.633 -0.3024 -0.4034  0.9080
  165SOPE  C31818620   5.821   4.811   8.521  0.8657  0.7119 -0.3028
  165SOPE  H18X18621   5.893   4.731   8.490  1.3157  0.3677  1.5840
  165SOPE  H18Y18622   5.788   4.850   8.422  2.5600  1.8302 -0.4565
  165SOPE  H18Z18623   5.745   4.775   8.593  2.5318 -1.4207  0.4403
  166SOPE     N18624   2.338   5.499  11.182 -0.0229  0.3175  0.1127
  166SOPE   HN118625   2.435   5.499  11.219  0.9187 -1.8281 -2.2196
  166SOPE   HN218626   2.316   5.599  11.167  0.2173  0.4581  0.7008
  166SOPE   HN318627   2.271   5.473  11.257 -1.6028  0.8709 -1.0679
  166SOPE   C1218628   2.314   5.402  11.070 -0.1257  0.5465 -1.4144
  166SOPE  H12A18629   2.204   5.398  11.056 -0.1385 -1.6535 -0.9894
  166SOPE  H12B18630   2.340   5.299  11.103 -2.0337  0.0133 -1.4976
  166SOPE   C1118631   2.376   5.462  10.945 -0.7694 -0.5495  0.1531
  166SOPE  H11A18632   2.337   5.563  10.919  1.0575  0.0025 -0.4773
  166SOPE  H11B18633   2.344   5.399  10.859  0.5899 -0.0746 -0.7211
  166SOPE     P18634   2.611   5.560  10.879  0.0105 -0.3413  0.2477
  166SOPE   O1318635   2.751   5.522  10.899  0.0636  0.1233 -0.7431
  166SOPE   O1418636   2.574   5.698  10.919 -0.3793 -0.3556 -0.6742
  166SOPE   O1218637   2.515   5.461  10.961  0.3718  0.1670  0.3361
  166SOPE   O1118638   2.570   5.536  10.735  0.7817 -0.2322  0.5353
  166SOPE    C118639   2.663   5.524  10.624 -0.7296  0.0652 -0.5240
  166SOPE    HA18640   2.766   5.498  10.655  0.0961  2.2997 -1.3089
  166SOPE    HB18641   2.670   5.620  10.569  0.4032  0.2268 -0.1105
  166SOPE    C218642   2.629   5.407  10.533  0.3365 -0.0154  0.2839
  166SOPE    HS18643   2.661   5.312  10.582  1.6027  0.5514  0.5935
  166SOPE   O2118644   2.705   5.424  10.412  0.5169  0.1799 -0.2563
  166SOPE   C2118645   2.830   5.384  10.421 -0.8757 -0.1586  0.0317
  166SOPE   O2218646   2.881   5.324  10.512  0.4340  0.1554 -0.8044
  166SOPE   C2218647   2.901   5.412  10.292  0.1462  0.7553  0.3912
  166SOPE   H2R18648   2.869   5.354  10.203  1.1306  1.9641 -0.7781
  166SOPE   H2S18649   3.009   5.391  10.309 -0.3972 -2.9466 -0.3347
  166SOPE    C318650   2.477   5.394  10.501 -1.3598  0.1600 -0.1878
  166SOPE    HX18651   2.451   5.495  10.463  0.8085  1.8999  2.7888
  166SOPE    HY18652   2.415   5.385  10.593 -0.8911  1.3085  0.2416
  166SOPE   O3118653   2.459   5.285  10.410  0.2564 -0.7704  0.8291
  166SOPE   C3118654   2.476   5.163  10.468  0.1292 -0.3766 -0.9233
  166SOPE   O3218655   2.503   5.147  10.588 -0.2448  0.2672 -0.0095
  166SOPE   C3218656   2.451   5.050  10.368 -0.2400  0.6371  0.2720
  166SOPE   H2X18657   2.342   5.039  10.349 -0.1508  0.6628 -0.2705
  166SOPE   H2Y18658   2.506   4.970  10.424  2.6451  3.4536  1.6082
  166SOPE   C2318659   2.888   5.557  10.241  0.3993 -0.2553 -0.0060
  166SOPE   H3R18660   2.921   5.628  10.320 -0.2456  1.2154 -1.0329
  166SOPE   H3S18661   2.784   5.582  10.210  0.1354 -2.4047 -0.9713
  166SOPE   C2418662   2.959   5.592  10.112 -0.1856  0.9236 -0.4313
  166SOPE   H4R18663   3.068   5.578  10.130 -0.2526  1.1805  0.1768
  166SOPE   H4S18664   2.931   5.525  10.027 -0.5337  1.6892 -0.9209
  166SOPE   C2518665   2.954   5.738  10.062 -0.0446  0.7685  0.1952
  166SOPE   H5R18666   2.850   5.750  10.027 -0.9422 -0.5002  2.3441
  166SOPE   H5S18667   2.975   5.806  10.148  2.3860 -0.2983  0.5014
  166SOPE   C2618668   3.050   5.756   9.947  0.2948  0.9115 -0.1113
  166SOPE   H6R18669   3.149   5.762   9.997  0.6371 -4.1253  0.0544
  166SOPE   H6S18670   3.049   5.671   9.876  0.4946  0.8805 -0.0780
  166SOPE   C2718671   3.016   5.893   9.874 -0.4026  0.0450 -0.1024
  166SOPE   H7R18672   2.908   5.912   9.889 -0.4498 -1.2784  1.2779
  166SOPE   H7S18673   3.056   5.980   9.932  0.0659  0.6168 -1.2670
  166SOPE   C2818674   3.048   5.906   9.728  0.1911 -0.5027 -0.0375
  166SOPE   H8R18675   2.985   5.836   9.670  1.7978 -0.2793 -2.1193
  166SOPE   H8S18676   3.018   6.008   9.697  0.6083 -0.8026 -1.4989
  166SOPE   C2918677   3.192   5.878   9.700 -0.4769 -0.4835 -0.5400
  166SOPE   H9118678   3.262   5.908   9.779 -1.1916 -1.5056  0.4976
  166SOPE  C21018679   3.229   5.807   9.593 -0.4724  0.6657  0.0969
  166SOPE  H10118680   3.337   5.788   9.588 -1.0104 -2.8142  0.3748
  166SOPE  C21118681   3.142   5.755   9.475 -0.5859 -0.3290  0.1398
  166SOPE  H11R18682   3.140   5.841   9.405  2.2933 -0.8513 -0.6280
  166SOPE  H11S18683   3.037   5.732   9.505 -0.3501  1.0170  2.1107
  166SOPE  C21218684   3.195   5.625   9.420 -0.3345 -0.0247 -0.0193
  166SOPE  H12R18685   3.185   5.541   9.492  1.3717 -1.0369 -0.9260
  166SOPE  H12S18686   3.305   5.637   9.405  0.1152 -1.2851  2.0998
  166SOPE  C21318687   3.118   5.591   9.290 -0.8087  1.1531  0.0246
  166SOPE  H13R18688   3.129   5.677   9.221 -2.7220 -0.6857 -2.6572
  166SOPE  H13S18689   3.012   5.591   9.323 -1.0730 -0.0317 -0.8017
  166SOPE  C21418690   3.164   5.464   9.220  0.1982  0.3668  0.4332
  166SOPE  H14R18691   3.148   5.373   9.282  0.8205  1.4092  2.1613
  166SOPE  H14S18692   3.274   5.471   9.211  0.0563  1.0554 -0.8500
  166SOPE  C21518693   3.095   5.442   9.080  0.0557 -0.5967  0.6411
  166SOPE  H15R18694   3.113   5.533   9.019 -1.0469  0.8771  2.4613
  166SOPE  H15S18695   2.985   5.442   9.097  0.5290 -0.2446  4.1457
  166SOPE  C21618696   3.148   5.316   9.019  0.5745  0.0762  0.0085
  166SOPE  H16R18697   3.110   5.223   9.066 -0.1846 -0.2513 -1.2402
  166SOPE  H16S18698   3.258   5.313   9.033  0.2497 -2.3956  2.3207
  166SOPE  C21718699   3.104   5.295   8.870  0.7547 -0.5256 -0.0339
  166SOPE  H17R18700   3.158   5.204   8.836 -3.9391 -3.5181 -0.0330
  166SOPE  H17S18701   3.135   5.387   8.815  0.7837 -1.1057 -0.9936
  166SOPE  C21818702   2.954   5.262   8.843 -0.6921  0.2973  0.2634
  166SOPE  H18R18703   2.948   5.250   8.733 -0.8321  0.9329  0.1964
  166SOPE  H18S18704   2.882   5.342   8.870 -0.9642 -0.0911  0.6780
  166SOPE  H18T18705   2.927   5.167   8.893 -2.0719  0.6866  0.2685
  166SOPE   C3318706   2.503   5.075  10.231 -1.0514 -0.7237  0.2855
  166SOPE   H3X18707   2.610   5.106  10.232 -1.1733 -0.0752 -2.0070
  166SOPE   H3Y18708   2.443   5.160  10.191 -0.3092 -0.4628 -0.2853
  166SOPE   C3418709   2.487   4.958  10.133  0.6006 -0.4057  0.7820
  166SOPE   H4X18710   2.378   4.936  10.145  0.3964 -0.6637 -1.3579
  166SOPE   H4Y18711   2.552   4.876  10.171  0.4212 -0.7986  0.2503
  166SOPE   C3518712   2.515   5.001   9.987  0.2858  0.2379 -0.0275
  166SOPE   H5X18713   2.622   5.030   9.999  0.7295 -0.8720 -1.1477
  166SOPE   H5Y18714   2.463   5.092   9.951  1.8729  0.2917 -2.2887
  166SOPE   C3618715   2.511   4.897   9.876  0.2909  0.4195  0.1307
  166SOPE   H6X18716   2.440   4.921   9.794 -1.6462 -3.9757  0.3678
  166SOPE   H6Y18717   2.466   4.802   9.911  1.9401 -0.2457  0.5121
  166SOPE   C3718718   2.648   4.878   9.820  0.2184 -0.1584 -0.2390
  166SOPE   H7X18719   2.718   4.842   9.898 -0.5037 -1.8657 -0.3503
  166SOPE   H7Y18720   2.689   4.978   9.795 -1.0910  0.0663 -1.5296
  166SOPE   C3818721   2.652   4.788   9.700  0.4910  0.2148 -0.7786
  166SOPE   H8X18722   2.576   4.828   9.629  1.0821 -0.4980 -1.8184
  166SOPE   H8Y18723   2.635   4.682   9.728  2.3282  0.1445  0.1114
  166SOPE   C3918724   2.781   4.811   9.628  0.3924 -0.0531 -0.5426
  166SOPE   H9X18725   2.868   4.781   9.689 -1.1114 -1.5440  0.9095
  166SOPE   H9Y18726   2.793   4.916   9.591 -0.4606 -0.5536 -2.3066
  166SOPE  C31018727   2.797   4.728   9.495  0.2780  0.0782 -0.1667
  166SOPE  H10X18728   2.714   4.744   9.424  0.7794  1.3325 -0.4778
  166SOPE  H10Y18729   2.779   4.622   9.522  2.2188 -0.8217 -2.2954
  166SOPE  C31118730   2.929   4.750   9.427  0.6292 -0.4650 -0.1167
  166SOPE  H11X18731   2.928   4.696   9.330  2.0483  0.0377 -0.4204
  166SOPE  H11Y18732   3.006   4.704   9.493  1.0767  0.9922  0.3878
  166SOPE  C31218733   2.969   4.891   9.398 -0.1840 -0.5302  0.0513
  166SOPE  H12X18734   3.067   4.888   9.345 -0.5342 -0.3760 -0.6079
  166SOPE  H12Y18735   2.992   4.960   9.482 -1.9554  2.2950 -1.6922
  166SOPE  C31318736   2.876   4.967   9.302 -0.5925  0.4085 -0.3164
  166SOPE  H13X18737   2.787   5.009   9.354 -0.3914  0.8283 -0.3116
  166SOPE  H13Y18738   2.834   4.900   9.224  0.3272  0.4092 -0.8086
  166SOPE  C31418739   2.945   5.086   9.250 -0.3589 -0.1936  0.4038
  166SOPE  H14X18740   2.981   5.045   9.153 -2.0831 -1.4388  0.2621
  166SOPE  H14Y18741   3.018   5.129   9.322 -0.6788  1.9506 -0.5001
  166SOPE  C31518742   2.842   5.200   9.216 -0.5574  0.0506  0.6063
  166SOPE  H15X18743   2.902   5.259   9.143  0.9270 -1.2838  0.7183
  166SOPE  H15Y18744   2.816   5.262   9.304 -0.1517  0.0852  0.7032
  166SOPE  C31618745   2.707   5.154   9.160 -0.3777 -0.0223  0.2411
  166SOPE  H16X18746   2.640   5.091   9.221  0.7050  0.1235  1.5973
  166SOPE  H16Y18747   2.735   5.078   9.084 -0.3953 -2.0809  2.2556
  166SOPE  C31718748   2.628   5.273   9.101  0.7445 -0.3505  0.1624
  166SOPE  H17X18749   2.555   5.237   9.025 -2.3819  0.6303  2.5795
  166SOPE  H17Y18750   2.707   5.342   9.067 -0.3342 -0.3314 -2.3846
  166SOPE  C31818751   2.554   5.354   9.208  0.3849  0.4514 -0.1145
  166SOPE  H18X18752   2.629   5.383   9.285  1.3556  0.9668 -1.2452
  166SOPE  H18Y18753   2.478   5.285   9.253  0.8120  0.0175 -0.0496
  166SOPE  H18Z18754   2.503   5.440   9.161 -0.5367  0.5530  1.0532
  167SOPE     N18755   5.188   2.848   6.196 -0.2067 -0.4195 -0.6605
  167SOPE   HN118756   5.201   2.766   6.132 -0.4410 -0.6384 -0.4303
  167SOPE   HN218757   5.257   2.850   6.273 -0.5807  2.4774 -0.3509
  167SOPE   HN318758   5.102   2.855   6.254 -0.6583  0.0752 -1.3826
  167SOPE   C1218759   5.204   2.971   6.101 -0.0505  0.6547  0.4171
  167SOPE  H12A18760   5.202   2.930   5.998  0.9949  0.4530  0.4650
  167SOPE  H12B18761   5.306   3.012   6.120  0.1283  0.0154  0.8860
  167SOPE   C1118762   5.088   3.072   6.112 -0.0902 -0.7162 -0.2909
  167SOPE  H11A18763   4.995   3.023   6.074 -0.9611  1.2971 -0.8274
  167SOPE  H11B18764   5.120   3.164   6.059  1.1725 -0.9911 -0.0062
  167SOPE     P18765   4.960   3.233   6.268  0.5014  0.1170 -0.0305
  167SOPE   O1318766   4.836   3.213   6.193  0.0392 -0.3253  0.6157
  167SOPE   O1418767   5.037   3.355   6.249  0.6649 -0.2255  0.1315
  167SOPE   O1218768   5.063   3.106   6.248 -0.1039 -0.0979  0.2899
  167SOPE   O1118769   4.927   3.229   6.426  0.1324 -0.1634 -0.1625
  167SOPE    C118770   4.863   3.120   6.487 -0.1713 -0.8994  0.1993
  167SOPE    HA18771   4.911   3.106   6.587 -1.0682 -0.6809  0.6688
  167SOPE    HB18772   4.877   3.021   6.439 -0.3213 -0.7524 -0.1417
  167SOPE    C218773   4.715   3.148   6.515 -0.5409 -0.5399 -0.8526
  167SOPE    HS18774   4.684   3.189   6.416  0.6203  0.1038 -0.9742
  167SOPE   O2118775   4.702   3.247   6.617  0.5219 -0.5875  0.0755
  167SOPE   C2118776   4.579   3.292   6.621  0.8975 -0.5088 -0.4691
  167SOPE   O2218777   4.485   3.262   6.546 -0.5260 -0.0087 -0.2456
  167SOPE   C2218778   4.565   3.366   6.752 -0.1923  0.0255  0.1691
  167SOPE   H2R18779   4.545   3.469   6.716 -2.1065 -0.3771  0.0558
  167SOPE   H2S18780   4.662   3.361   6.805  1.0208  0.1346 -1.9731
  167SOPE    C318781   4.641   3.016   6.555 -0.5234  0.1663 -0.0244
  167SOPE    HX18782   4.648   2.935   6.479 -0.7190 -0.8577  1.0321
  167SOPE    HY18783   4.534   3.042   6.567  0.1739  2.6501  1.2588
  167SOPE   O3118784   4.683   2.956   6.680 -0.4593  0.2054 -0.0516
  167SOPE   C3118785   4.769   2.850   6.669 -0.6221 -0.4427  0.1819
  167SOPE   O3218786   4.838   2.822   6.570  0.6857 -0.2153 -0.3508
  167SOPE   C3218787   4.779   2.771   6.794 -0.3405 -0.7015 -0.1240
  167SOPE   H2X18788   4.847   2.687   6.766  1.2532  0.8780 -1.1124
  167SOPE   H2Y18789   4.680   2.732   6.825 -0.2963 -0.9399 -0.2769
  167SOPE   C2318790   4.458   3.313   6.853 -0.6689 -0.1058 -0.2483
  167SOPE   H3R18791   4.478   3.366   6.948 -0.4758 -1.3468  0.4226
  167SOPE   H3S18792   4.472   3.203   6.863  0.7127  0.0192 -0.6767
  167SOPE   C2418793   4.318   3.361   6.805  0.5215 -0.0235 -0.3287
  167SOPE   H4R18794   4.302   3.383   6.697  0.3819  1.5901  0.0081
  167SOPE   H4S18795   4.246   3.281   6.832  0.2275  0.2789 -0.2138
  167SOPE   C2518796   4.281   3.486   6.885 -0.3914  0.1695  0.0422
  167SOPE   H5R18797   4.343   3.575   6.861  0.3782 -0.2049  0.6092
  167SOPE   H5S18798   4.179   3.514   6.850  0.0572  1.4030 -0.3113
  167SOPE   C2618799   4.268   3.473   7.043  0.4323 -0.3299  0.6964
  167SOPE   H6R18800   4.368   3.443   7.082  0.8003 -2.0236 -1.3790
  167SOPE   H6S18801   4.229   3.567   7.086  0.3514 -0.3766  0.7248
  167SOPE   C2718802   4.169   3.365   7.078  0.7756 -0.3191  0.6558
  167SOPE   H7R18803   4.068   3.382   7.035  0.6858  1.9683  1.6860
  167SOPE   H7S18804   4.205   3.269   7.034  1.6668  1.3290 -2.3166
  167SOPE   C2818805   4.152   3.354   7.236  0.4053  0.1818 -0.0774
  167SOPE   H8R18806   4.118   3.452   7.277 -0.9407 -0.3017 -0.0085
  167SOPE   H8S18807   4.069   3.287   7.264  1.1513 -0.2739  1.0677
  167SOPE   C2918808   4.277   3.296   7.299 -0.8711 -0.8100  0.1593
  167SOPE   H9118809   4.318   3.206   7.251 -1.2575 -0.1422 -1.4236
  167SOPE  C21018810   4.348   3.352   7.405  0.0242 -0.3456 -0.2421
  167SOPE  H10118811   4.446   3.321   7.446 -0.1770 -0.8563 -0.1415
  167SOPE  C21118812   4.298   3.477   7.490  0.0297  0.1998 -0.1725
  167SOPE  H11R18813   4.199   3.514   7.455  0.1335  0.3133 -0.3531
  167SOPE  H11S18814   4.374   3.557   7.476  0.2812 -0.1144 -0.6207
  167SOPE  C21218815   4.275   3.452   7.645  0.0824 -1.1091 -0.3311
  167SOPE  H12R18816   4.211   3.532   7.687 -1.0399 -2.3009  0.2614
  167SOPE  H12S18817   4.374   3.457   7.694 -0.1306  2.1244 -0.1035
  167SOPE  C21318818   4.200   3.322   7.675  0.0530 -0.3092 -0.3737
  167SOPE  H13R18819   4.262   3.236   7.642 -0.9714 -1.0795 -0.3111
  167SOPE  H13S18820   4.109   3.326   7.611  0.4020 -1.2940 -0.9357
  167SOPE  C21418821   4.169   3.310   7.822  0.2748 -0.3375  0.3574
  167SOPE  H14R18822   4.071   3.358   7.845 -0.5834 -2.6118  1.6465
  167SOPE  H14S18823   4.234   3.373   7.887 -0.9493  0.8558  0.4558
  167SOPE  C21518824   4.156   3.168   7.882  0.3447 -1.3680  0.1208
  167SOPE  H15R18825   4.254   3.115   7.891  1.2834  0.1583 -0.9899
  167SOPE  H15S18826   4.084   3.111   7.819  0.3539  1.7221 -2.7749
  167SOPE  C21618827   4.095   3.170   8.021  1.2222  0.0168  0.1720
  167SOPE  H16R18828   4.126   3.259   8.081  3.1248  0.5322 -1.5074
  167SOPE  H16S18829   4.124   3.078   8.077 -1.2965 -1.9147 -1.6274
  167SOPE  C21718830   3.943   3.158   8.026 -0.2432 -0.4088 -0.0536
  167SOPE  H17R18831   3.915   3.060   7.981 -0.9224  0.4720 -1.5634
  167SOPE  H17S18832   3.896   3.242   7.971  0.1513 -0.5865 -0.6696
  167SOPE  C21818833   3.894   3.164   8.169 -0.6736 -0.2288 -0.6579
  167SOPE  H18R18834   3.891   3.267   8.211  1.9523 -1.0454  1.7205
  167SOPE  H18S18835   3.972   3.112   8.229  0.5111  1.7943 -0.3943
  167SOPE  H18T18836   3.796   3.113   8.174 -0.6324 -0.0770  3.3207
  167SOPE   C3318837   4.828   2.858   6.908 -0.6328  0.1207 -0.0486
  167SOPE   H3X18838   4.751   2.920   6.959 -0.0919  1.3394 -0.6821
  167SOPE   H3Y18839   4.915   2.922   6.886  1.4836 -1.4752  3.2755
  167SOPE   C3418840   4.877   2.781   7.025 -0.1809 -0.6064 -0.1131
  167SOPE   H4X18841   4.886   2.847   7.113 -5.0170 -1.0780  0.8834
  167SOPE   H4Y18842   4.971   2.743   6.979 -0.0619 -0.2382 -0.1751
  167SOPE   C3518843   4.776   2.669   7.062 -0.0066 -0.8163 -0.2341
  167SOPE   H5X18844   4.766   2.595   6.981  1.5101 -1.4713  0.1623
  167SOPE   H5Y18845   4.683   2.724   7.086  1.7058  1.9816  0.2775
  167SOPE   C3618846   4.821   2.590   7.182 -0.0549  0.8525 -0.0201
  167SOPE   H6X18847   4.931   2.581   7.193 -0.2824 -0.6057  1.1968
  167SOPE   H6Y18848   4.780   2.488   7.166  2.1344  0.0803 -0.8767
  167SOPE   C3718849   4.758   2.636   7.317 -0.4136 -0.1812  0.0193
  167SOPE   H7X18850   4.650   2.613   7.324 -0.5764  1.0639  1.7047
  167SOPE   H7Y18851   4.773   2.746   7.323 -0.2352 -0.2340  0.5912
  167SOPE   C3818852   4.830   2.571   7.438 -0.4650 -0.6639 -0.1475
  167SOPE   H8X18853   4.837   2.461   7.423 -3.1156 -0.8678 -0.0551
  167SOPE   H8Y18854   4.775   2.601   7.530 -0.5772 -1.2186 -0.0299
  167SOPE   C3918855   4.975   2.613   7.456  0.2815  0.1555 -0.4287
  167SOPE   H9X18856   4.989   2.721   7.435  1.3913  0.3167  1.0817
  167SOPE   H9Y18857   5.031   2.560   7.377  0.7784  0.2063 -0.1111
  167SOPE  C31018858   5.029   2.593   7.599  0.5305 -0.3371 -0.3925
  167SOPE  H10X18859   4.958   2.635   7.673 -1.0715  1.7306 -3.0411
  167SOPE  H10Y18860   5.129   2.641   7.611  1.0462 -1.8331  1.4594
  167SOPE  C31118861   5.038   2.448   7.626 -1.0049  0.5085 -0.4423
  167SOPE  H11X18862   5.105   2.410   7.546 -0.2171  0.1025  0.4006
  167SOPE  H11Y18863   4.940   2.398   7.614 -0.9019  0.1836  0.0254
  167SOPE  C31218864   5.086   2.396   7.764  0.6969 -0.0590 -0.1738
  167SOPE  H12X18865   5.194   2.418   7.775  0.6237  0.2280 -0.0392
  167SOPE  H12Y18866   5.066   2.290   7.790  1.8438 -1.0334 -3.0378
  167SOPE  C31318867   5.023   2.477   7.882 -0.1559  0.1583  0.4246
  167SOPE  H13X18868   5.052   2.583   7.866  0.3272 -0.4651 -3.1346
  167SOPE  H13Y18869   5.066   2.437   7.977  0.9515  1.2080  0.3757
  167SOPE  C31418870   4.867   2.465   7.894  0.1705  0.6647 -0.2919
  167SOPE  H14X18871   4.851   2.366   7.940  1.4988  0.1537 -0.8902
  167SOPE  H14Y18872   4.821   2.458   7.793  1.2715 -3.4088 -0.6053
  167SOPE  C31518873   4.796   2.564   7.986  0.6913 -1.1160  0.3378
  167SOPE  H15X18874   4.685   2.556   7.989  0.1867  3.8461  0.1921
  167SOPE  H15Y18875   4.815   2.664   7.940  1.9193 -1.2887  0.4566
  167SOPE  C31618876   4.839   2.564   8.129 -0.6898 -0.0420 -0.5090
  167SOPE  H16X18877   4.947   2.589   8.137 -0.4879 -0.0925 -2.7278
  167SOPE  H16Y18878   4.819   2.466   8.176 -2.2078 -0.0926 -1.2322
  167SOPE  C31718879   4.776   2.679   8.214  0.5186  0.3009 -0.7555
  167SOPE  H17X18880   4.666   2.664   8.205  0.6875 -2.4821  1.2204
  167SOPE  H17Y18881   4.810   2.780   8.183 -2.0508  1.2624 -0.5753
  167SOPE  C31818882   4.798   2.666   8.370  0.4486  0.5228 -0.7754
  167SOPE  H18X18883   4.900   2.704   8.393  0.3832 -0.1955  0.7809
  167SOPE  H18Y18884   4.793   2.560   8.405 -1.5809  0.8716  0.0912
  167SOPE  H18Z18885   4.721   2.723   8.427 -0.3417 -1.5788  0.3336
  168SOPE     N18886   3.605   0.456   6.605  0.0275 -0.3281  0.1458
  168SOPE   HN118887   3.679   0.498   6.546  2.0182  0.2713  2.9439
  168SOPE   HN218888   3.548   0.385   6.554  1.5104  0.5334 -2.8230
  168SOPE   HN318889   3.538   0.532   6.629  0.5447  0.3294 -0.4775
  168SOPE   C1218890   3.673   0.389   6.722 -0.3358 -0.0545 -0.3828
  168SOPE  H12A18891   3.601   0.337   6.789 -0.3286  0.9844  0.4605
  168SOPE  H12B18892   3.708   0.468   6.792  2.4190 -2.2404  0.7864
  168SOPE   C1118893   3.782   0.304   6.666  0.3910  0.0528  1.1543
  168SOPE  H11A18894   3.810   0.238   6.751  0.9094  0.0858  1.0097
  168SOPE  H11B18895   3.874   0.363   6.645 -0.3975  0.9269  0.1081
  168SOPE     P18896   3.823   0.088   6.514  0.1765  0.0223 -0.3064
  168SOPE   O1318897   3.969   0.109   6.537 -0.2756 -0.2352 -0.5995
  168SOPE   O1418898   3.795   0.061   6.371  0.2502  0.2343 -0.2859
  168SOPE   O1218899   3.744   0.218   6.552  0.6599  0.2008 -0.2682
  168SOPE   O1118900   3.763  -0.031   6.595  0.6004  0.1205 -0.3718
  168SOPE    C118901   3.644  -0.017   6.680  0.1696 -0.4453  0.2887
  168SOPE    HA18902   3.569  -0.095   6.653 -1.5838  1.3003 -0.0504
  168SOPE    HB18903   3.577   0.070   6.659  0.8243  0.4622  1.8233
  168SOPE    C218904   3.655  -0.026   6.837  0.0562  1.0571  0.6280
  168SOPE    HS18905   3.731   0.046   6.873 -0.0860  0.2200  2.6790
  168SOPE   O2118906   3.685  -0.162   6.873 -0.1153 -0.6413  0.5823
  168SOPE   C2118907   3.810  -0.204   6.889 -0.0285 -0.6191  0.7245
  168SOPE   O2218908   3.907  -0.131   6.891 -0.3215  0.6865 -0.0663
  168SOPE   C2218909   3.805  -0.355   6.933  0.4396 -0.0564  0.7833
  168SOPE   H2R18910   3.900  -0.381   6.983  1.2611 -0.6908 -1.0535
  168SOPE   H2S18911   3.798  -0.413   6.838 -1.5082  1.1814  0.1365
  168SOPE    C318912   3.518   0.016   6.905  0.3701  0.1509 -0.1238
  168SOPE    HX18913   3.442  -0.055   6.865  0.5105 -1.1724  1.8539
  168SOPE    HY18914   3.491   0.114   6.862 -0.5155 -0.4460 -0.9560
  168SOPE   O3118915   3.524   0.015   7.046 -0.1096 -0.1793 -0.0795
  168SOPE   C3118916   3.570   0.130   7.091 -0.0594  0.5659  0.6287
  168SOPE   O3218917   3.586   0.226   7.025  0.3282 -0.2647 -0.2312
  168SOPE   C3218918   3.594   0.102   7.242  0.2348  0.2664  0.1943
  168SOPE   H2X18919   3.632   0.189   7.299 -0.8212  0.2448  0.9324
  168SOPE   H2Y18920   3.682   0.033   7.247  1.5007  1.9251  1.4846
  168SOPE   C2318921   3.685  -0.389   7.021 -0.1710 -0.1920 -0.2171
  168SOPE   H3R18922   3.692  -0.499   7.035  0.3368 -0.3744 -1.7237
  168SOPE   H3S18923   3.592  -0.351   6.973 -0.2123  1.3300  1.0457
  168SOPE   C2418924   3.694  -0.332   7.173 -0.0595  0.6235  0.7500
  168SOPE   H4R18925   3.676  -0.224   7.156 -0.7349  0.5083  0.7306
  168SOPE   H4S18926   3.619  -0.379   7.240 -1.4113 -0.1632 -1.2708
  168SOPE   C2518927   3.828  -0.373   7.237  0.2885  0.2148 -0.1826
  168SOPE   H5R18928   3.835  -0.484   7.238  1.7235  0.2952  0.1418
  168SOPE   H5S18929   3.913  -0.335   7.176  0.2567  0.8549  0.1688
  168SOPE   C2618930   3.843  -0.318   7.375 -0.2235  0.3976  0.2707
  168SOPE   H6R18931   3.948  -0.310   7.410 -0.4315 -1.4796  1.3948
  168SOPE   H6S18932   3.802  -0.216   7.382  1.0185  0.9217  0.0535
  168SOPE   C2718933   3.767  -0.403   7.485  0.6736 -0.2421  0.1149
  168SOPE   H7R18934   3.671  -0.444   7.446 -0.3841 -0.6154  3.0026
  168SOPE   H7S18935   3.831  -0.491   7.507  1.2462 -0.0977 -0.9617
  168SOPE   C2818936   3.727  -0.326   7.605  0.0941 -0.1378 -0.3407
  168SOPE   H8R18937   3.825  -0.286   7.640  0.0056  0.4029 -0.7079
  168SOPE   H8S18938   3.662  -0.245   7.566 -1.3680 -2.2476 -2.4344
  168SOPE   C2918939   3.662  -0.420   7.701 -0.0585 -0.2126 -0.1933
  168SOPE   H9118940   3.555  -0.442   7.690 -0.0836  0.4407 -1.2952
  168SOPE  C21018941   3.712  -0.466   7.821 -0.6237 -0.1371  0.0510
  168SOPE  H10118942   3.655  -0.530   7.889 -1.1194  0.4934  0.2206
  168SOPE  C21118943   3.843  -0.427   7.884  0.1645 -0.3445 -0.3260
  168SOPE  H11R18944   3.929  -0.433   7.814  1.0663 -2.1146  0.8907
  168SOPE  H11S18945   3.866  -0.502   7.962 -0.8974  0.3877  0.7156
  168SOPE  C21218946   3.852  -0.286   7.958 -0.3980  0.2447 -0.5126
  168SOPE  H12R18947   3.807  -0.212   7.888 -2.8785 -1.0393 -0.3124
  168SOPE  H12S18948   3.962  -0.273   7.967  0.0421 -1.7722 -2.5715
  168SOPE  C21318949   3.770  -0.273   8.095 -0.3326 -0.1591 -0.4789
  168SOPE  H13R18950   3.659  -0.280   8.103 -0.4929  0.0311 -2.2677
  168SOPE  H13S18951   3.802  -0.178   8.143 -0.4148 -0.9645  1.1889
  168SOPE  C21418952   3.807  -0.384   8.190 -0.7401  0.0013 -0.5108
  168SOPE  H14R18953   3.916  -0.403   8.189 -0.8014 -0.3464 -1.4258
  168SOPE  H14S18954   3.754  -0.472   8.149  0.5126 -1.3898  0.8329
  168SOPE  C21518955   3.762  -0.357   8.333 -0.4557  0.0623 -0.1904
  168SOPE  H15R18956   3.651  -0.347   8.336 -0.6001 -1.8031  2.0344
  168SOPE  H15S18957   3.795  -0.263   8.382  1.5320 -2.5301  3.6855
  168SOPE  C21618958   3.808  -0.474   8.419  0.2858  0.3647  0.2688
  168SOPE  H16R18959   3.782  -0.469   8.527 -1.3562  0.7409 -0.1407
  168SOPE  H16S18960   3.919  -0.471   8.421  0.3459 -0.1397 -1.4198
  168SOPE  C21718961   3.764  -0.607   8.370  0.2285  0.6193  0.2943
  168SOPE  H17R18962   3.809  -0.643   8.275 -0.7673 -4.1374  1.4562
  168SOPE  H17S18963   3.653  -0.607   8.357  0.0589  1.3067  1.7063
  168SOPE  C21818964   3.778  -0.716   8.480 -0.3612  0.4507 -0.2351
  168SOPE  H18R18965   3.884  -0.747   8.491 -0.8050 -1.2616 -0.7225
  168SOPE  H18S18966   3.714  -0.801   8.448 -1.7537  1.5796 -0.4991
  168SOPE  H18T18967   3.733  -0.681   8.576 -2.1423  2.3126 -1.7084
  168SOPE   C3318968   3.481   0.022   7.307 -0.4192 -0.4907  0.1604
  168SOPE   H3X18969   3.482  -0.081   7.265  0.5702 -0.1842 -0.5879
  168SOPE   H3Y18970   3.378   0.055   7.284 -0.6062 -2.7245 -2.5187
  168SOPE   C3418971   3.505   0.012   7.454 -0.2647  0.4307 -0.1832
  168SOPE   H4X18972   3.615   0.011   7.474  0.2508 -2.5008 -2.8671
  168SOPE   H4Y18973   3.450  -0.071   7.502 -1.7673  1.4332 -0.1355
  168SOPE   C3518974   3.451   0.138   7.526 -0.6600 -0.1199  0.4485
  168SOPE   H5X18975   3.358   0.181   7.486  1.3554  3.3698 -0.6602
  168SOPE   H5Y18976   3.525   0.219   7.507 -1.1838  0.1639 -0.3620
  168SOPE   C3618977   3.413   0.125   7.674  0.2333 -0.1143 -0.6424
  168SOPE   H6X18978   3.315   0.074   7.685  0.3178 -0.4823 -1.6164
  168SOPE   H6Y18979   3.398   0.230   7.709 -1.3873 -1.1825  2.0637
  168SOPE   C3718980   3.531   0.059   7.760  0.2476 -0.4509  0.7135
  168SOPE   H7X18981   3.614   0.129   7.737 -0.8218  0.8544  0.7609
  168SOPE   H7Y18982   3.557  -0.044   7.727 -0.6596 -0.6039  0.4634
  168SOPE   C3818983   3.500   0.070   7.911 -0.4057  0.2220  0.3729
  168SOPE   H8X18984   3.435  -0.020   7.926 -0.1669 -0.1507 -0.7992
  168SOPE   H8Y18985   3.438   0.162   7.914 -2.0568 -0.9013  2.9840
  168SOPE   C3918986   3.621   0.047   8.009 -0.0162 -0.3082  0.4540
  168SOPE   H9X18987   3.687   0.136   8.005 -0.3473 -0.0700  0.3191
  168SOPE   H9Y18988   3.687  -0.036   7.974 -1.0643 -1.2926  0.7772
  168SOPE  C31018989   3.574   0.004   8.152  0.0469  0.3076 -0.2250
  168SOPE  H10X18990   3.664  -0.022   8.212 -1.1951  0.3335  1.6974
  168SOPE  H10Y18991   3.505  -0.083   8.148 -0.1112  0.4852 -1.9306
  168SOPE  C31118992   3.504   0.120   8.227 -0.2890 -0.5997  0.8554
  168SOPE  H11X18993   3.402   0.140   8.186  0.6153  1.7156 -0.3808
  168SOPE  H11Y18994   3.546   0.214   8.186  0.5467 -2.6796 -3.3708
  168SOPE  C31218995   3.509   0.112   8.381  0.0312 -0.0032 -0.2038
  168SOPE  H12X18996   3.466   0.207   8.418 -0.4971 -0.8350  1.3843
  168SOPE  H12Y18997   3.614   0.097   8.416  0.3941 -0.0029 -1.2740
  168SOPE  C31318998   3.425  -0.009   8.439  0.2028 -0.1669  0.5761
  168SOPE  H13X18999   3.336  -0.025   8.375  1.9588 -1.2680 -1.6345
  168SOPE  H13Y19000   3.404   0.019   8.545  3.2730 -0.6850  1.3683
  168SOPE  C31419001   3.498  -0.145   8.439 -0.1160 -0.2010 -0.1538
  168SOPE  H14X19002   3.592  -0.126   8.496 -0.1586 -0.4247 -0.0092
  168SOPE  H14Y19003   3.509  -0.178   8.333  0.3919 -0.4473 -0.0255
  168SOPE  C31519004   3.424  -0.249   8.519  0.3312  0.0285 -0.5874
  168SOPE  H15X19005   3.340  -0.305   8.472  0.1058 -1.1617  1.1430
  168SOPE  H15Y19006   3.363  -0.199   8.597 -0.0650  0.2852 -1.0630
  168SOPE  C31619007   3.519  -0.351   8.584  0.4195 -0.0079 -0.7600
  168SOPE  H16X19008   3.608  -0.294   8.620  1.2073 -2.4592  1.3541
  168SOPE  H16Y19009   3.543  -0.431   8.511 -0.8326 -1.3392  0.2366
  168SOPE  C31719010   3.454  -0.426   8.702  0.2684  0.4657 -0.7182
  168SOPE  H17X19011   3.358  -0.466   8.661  1.0130 -0.0326 -2.0036
  168SOPE  H17Y19012   3.428  -0.350   8.780 -0.1885 -0.5018  0.0779
  168SOPE  C31819013   3.542  -0.539   8.760 -0.0191 -0.2507 -0.3382
  168SOPE  H18X19014   3.560  -0.621   8.688 -1.2943 -0.8171 -0.0183
  168SOPE  H18Y19015   3.497  -0.587   8.849  0.8813  1.9944  1.3921
  168SOPE  H18Z19016   3.638  -0.500   8.803  0.0638  0.2604 -0.9707
  169SOPE     N19017   6.634   1.896   6.417 -0.7465  0.5573 -0.1389
  169SOPE   HN119018   6.672   1.968   6.482  0.9120 -0.0160 -0.4663
  169SOPE   HN219019   6.660   1.802   6.453 -0.9055  1.2590  1.8785
  169SOPE   HN319020   6.680   1.905   6.324  0.1247  2.0208  0.4140
  169SOPE   C1219021   6.485   1.906   6.436 -0.1688 -0.0688 -0.3913
  169SOPE  H12A19022   6.434   1.882   6.340 -1.5473  0.1964  0.2642
  169SOPE  H12B19023   6.473   2.015   6.454 -2.9669  0.1380 -3.0159
  169SOPE   C1119024   6.435   1.829   6.558 -0.0363 -0.4842  0.2536
  169SOPE  H11A19025   6.336   1.872   6.581 -0.9582 -2.4447  0.0247
  169SOPE  H11B19026   6.507   1.861   6.637 -0.6808 -0.9974  1.0548
  169SOPE     P19027   6.313   1.615   6.490  0.1871  0.2426  0.0769
  169SOPE   O1319028   6.361   1.476   6.464  0.9471 -0.3085 -0.0755
  169SOPE   O1419029   6.261   1.675   6.371 -0.0736 -0.8882  0.2952
  169SOPE   O1219030   6.435   1.691   6.551  0.1224 -0.4400  1.0236
  169SOPE   O1119031   6.214   1.623   6.612  0.0878  0.1288  0.7463
  169SOPE    C119032   6.233   1.543   6.726 -0.5896  0.3423 -0.1265
  169SOPE    HA19033   6.292   1.450   6.710  0.7156  1.1852 -0.3396
  169SOPE    HB19034   6.137   1.503   6.764  0.2058 -2.4099 -0.8679
  169SOPE    C219035   6.295   1.632   6.839  0.2051  0.3755 -0.5784
  169SOPE    HS19036   6.398   1.667   6.815  0.2654  1.1898  0.8123
  169SOPE   O2119037   6.305   1.559   6.960 -0.4177 -0.3623  0.2779
  169SOPE   C2119038   6.378   1.456   6.975 -0.1581 -1.2861  0.8569
  169SOPE   O2219039   6.466   1.417   6.896  0.1903 -0.7379  0.0760
  169SOPE   C2219040   6.375   1.409   7.113  0.7672 -0.1898  0.0067
  169SOPE   H2R19041   6.269   1.423   7.143  0.5613  1.3033 -1.3152
  169SOPE   H2S19042   6.453   1.468   7.166  2.1861 -2.5659  0.6147
  169SOPE    C319043   6.193   1.751   6.860  0.4102  0.3155 -0.0715
  169SOPE    HX19044   6.087   1.723   6.874  0.0971  0.4969 -1.9492
  169SOPE    HY19045   6.208   1.808   6.766  0.7736 -0.3838 -0.4470
  169SOPE   O3119046   6.228   1.833   6.971  0.1698  0.1808  0.5877
  169SOPE   C3119047   6.263   1.958   6.958  0.1714  0.4208  0.0723
  169SOPE   O3219048   6.262   2.020   6.854  0.0284 -0.9852 -0.0378
  169SOPE   C3219049   6.296   2.018   7.096 -0.3436 -0.6675  0.8660
  169SOPE   H2X19050   6.214   2.084   7.132 -0.0283  1.0952 -1.5122
  169SOPE   H2Y19051   6.378   2.090   7.073 -0.8040 -0.2829  0.4086
  169SOPE   C2319052   6.411   1.259   7.123 -0.6727  0.1091  0.0076
  169SOPE   H3R19053   6.511   1.247   7.076 -1.6070 -0.3062 -1.9636
  169SOPE   H3S19054   6.335   1.205   7.062 -0.3711  0.2465 -0.4940
  169SOPE   C2419055   6.418   1.198   7.266  0.5564 -0.0936  0.3060
  169SOPE   H4R19056   6.452   1.094   7.252  2.3183 -0.0089  3.4086
  169SOPE   H4S19057   6.500   1.242   7.328  1.4206 -0.5490 -0.5168
  169SOPE   C2519058   6.282   1.197   7.337  0.3931 -0.7571  0.1421
  169SOPE   H5R19059   6.262   1.306   7.343  2.0280 -0.4004 -0.5530
  169SOPE   H5S19060   6.203   1.155   7.273  1.0311 -0.7551 -0.6528
  169SOPE   C2619061   6.280   1.135   7.477 -0.1226  0.6634  0.0920
  169SOPE   H6R19062   6.344   1.191   7.548  0.3233  2.1807 -1.4597
  169SOPE   H6S19063   6.175   1.155   7.507 -0.9114  0.1546 -2.2472
  169SOPE   C2719064   6.305   0.984   7.481 -0.0810 -0.6514  0.2041
  169SOPE   H7R19065   6.227   0.936   7.419 -1.5752  2.1283 -0.1540
  169SOPE   H7S19066   6.405   0.972   7.434  0.0064  1.3325 -0.1629
  169SOPE   C2819067   6.315   0.935   7.627  0.0879  0.5332  0.1687
  169SOPE   H8R19068   6.414   0.970   7.664  0.4178 -0.0927 -0.1027
  169SOPE   H8S19069   6.228   0.979   7.680 -1.0024  0.7436 -1.7841
  169SOPE   C2919070   6.321   0.785   7.629 -0.1929 -0.1568 -0.2674
  169SOPE   H9119071   6.338   0.732   7.534  2.2072  0.5003 -0.2321
  169SOPE  C21019072   6.300   0.723   7.741  0.1394 -0.2803 -0.0540
  169SOPE  H10119073   6.284   0.615   7.734  2.4544 -0.4894 -2.6728
  169SOPE  C21119074   6.270   0.782   7.883  0.1325 -0.0091 -0.1442
  169SOPE  H11R19075   6.162   0.771   7.902 -0.2284  0.6014 -1.7043
  169SOPE  H11S19076   6.294   0.891   7.887  1.2872 -0.3108  1.9281
  169SOPE  C21219077   6.351   0.721   8.004  0.0608 -0.0050  0.6602
  169SOPE  H12R19078   6.332   0.612   7.994 -0.8495  0.1930  0.2357
  169SOPE  H12S19079   6.319   0.763   8.101 -2.5088 -2.1786  0.7874
  169SOPE  C21319080   6.502   0.742   7.978  0.1082  1.1091 -0.8754
  169SOPE  H13R19081   6.528   0.849   7.985  2.3350  0.6018 -0.9751
  169SOPE  H13S19082   6.518   0.730   7.869 -2.0044  1.6424 -1.2535
  169SOPE  C21419083   6.588   0.657   8.066 -0.6134 -0.3002  0.4904
  169SOPE  H14R19084   6.694   0.687   8.048 -1.0358  0.5511 -0.5792
  169SOPE  H14S19085   6.579   0.548   8.042  0.7596 -0.7914  2.0761
  169SOPE  C21519086   6.556   0.694   8.209  0.1483 -0.3855 -0.0646
  169SOPE  H15R19087   6.456   0.668   8.249  0.6559 -0.1075  1.4176
  169SOPE  H15S19088   6.565   0.804   8.221 -0.3955 -0.4799  1.3133
  169SOPE  C21619089   6.651   0.636   8.317  0.2112 -0.5027 -0.1590
  169SOPE  H16R19090   6.753   0.661   8.280  0.8470 -0.7601  1.3958
  169SOPE  H16S19091   6.634   0.527   8.331  0.0946 -0.4560  0.0616
  169SOPE  C21719092   6.647   0.717   8.452  0.0639  0.2401 -0.0194
  169SOPE  H17R19093   6.543   0.751   8.472 -0.8921  0.6224 -5.1387
  169SOPE  H17S19094   6.702   0.812   8.433  2.1096 -0.8847  0.1499
  169SOPE  C21819095   6.712   0.640   8.570 -0.3332  0.5652 -0.4106
  169SOPE  H18R19096   6.640   0.557   8.587  0.2783  0.0001 -0.5539
  169SOPE  H18S19097   6.732   0.699   8.663  0.3695 -0.4890  0.1139
  169SOPE  H18T19098   6.812   0.595   8.550 -1.0054 -2.5437  2.7213
  169SOPE   C3319099   6.358   1.924   7.197 -0.6127 -0.0966  0.3139
  169SOPE   H3X19100   6.421   1.981   7.269 -0.7921  0.1863  0.2492
  169SOPE   H3Y19101   6.429   1.854   7.149  0.0435  0.4888  0.4264
  169SOPE   C3419102   6.249   1.850   7.280  0.3158  0.1595 -0.2780
  169SOPE   H4X19103   6.209   1.778   7.206 -1.5304  0.2944  0.5735
  169SOPE   H4Y19104   6.173   1.922   7.316  0.3345  0.8213 -1.5290
  169SOPE   C3519105   6.311   1.778   7.402 -1.0454  0.2401  0.3753
  169SOPE   H5X19106   6.382   1.848   7.450  1.3665 -1.5684 -0.4222
  169SOPE   H5Y19107   6.364   1.689   7.361 -1.1090  1.4965 -2.6292
  169SOPE   C3619108   6.201   1.733   7.497  0.6564  0.9609 -0.8272
  169SOPE   H6X19109   6.129   1.659   7.456  0.3808 -0.4437  2.0712
  169SOPE   H6Y19110   6.135   1.818   7.522 -0.4373 -0.3804  0.9172
  169SOPE   C3719111   6.246   1.654   7.623 -0.7627 -0.0517 -0.7515
  169SOPE   H7X19112   6.337   1.696   7.672 -2.7056  0.5164  2.4950
  169SOPE   H7Y19113   6.245   1.546   7.599 -2.5039 -0.1021 -0.5309
  169SOPE   C3819114   6.150   1.672   7.740 -0.3454 -0.2348  0.6717
  169SOPE   H8X19115   6.156   1.776   7.780 -0.5280  0.6574 -1.5548
  169SOPE   H8Y19116   6.048   1.661   7.698 -0.8530 -2.8654  2.5148
  169SOPE   C3919117   6.177   1.579   7.853 -0.2935  0.0783  0.0883
  169SOPE   H9X19118   6.271   1.615   7.899 -0.6488  1.2408 -0.0733
  169SOPE   H9Y19119   6.208   1.480   7.814 -0.3669  0.3265 -0.6141
  169SOPE  C31019120   6.067   1.579   7.957  0.5458  0.7309  0.1617
  169SOPE  H10X19121   5.974   1.540   7.912  0.9542  0.1221 -0.1542
  169SOPE  H10Y19122   6.053   1.685   7.991  2.4811  1.1268 -0.2031
  169SOPE  C31119123   6.105   1.499   8.085 -0.7357  0.1592 -0.1457
  169SOPE  H11X19124   6.213   1.519   8.107 -1.1803  0.4800  1.8793
  169SOPE  H11Y19125   6.091   1.391   8.062  1.7547 -0.9909  3.1903
  169SOPE  C31219126   6.014   1.538   8.207  0.5298  0.8611  0.4147
  169SOPE  H12X19127   6.030   1.646   8.229 -1.0384  1.3674 -0.7874
  169SOPE  H12Y19128   6.055   1.483   8.294 -1.4107  2.1532  2.1783
  169SOPE  C31319129   5.862   1.526   8.200 -0.3982 -0.2733  0.1748
  169SOPE  H13X19130   5.829   1.542   8.095  1.7075  0.3518 -0.4163
  169SOPE  H13Y19131   5.833   1.606   8.270 -1.4127 -2.2254  2.0614
  169SOPE  C31419132   5.822   1.384   8.248 -0.7490  0.0557 -0.6569
  169SOPE  H14X19133   5.901   1.310   8.225  0.2358 -0.0874  2.9365
  169SOPE  H14Y19134   5.729   1.357   8.194 -1.1396 -1.1842  0.5960
  169SOPE  C31519135   5.790   1.378   8.405  0.1760  0.0677 -0.7531
  169SOPE  H15X19136   5.749   1.476   8.435 -0.2715  0.2043 -1.7827
  169SOPE  H15Y19137   5.887   1.366   8.458  0.1029 -0.1338 -0.6645
  169SOPE  C31619138   5.684   1.278   8.432 -0.2783  0.5400  0.1600
  169SOPE  H16X19139   5.596   1.315   8.376  0.1637  0.2599 -0.7324
  169SOPE  H16Y19140   5.660   1.301   8.538 -0.7051  0.5410  0.0617
  169SOPE  C31719141   5.722   1.128   8.420  0.2615 -0.1640  0.1100
  169SOPE  H17X19142   5.742   1.102   8.314 -1.2423  0.0262 -0.2281
  169SOPE  H17Y19143   5.635   1.067   8.454  1.2997 -0.6162  2.0104
  169SOPE  C31819144   5.837   1.077   8.512 -0.4218  0.6371  0.1161
  169SOPE  H18X19145   5.843   0.966   8.501  1.5887  0.7237  0.2466
  169SOPE  H18Y19146   5.820   1.100   8.619 -2.1013 -2.3484  0.5378
  169SOPE  H18Z19147   5.926   1.131   8.474  0.0363  0.6995  1.2634
  170SOPE     N19148   6.232   6.497   6.178  0.5859 -0.3849 -0.2526
  170SOPE   HN119149   6.227   6.449   6.085 -1.5708  2.5680 -1.7296
  170SOPE   HN219150   6.227   6.421   6.248  0.0283 -0.3369 -0.2429
  170SOPE   HN319151   6.155   6.567   6.179 -0.3918 -1.4568  0.4642
  170SOPE   C1219152   6.361   6.574   6.179  0.0950 -0.5305  0.0511
  170SOPE  H12A19153   6.343   6.652   6.101  0.7319  0.8209  1.2327
  170SOPE  H12B19154   6.445   6.503   6.168  1.0592  0.8176 -1.5600
  170SOPE   C1119155   6.380   6.654   6.315 -0.0297  0.2153  0.0290
  170SOPE  H11A19156   6.347   6.594   6.403 -0.4637 -1.4510 -1.2344
  170SOPE  H11B19157   6.305   6.736   6.304 -0.9927 -0.5258  0.9868
  170SOPE     P19158   6.535   6.843   6.410 -0.5021 -0.0763  0.3802
  170SOPE   O1319159   6.472   6.951   6.331 -0.7751 -0.3626 -0.1505
  170SOPE   O1419160   6.676   6.859   6.443 -0.9014 -0.2088 -0.5412
  170SOPE   O1219161   6.509   6.706   6.323 -0.5453  0.4444 -0.1416
  170SOPE   O1119162   6.446   6.829   6.543 -0.3744  0.3617  0.0526
  170SOPE    C119163   6.506   6.745   6.646 -0.0539  0.4469  0.1940
  170SOPE    HA19164   6.617   6.742   6.644 -0.0615 -1.5802  1.3497
  170SOPE    HB19165   6.471   6.639   6.642  0.1263  0.2890  2.3622
  170SOPE    C219166   6.467   6.795   6.790 -0.2837 -0.3958  0.1838
  170SOPE    HS19167   6.501   6.900   6.803  0.9660 -0.6116 -1.1194
  170SOPE   O2119168   6.520   6.700   6.887  0.2217 -0.0891 -0.0240
  170SOPE   C2119169   6.522   6.755   7.011  0.3337 -0.0436  1.0605
  170SOPE   O2219170   6.509   6.872   7.036  0.0885 -0.1927 -0.0145
  170SOPE   C2219171   6.549   6.638   7.106  0.0689 -0.3247 -0.2815
  170SOPE   H2R19172   6.636   6.572   7.081  0.2942 -0.1091 -0.0703
  170SOPE   H2S19173   6.460   6.575   7.086 -0.4377  1.1639 -3.0029
  170SOPE    C319174   6.307   6.796   6.801  0.1799 -0.0497 -0.1532
  170SOPE    HX19175   6.269   6.696   6.770 -0.6519 -0.4075  1.9658
  170SOPE    HY19176   6.263   6.868   6.728  0.1795  0.8822  0.7547
  170SOPE   O3119177   6.252   6.817   6.937  0.2918 -0.0859  0.5648
  170SOPE   C3119178   6.233   6.936   6.979  0.4388  0.2673  0.0435
  170SOPE   O3219179   6.250   7.040   6.911  0.4099  0.9363  0.9488
  170SOPE   C3219180   6.202   6.917   7.135  0.1187 -0.3219  0.1201
  170SOPE   H2X19181   6.297   6.931   7.190  0.6646  3.6028 -1.6944
  170SOPE   H2Y19182   6.151   6.820   7.156 -0.4794 -0.1623 -0.5502
  170SOPE   C2319183   6.549   6.681   7.249 -0.1286 -0.1167  0.5538
  170SOPE   H3R19184   6.540   6.596   7.319 -0.6691 -0.0717  0.5386
  170SOPE   H3S19185   6.458   6.745   7.256 -0.7719 -0.6010 -2.3845
  170SOPE   C2419186   6.672   6.768   7.291  0.4548 -0.1445  1.3063
  170SOPE   H4R19187   6.759   6.703   7.266 -0.3489  0.0184 -2.2245
  170SOPE   H4S19188   6.684   6.864   7.237  0.2888 -1.9138 -2.0006
  170SOPE   C2519189   6.671   6.787   7.444  0.3783  0.4386  0.5027
  170SOPE   H5R19190   6.573   6.834   7.468 -0.4209  0.8792 -3.3529
  170SOPE   H5S19191   6.664   6.686   7.489 -1.1426 -0.6398 -2.0285
  170SOPE   C2619192   6.782   6.889   7.489 -0.4748  0.9262 -0.2404
  170SOPE   H6R19193   6.772   6.989   7.441  0.2456  1.3703  0.5078
  170SOPE   H6S19194   6.775   6.899   7.600  0.8191  0.8497 -0.1402
  170SOPE   C2719195   6.921   6.837   7.455 -0.2007 -0.2247  0.2668
  170SOPE   H7R19196   6.933   6.728   7.469 -3.6020 -0.5677  0.8592
  170SOPE   H7S19197   6.914   6.836   7.344  2.4622 -2.4552  0.0860
  170SOPE   C2819198   7.044   6.916   7.494 -0.2568  1.1200  0.7435
  170SOPE   H8R19199   7.046   6.992   7.412 -0.4010  0.6691  0.3152
  170SOPE   H8S19200   7.018   6.975   7.584 -3.3609  2.9959 -1.2678
  170SOPE   C2919201   7.173   6.840   7.506 -0.1949 -1.3267  0.6072
  170SOPE   H9119202   7.213   6.799   7.412 -0.4351 -2.0967  0.8401
  170SOPE  C21019203   7.246   6.804   7.615  0.3922 -0.1698  0.8219
  170SOPE  H10119204   7.332   6.737   7.602  0.3452  0.0776 -0.8854
  170SOPE  C21119205   7.210   6.838   7.758 -0.1377 -0.0931  0.5038
  170SOPE  H11R19206   7.100   6.852   7.770  0.1890  2.3816  0.7727
  170SOPE  H11S19207   7.256   6.935   7.785  1.4172 -0.8745  0.7479
  170SOPE  C21219208   7.262   6.730   7.848  0.2996 -0.7451  0.5237
  170SOPE  H12R19209   7.362   6.685   7.828  0.7528 -0.0556  1.2353
  170SOPE  H12S19210   7.201   6.637   7.850 -0.2874 -0.3670  0.3514
  170SOPE  C21319211   7.286   6.769   7.992  0.0255  0.1566 -0.3210
  170SOPE  H13R19212   7.361   6.850   7.999 -0.5088  0.4360  3.1933
  170SOPE  H13S19213   7.334   6.684   8.044 -1.3533  0.5159  1.6056
  170SOPE  C21419214   7.160   6.795   8.071 -0.2498 -0.0241  0.4508
  170SOPE  H14R19215   7.070   6.743   8.032 -0.4313  1.9008 -1.8710
  170SOPE  H14S19216   7.125   6.896   8.039 -0.3458 -0.3676 -0.5605
  170SOPE  C21519217   7.177   6.781   8.233  0.4929 -0.3327  0.3536
  170SOPE  H15R19218   7.251   6.852   8.277 -0.6283  0.0193  1.7076
  170SOPE  H15S19219   7.216   6.679   8.254 -0.1263 -0.3459  1.4871
  170SOPE  C21619220   7.046   6.813   8.304  0.3390 -0.0389  0.3609
  170SOPE  H16R19221   6.977   6.740   8.257  0.7877 -1.1059  1.3400
  170SOPE  H16S19222   7.024   6.922   8.304 -1.1348 -0.2841 -2.1938
  170SOPE  C21719223   7.068   6.781   8.451  0.0066  0.0956 -0.2805
  170SOPE  H17R19224   7.002   6.840   8.519 -1.0140  0.7153 -1.7795
  170SOPE  H17S19225   7.170   6.813   8.480 -0.2057 -0.5281  1.1932
  170SOPE  C21819226   7.057   6.639   8.496  0.7564 -0.9960 -0.2155
  170SOPE  H18R19227   6.952   6.603   8.490  0.7773 -1.1491  0.3917
  170SOPE  H18S19228   7.094   6.621   8.599 -1.4099 -0.6352  0.6593
  170SOPE  H18T19229   7.123   6.572   8.437  0.2669 -0.6121 -1.2250
  170SOPE   C3319230   6.124   7.039   7.192 -0.0702  0.4535 -0.5404
  170SOPE   H3X19231   6.017   7.020   7.168  0.5220 -2.4192 -1.0773
  170SOPE   H3Y19232   6.163   7.138   7.158  1.3731  0.4516  1.0516
  170SOPE   C3419233   6.120   7.049   7.347 -1.0953  0.4863 -0.1284
  170SOPE   H4X19234   6.066   7.142   7.376 -1.3885 -0.6108  3.0041
  170SOPE   H4Y19235   6.228   7.049   7.371 -1.1191 -0.9446  0.0085
  170SOPE   C3519236   6.056   6.923   7.415  0.2981  0.9345  0.3720
  170SOPE   H5X19237   6.115   6.838   7.374  3.2847  3.5103 -0.9272
  170SOPE   H5Y19238   5.950   6.915   7.383  0.0130 -1.8041  1.8211
  170SOPE   C3619239   6.089   6.922   7.564  0.3412 -0.0888 -0.0363
  170SOPE   H6X19240   6.189   6.962   7.587  0.2603  0.8535 -1.2655
  170SOPE   H6Y19241   6.091   6.816   7.599  1.9264  0.4448  1.5175
  170SOPE   C3719242   5.982   6.991   7.642  0.0476  0.1659 -0.3713
  170SOPE   H7X19243   5.884   6.947   7.616  0.5923 -2.0977  1.2074
  170SOPE   H7Y19244   5.984   7.092   7.597  2.0472  1.5651  2.6465
  170SOPE   C3819245   6.009   7.002   7.794  0.0773  0.0645  0.4575
  170SOPE   H8X19246   6.118   7.020   7.805  0.0007  0.6651  0.2333
  170SOPE   H8Y19247   5.986   6.909   7.851 -0.8113 -1.1728 -1.8716
  170SOPE   C3919248   5.939   7.123   7.859 -0.1427 -0.0627  0.2803
  170SOPE   H9X19249   5.828   7.125   7.862 -0.1898 -0.3637 -0.9115
  170SOPE   H9Y19250   5.966   7.208   7.792  2.1333 -0.0701  1.1596
  170SOPE  C31019251   5.983   7.147   8.005  0.0778 -0.7155  0.0098
  170SOPE  H10X19252   6.092   7.128   8.011  0.0930 -1.2513 -1.8552
  170SOPE  H10Y19253   5.944   7.071   8.076 -0.2042 -0.2819  0.3271
  170SOPE  C31119254   5.945   7.286   8.062  0.2152  0.5708 -0.1981
  170SOPE  H11X19255   5.838   7.296   8.038 -0.0943 -2.0169 -0.0536
  170SOPE  H11Y19256   6.006   7.354   7.998 -1.7524 -1.0257 -3.8849
  170SOPE  C31219257   5.966   7.311   8.215  0.5448 -0.0660  0.7500
  170SOPE  H12X19258   5.925   7.219   8.261  4.1567 -0.5883  3.1330
  170SOPE  H12Y19259   5.895   7.386   8.255  1.8331  0.4117  2.2147
  170SOPE  C31319260   6.106   7.345   8.266  0.0156  0.5516 -0.0635
  170SOPE  H13X19261   6.140   7.442   8.226 -1.0242  2.2982  3.0896
  170SOPE  H13Y19262   6.164   7.269   8.210  0.5384  2.7456 -2.5820
  170SOPE  C31419263   6.114   7.344   8.420  0.0831 -0.8331 -0.1502
  170SOPE  H14X19264   6.110   7.244   8.468  2.0310 -0.4042  0.9385
  170SOPE  H14Y19265   6.032   7.407   8.460  0.7908 -0.1338  0.2182
  170SOPE  C31519266   6.243   7.409   8.476  1.0557 -0.2124  0.3005
  170SOPE  H15X19267   6.239   7.515   8.440 -0.2980 -0.9577 -1.8251
  170SOPE  H15Y19268   6.336   7.375   8.426  0.1892 -0.2084 -1.3511
  170SOPE  C31619269   6.248   7.420   8.629 -0.6927 -0.0274  0.0116
  170SOPE  H16X19270   6.287   7.328   8.678 -0.3929 -1.5754 -3.0656
  170SOPE  H16Y19271   6.138   7.419   8.644 -0.6976  0.3259 -0.0175
  170SOPE  C31719272   6.307   7.554   8.682 -0.1659 -0.1420  0.8337
  170SOPE  H17X19273   6.233   7.636   8.677 -0.0097  0.0755  1.8707
  170SOPE  H17Y19274   6.395   7.595   8.628 -0.0496  1.4350  2.1961
  170SOPE  C31819275   6.334   7.551   8.834  0.5212 -0.0534 -0.2961
  170SOPE  H18X19276   6.382   7.454   8.857 -1.0354 -1.3998 -2.5188
  170SOPE  H18Y19277   6.237   7.529   8.883  0.1836  0.8641 -0.5306
  170SOPE  H18Z19278   6.389   7.643   8.863  1.0024 -0.2080 -0.7151
  171SOPE     N19279   0.214   3.273   6.523  0.2793  0.0080  0.1380
  171SOPE   HN119280   0.114   3.264   6.494 -0.1517 -1.6155  1.9682
  171SOPE   HN219281   0.252   3.333   6.448 -2.0225 -2.1216 -2.8893
  171SOPE   HN319282   0.262   3.183   6.504  0.2030 -0.4686  2.0335
  171SOPE   C1219283   0.252   3.333   6.656 -0.1693  0.3624 -0.0057
  171SOPE  H12A19284   0.357   3.365   6.639 -0.2728  0.3633 -0.6511
  171SOPE  H12B19285   0.239   3.257   6.736 -7.4390 -1.8070 -2.8316
  171SOPE   C1119286   0.175   3.457   6.693  0.3701  0.1434  0.5668
  171SOPE  H11A19287   0.220   3.489   6.789  0.0579  1.2047  0.3684
  171SOPE  H11B19288   0.067   3.441   6.715 -0.5550  2.0941 -2.1734
  171SOPE     P19289   0.110   3.678   6.537 -0.2867 -0.0888 -0.1391
  171SOPE   O1319290  -0.015   3.679   6.618  0.0404  0.0795 -0.4332
  171SOPE   O1419291   0.103   3.684   6.389 -0.4006 -0.1040 -0.1302
  171SOPE   O1219292   0.194   3.552   6.586  0.2360 -0.2615  0.5795
  171SOPE   O1119293   0.207   3.795   6.588 -0.4713 -0.3081 -0.0281
  171SOPE    C119294   0.288   3.796   6.706  0.2998 -0.0814  0.2288
  171SOPE    HA19295   0.346   3.891   6.706 -0.9982  0.7669 -2.0709
  171SOPE    HB19296   0.355   3.708   6.710 -0.5987 -0.7898 -0.2695
  171SOPE    C219297   0.195   3.791   6.832 -0.8443 -0.4159 -0.1079
  171SOPE    HS19298   0.147   3.691   6.827 -0.8986 -0.3179 -2.3273
  171SOPE   O2119299   0.098   3.899   6.832  0.0358 -0.7193 -0.2119
  171SOPE   C2119300  -0.007   3.880   6.908  0.3027 -0.8730 -0.0936
  171SOPE   O2219301  -0.030   3.784   6.983 -0.3966  0.3979 -0.2515
  171SOPE   C2219302  -0.111   3.994   6.898 -0.2147 -0.0778 -0.9925
  171SOPE   H2R19303  -0.142   3.980   6.792 -0.0848  1.2910 -1.2204
  171SOPE   H2S19304  -0.058   4.091   6.900 -0.9072  0.2826  0.7721
  171SOPE    C319305   0.294   3.797   6.956  0.2702  0.8546  0.4897
  171SOPE    HX19306   0.350   3.893   6.951 -0.7704  1.5556  1.8344
  171SOPE    HY19307   0.370   3.717   6.947 -0.3812 -0.0416  2.5436
  171SOPE   O3119308   0.230   3.802   7.087 -0.2831  0.0373 -0.3102
  171SOPE   C3119309   0.211   3.685   7.139 -0.1069  0.5530  0.5516
  171SOPE   O3219310   0.261   3.577   7.103  0.3517  0.3295 -0.8747
  171SOPE   C3219311   0.129   3.706   7.266 -0.4099  0.4892  0.2390
  171SOPE   H2X19312   0.101   3.602   7.293  0.4311  0.7049  2.0001
  171SOPE   H2Y19313   0.044   3.769   7.231  0.1436  0.3666 -1.3867
  171SOPE   C2319314  -0.224   3.985   7.004  0.0954 -0.6603 -0.1292
  171SOPE   H3R19315  -0.268   3.883   7.017 -1.6361  0.4455  3.6550
  171SOPE   H3S19316  -0.308   4.050   6.972  1.9886  1.3402 -1.0788
  171SOPE   C2419317  -0.162   4.025   7.146  0.6395  0.1497  0.1418
  171SOPE   H4R19318  -0.100   3.940   7.179  0.8582  0.1432 -0.2830
  171SOPE   H4S19319  -0.095   4.113   7.141  2.0110 -0.8466  0.7303
  171SOPE   C2519320  -0.273   4.052   7.251 -0.0458  0.3695  0.4880
  171SOPE   H5R19321  -0.336   4.139   7.223  0.7725  0.0973 -2.2811
  171SOPE   H5S19322  -0.344   3.969   7.266  2.8111 -2.3574 -0.4812
  171SOPE   C2619323  -0.213   4.089   7.387 -0.2368  0.2713  0.1028
  171SOPE   H6R19324  -0.165   4.001   7.436  0.0744 -0.0875 -0.8377
  171SOPE   H6S19325  -0.130   4.157   7.359 -0.0120 -0.4239 -0.9215
  171SOPE   C2719326  -0.316   4.148   7.488 -0.3906  0.5999  0.1897
  171SOPE   H7R19327  -0.341   4.247   7.446  0.8151  0.2872 -1.2913
  171SOPE   H7S19328  -0.405   4.082   7.489  1.2288 -1.7026 -1.8544
  171SOPE   C2819329  -0.258   4.164   7.632  0.1623  0.5153  0.4347
  171SOPE   H8R19330  -0.148   4.174   7.616  0.7755 -2.6385  2.1729
  171SOPE   H8S19331  -0.298   4.258   7.676  0.4348  0.8462 -0.0105
  171SOPE   C2919332  -0.282   4.046   7.728  0.2309  0.0153 -0.4056
  171SOPE   H9119333  -0.318   3.955   7.677  1.7866  0.7338 -2.8789
  171SOPE  C21019334  -0.273   4.042   7.866 -0.0317 -0.5810  0.1475
  171SOPE  H10119335  -0.296   3.947   7.917 -2.2455 -0.7779 -1.1742
  171SOPE  C21119336  -0.226   4.162   7.950 -0.3282 -0.2395  0.1765
  171SOPE  H11R19337  -0.197   4.241   7.878  0.3904 -0.2906  0.4048
  171SOPE  H11S19338  -0.136   4.141   8.011 -1.8055 -1.3309  2.0587
  171SOPE  C21219339  -0.341   4.203   8.043  0.9359  0.1956  0.2240
  171SOPE  H12R19340  -0.373   4.124   8.113 -2.4577  2.2378  1.0928
  171SOPE  H12S19341  -0.433   4.226   7.985  1.4315  1.0244 -0.2530
  171SOPE  C21319342  -0.320   4.339   8.119 -0.7203  0.4264  0.5930
  171SOPE  H13R19343  -0.389   4.342   8.206  0.0954 -1.0188  1.2968
  171SOPE  H13S19344  -0.348   4.422   8.050  0.2220  0.3461  0.1094
  171SOPE  C21419345  -0.184   4.352   8.173  0.2052 -0.7517 -0.1320
  171SOPE  H14R19346  -0.180   4.460   8.200  0.4227 -0.2014 -2.2564
  171SOPE  H14S19347  -0.100   4.330   8.104  0.6678  0.2455  0.0907
  171SOPE  C21519348  -0.172   4.256   8.290 -0.1057 -0.1256 -0.0667
  171SOPE  H15R19349  -0.199   4.150   8.266 -0.7844 -0.3721  1.7414
  171SOPE  H15S19350  -0.250   4.293   8.359  0.6408  0.0381  0.6915
  171SOPE  C21619351  -0.035   4.268   8.364  0.4507 -0.1209  0.5235
  171SOPE  H16R19352  -0.062   4.228   8.464 -1.5813 -0.5311 -0.1673
  171SOPE  H16S19353  -0.018   4.378   8.370 -1.3209  0.3720 -2.6437
  171SOPE  C21719354   0.085   4.206   8.305  0.5157 -0.5472  0.3154
  171SOPE  H17R19355   0.164   4.234   8.377 -1.1945  0.2812  1.9209
  171SOPE  H17S19356   0.112   4.265   8.215  0.4120 -0.1532  0.5431
  171SOPE  C21819357   0.076   4.055   8.283  0.3359  0.5167  0.2304
  171SOPE  H18R19358   0.166   4.012   8.234 -0.0995  0.0264 -0.1540
  171SOPE  H18S19359  -0.004   4.028   8.210 -1.6185  0.6739  2.2877
  171SOPE  H18T19360   0.058   3.983   8.366  0.8020  1.1099  0.8510
  171SOPE   C3319361   0.211   3.769   7.385 -1.2874 -0.2673 -0.0241
  171SOPE   H3X19362   0.283   3.846   7.347  0.7058 -1.3325  1.4944
  171SOPE   H3Y19363   0.266   3.684   7.429 -3.5542 -1.5503  0.3973
  171SOPE   C3419364   0.123   3.842   7.487  0.2049  0.0658 -0.1467
  171SOPE   H4X19365   0.046   3.900   7.432 -1.1927 -1.2268  0.4001
  171SOPE   H4Y19366   0.187   3.909   7.548  3.0949 -0.3157 -2.6175
  171SOPE   C3519367   0.047   3.737   7.577 -0.3044  0.0771 -0.0539
  171SOPE   H5X19368   0.097   3.639   7.586  0.8550  0.5529 -1.2131
  171SOPE   H5Y19369  -0.054   3.712   7.536 -1.2289  2.0673  0.9551
  171SOPE   C3619370   0.027   3.789   7.721  0.5404 -0.0336  0.5740
  171SOPE   H6X19371  -0.055   3.730   7.767  0.9415 -1.3094 -0.3011
  171SOPE   H6Y19372  -0.020   3.889   7.717 -0.5299 -0.5463  0.1080
  171SOPE   C3719373   0.152   3.805   7.809 -0.4137 -0.2199  0.1731
  171SOPE   H7X19374   0.138   3.886   7.883  2.7762  0.6849 -0.1699
  171SOPE   H7Y19375   0.239   3.834   7.747 -0.4779  0.5317  0.4359
  171SOPE   C3819376   0.191   3.683   7.897 -0.1184 -0.3915 -0.0159
  171SOPE   H8X19377   0.218   3.608   7.819  1.8144  0.3264 -0.0773
  171SOPE   H8Y19378   0.107   3.654   7.964 -1.3302  1.2842 -0.7694
  171SOPE   C3919379   0.320   3.713   7.980 -0.4255  0.3291 -0.3835
  171SOPE   H9X19380   0.310   3.815   8.025  1.2352 -0.8094  2.7502
  171SOPE   H9Y19381   0.405   3.717   7.908 -1.2884 -0.3121 -1.4363
  171SOPE  C31019382   0.358   3.608   8.091  0.3169  0.1384  0.1548
  171SOPE  H10X19383   0.400   3.520   8.039 -2.3608 -0.7035 -0.6689
  171SOPE  H10Y19384   0.266   3.582   8.148  0.5925  0.6040  0.8307
  171SOPE  C31119385   0.462   3.670   8.183  0.3819  0.6406 -0.4707
  171SOPE  H11X19386   0.523   3.750   8.135  0.0962  1.1806  0.0566
  171SOPE  H11Y19387   0.535   3.597   8.224  0.9347  1.1411 -0.5467
  171SOPE  C31219388   0.401   3.733   8.313  0.7118  0.4795  0.8000
  171SOPE  H12X19389   0.373   3.658   8.390  3.1361 -1.8430 -0.5320
  171SOPE  H12Y19390   0.307   3.784   8.284  0.4374 -1.3468 -1.6124
  171SOPE  C31319391   0.485   3.837   8.390  0.4745  0.6629 -0.7874
  171SOPE  H13X19392   0.439   3.859   8.489 -0.4002  0.8857 -1.2431
  171SOPE  H13Y19393   0.484   3.932   8.332 -2.0932  0.8734 -0.4603
  171SOPE  C31419394   0.632   3.805   8.402  0.1209  0.1001  0.5510
  171SOPE  H14X19395   0.677   3.802   8.301  0.0063 -0.3021  0.5120
  171SOPE  H14Y19396   0.643   3.709   8.458  2.6219  0.7115  1.1774
  171SOPE  C31519397   0.709   3.915   8.478 -0.1301  0.2609 -0.8408
  171SOPE  H15X19398   0.656   3.925   8.575  1.8593 -0.2362  0.3096
  171SOPE  H15Y19399   0.693   4.013   8.428 -1.4161  1.0548  1.1056
  171SOPE  C31619400   0.853   3.884   8.518  0.2488  0.5573 -0.5525
  171SOPE  H16X19401   0.871   3.776   8.537  0.0717  0.8746  1.5547
  171SOPE  H16Y19402   0.883   3.946   8.605  0.0113  1.0616 -0.8285
  171SOPE  C31719403   0.946   3.926   8.408  0.4627  0.6096  0.2559
  171SOPE  H17X19404   0.925   4.034   8.394 -1.5350 -0.0923 -2.5621
  171SOPE  H17Y19405   0.913   3.877   8.314  0.3949  1.6556 -0.2704
  171SOPE  C31819406   1.088   3.894   8.451  0.3342  0.2711 -0.2355
  171SOPE  H18X19407   1.136   3.945   8.365  1.0034  1.0164  0.5729
  171SOPE  H18Y19408   1.103   3.784   8.448 -1.3692  0.0643 -1.8670
  171SOPE  H18Z19409   1.108   3.946   8.547 -0.7584  2.1665 -1.0213
  172SOPE     N19410   1.338   5.632   6.363 -0.4455 -0.7413 -0.3251
  172SOPE   HN119411   1.381   5.698   6.432  0.9258 -0.5067 -1.3838
  172SOPE   HN219412   1.342   5.664   6.265  1.3859  0.4701  0.1077
  172SOPE   HN319413   1.240   5.620   6.396 -0.3326 -1.3974 -0.2047
  172SOPE   C1219414   1.405   5.500   6.366  0.1192 -0.2994  0.7446
  172SOPE  H12A19415   1.514   5.520   6.374  0.1143  0.0104  0.0937
  172SOPE  H12B19416   1.363   5.447   6.277 -3.1742  0.9815  1.4766
  172SOPE   C1119417   1.358   5.422   6.493  0.6920 -0.4030  0.4532
  172SOPE  H11A19418   1.401   5.479   6.578 -1.1583 -1.8542  2.3983
  172SOPE  H11B19419   1.410   5.324   6.490  0.6470 -0.4078 -0.6693
  172SOPE     P19420   1.142   5.295   6.434 -0.4593 -0.0563  0.0300
  172SOPE   O1319421   1.196   5.162   6.441  0.0358 -0.4786 -0.5242
  172SOPE   O1419422   1.123   5.348   6.301 -0.4066 -0.1909 -0.0475
  172SOPE   O1219423   1.219   5.403   6.523 -0.2110 -0.0781  0.2212
  172SOPE   O1119424   0.993   5.295   6.497  0.3355  0.6223  0.0530
  172SOPE    C119425   0.946   5.394   6.586 -0.1748 -0.3954 -1.5328
  172SOPE    HA19426   0.835   5.383   6.588 -0.1291 -0.5541  0.3325
  172SOPE    HB19427   0.979   5.494   6.552 -3.6384  1.8704  1.4754
  172SOPE    C219428   1.006   5.372   6.725 -0.6992  0.6255 -1.0788
  172SOPE    HS19429   1.113   5.401   6.726 -1.0181  1.8364  0.7095
  172SOPE   O2119430   1.012   5.224   6.752 -0.3365 -1.0483  0.3778
  172SOPE   C2119431   0.912   5.150   6.778 -0.1647  0.2788  0.0047
  172SOPE   O2219432   0.794   5.179   6.787 -0.0237  0.4784 -0.6338
  172SOPE   C2219433   0.971   5.010   6.810  0.0253 -0.3871  0.4706
  172SOPE   H2R19434   1.078   5.018   6.783  0.0541 -0.0136  0.6874
  172SOPE   H2S19435   0.918   4.938   6.744 -1.9915  1.2117  0.2606
  172SOPE    C319436   0.926   5.452   6.835  0.0322  0.2197  0.3703
  172SOPE    HX19437   0.819   5.446   6.806  0.3234 -0.2132 -0.6305
  172SOPE    HY19438   0.966   5.553   6.815  0.9647 -0.4120 -1.0495
  172SOPE   O3119439   0.948   5.403   6.969  0.5941  0.2406  0.2641
  172SOPE   C3119440   1.045   5.465   7.031  0.5444 -0.1184  0.4225
  172SOPE   O3219441   1.104   5.568   6.991  0.4898 -0.3459  0.2819
  172SOPE   C3219442   1.090   5.387   7.156 -0.0073 -0.4254  0.0677
  172SOPE   H2X19443   1.158   5.305   7.126  0.8308 -0.2706  1.4796
  172SOPE   H2Y19444   0.997   5.343   7.200 -0.1860 -0.6583 -0.5370
  172SOPE   C2319445   0.933   4.960   6.952 -0.1235  0.4269 -0.0859
  172SOPE   H3R19446   0.937   4.849   6.962 -0.3111  0.4846  0.6569
  172SOPE   H3S19447   0.825   4.984   6.961 -0.3757 -0.3968 -0.7988
  172SOPE   C2419448   1.009   5.020   7.075 -0.0188 -1.2869  0.2958
  172SOPE   H4R19449   1.119   5.010   7.083  0.2352  0.2882 -0.9974
  172SOPE   H4S19450   0.990   5.130   7.067  4.0002 -0.4622  0.9903
  172SOPE   C2519451   0.937   4.961   7.196 -0.2009 -0.4754  0.4155
  172SOPE   H5R19452   0.832   4.996   7.182  0.1057 -0.4844 -2.3375
  172SOPE   H5S19453   0.947   4.851   7.198  0.9732 -0.3840  0.0663
  172SOPE   C2619454   0.984   5.025   7.335 -0.2154  0.1530 -0.3029
  172SOPE   H6R19455   0.978   5.136   7.333 -0.4340  0.1470  0.0170
  172SOPE   H6S19456   0.905   5.002   7.409  0.0371  1.2421  0.3093
  172SOPE   C2719457   1.122   4.978   7.385 -0.9717 -0.3028  0.6289
  172SOPE   H7R19458   1.127   4.868   7.405 -0.8954 -0.6058 -0.9612
  172SOPE   H7S19459   1.191   5.006   7.303 -1.3342  0.4740  0.5871
  172SOPE   C2819460   1.180   5.043   7.512 -1.0432 -0.0921 -0.0057
  172SOPE   H8R19461   1.290   5.027   7.508 -1.4176 -2.7630  0.0111
  172SOPE   H8S19462   1.158   5.152   7.505 -1.7533 -0.3053 -1.2492
  172SOPE   C2919463   1.119   4.999   7.642 -0.0731  0.4943  0.2885
  172SOPE   H9119464   1.020   5.040   7.670 -0.7583 -1.7115  1.1645
  172SOPE  C21019465   1.163   4.911   7.738  0.3716  0.8032 -0.1305
  172SOPE  H10119466   1.103   4.897   7.829 -1.0549 -0.3374 -1.2281
  172SOPE  C21119467   1.298   4.838   7.738 -0.1007  0.3470  0.2176
  172SOPE  H11R19468   1.335   4.839   7.634 -2.6198  0.4597 -0.7229
  172SOPE  H11S19469   1.277   4.733   7.766  0.3211  0.5483  1.3194
  172SOPE  C21219470   1.400   4.890   7.838 -0.5133 -0.3317  0.2091
  172SOPE  H12R19471   1.434   4.992   7.808 -0.7002  0.0198  1.1780
  172SOPE  H12S19472   1.495   4.836   7.821  0.2346  0.8702  0.4842
  172SOPE  C21319473   1.370   4.874   7.997  0.8052  0.0672 -0.2081
  172SOPE  H13R19474   1.298   4.952   8.029 -0.3944 -1.2765  0.4144
  172SOPE  H13S19475   1.470   4.889   8.044 -0.2434 -0.0200  2.1221
  172SOPE  C21419476   1.312   4.731   8.026 -0.1095 -0.1473  0.5757
  172SOPE  H14R19477   1.387   4.656   7.992 -1.2506 -1.0603  0.0738
  172SOPE  H14S19478   1.219   4.713   7.969 -1.1559  1.9055  1.5946
  172SOPE  C21519479   1.293   4.703   8.176  0.0803 -0.0522 -0.3213
  172SOPE  H15R19480   1.252   4.600   8.175  0.1584 -0.1169  1.1736
  172SOPE  H15S19481   1.221   4.781   8.210 -0.9630 -1.9704  1.9524
  172SOPE  C21619482   1.426   4.709   8.253 -0.0243  0.2223 -0.3331
  172SOPE  H16R19483   1.484   4.800   8.227  0.6555  0.0183  0.4496
  172SOPE  H16S19484   1.501   4.637   8.213 -0.1013  0.2245 -0.4805
  172SOPE  C21719485   1.404   4.689   8.403 -0.8765 -0.4468  0.9068
  172SOPE  H17R19486   1.495   4.651   8.454 -1.4902 -1.2439  1.4284
  172SOPE  H17S19487   1.334   4.605   8.425 -0.1191 -1.6892 -1.2582
  172SOPE  C21819488   1.347   4.818   8.474 -0.7425  0.2770 -0.3822
  172SOPE  H18R19489   1.409   4.909   8.472 -0.7104  0.2963  0.8660
  172SOPE  H18S19490   1.345   4.801   8.584  2.5219  1.2926 -0.1324
  172SOPE  H18T19491   1.244   4.832   8.434 -1.9795 -0.4143  2.4380
  172SOPE   C3319492   1.163   5.483   7.260  0.2381 -0.3104  0.3392
  172SOPE   H3X19493   1.102   5.576   7.260  1.3173  0.4206  2.1302
  172SOPE   H3Y19494   1.260   5.522   7.223  0.2071  0.6623  1.2628
  172SOPE   C3419495   1.183   5.431   7.403 -0.3394  0.1709 -0.1979
  172SOPE   H4X19496   1.279   5.374   7.401 -0.0072  0.7261 -0.1101
  172SOPE   H4Y19497   1.096   5.370   7.435  1.2643 -0.7172  2.7246
  172SOPE   C3519498   1.197   5.542   7.505 -0.4196 -0.4666  0.1385
  172SOPE   H5X19499   1.098   5.592   7.517 -0.2451  0.0527 -0.5528
  172SOPE   H5Y19500   1.262   5.623   7.465 -0.4990 -0.9715 -1.0283
  172SOPE   C3619501   1.252   5.505   7.644 -0.0711  0.5949 -0.0058
  172SOPE   H6X19502   1.281   5.596   7.702  1.0407  1.2503 -1.5360
  172SOPE   H6Y19503   1.350   5.455   7.630 -1.3184 -1.6428 -0.8854
  172SOPE   C3719504   1.151   5.416   7.723 -0.4122 -0.3185  0.2671
  172SOPE   H7X19505   1.135   5.320   7.670  1.1253  0.1930 -1.1690
  172SOPE   H7Y19506   1.057   5.475   7.734  0.3232  0.3692  3.2369
  172SOPE   C3819507   1.198   5.384   7.863  0.2623  0.2683 -0.1049
  172SOPE   H8X19508   1.217   5.475   7.923 -2.4536  1.4917 -1.0344
  172SOPE   H8Y19509   1.293   5.328   7.850  0.1175 -0.2462  1.0448
  172SOPE   C3919510   1.095   5.308   7.945  0.2340 -0.6545 -0.8726
  172SOPE   H9X19511   1.074   5.219   7.882  2.3832 -1.2181 -0.8401
  172SOPE   H9Y19512   1.001   5.368   7.951 -0.6642 -2.0466 -0.8417
  172SOPE  C31019513   1.148   5.275   8.079  0.5364  1.0341 -0.1980
  172SOPE  H10X19514   1.256   5.260   8.058  0.5565  0.6101  0.1980
  172SOPE  H10Y19515   1.093   5.181   8.100  1.2402  0.9201  1.1749
  172SOPE  C31119516   1.131   5.388   8.186  0.0738 -0.2635 -0.5265
  172SOPE  H11X19517   1.022   5.406   8.199 -0.1692 -1.5941 -0.6172
  172SOPE  H11Y19518   1.156   5.479   8.128 -0.4899  0.0446 -0.2819
  172SOPE  C31219519   1.199   5.377   8.320 -0.9227 -0.2362 -0.7899
  172SOPE  H12X19520   1.303   5.352   8.291 -1.0753  1.2354 -2.6999
  172SOPE  H12Y19521   1.153   5.291   8.375  0.6789 -1.2647 -1.0181
  172SOPE  C31319522   1.195   5.498   8.413 -0.1676  0.2959 -0.1885
  172SOPE  H13X19523   1.091   5.536   8.426 -0.4039 -0.4777  0.2074
  172SOPE  H13Y19524   1.258   5.578   8.369  0.1221  0.8129  1.1558
  172SOPE  C31419525   1.249   5.450   8.547  0.1483  0.5163  0.0130
  172SOPE  H14X19526   1.274   5.536   8.613 -4.4789  1.8173  0.2293
  172SOPE  H14Y19527   1.342   5.390   8.541 -0.9410 -1.2096  0.0625
  172SOPE  C31519528   1.154   5.362   8.637  0.0722  0.4472 -0.4149
  172SOPE  H15X19529   1.102   5.285   8.576 -0.4997  0.1262  0.4678
  172SOPE  H15Y19530   1.083   5.440   8.670  0.0323  0.8133 -1.3614
  172SOPE  C31619531   1.214   5.314   8.770 -0.7628  0.1305  0.5522
  172SOPE  H16X19532   1.282   5.392   8.810  1.3584 -1.5496  0.3281
  172SOPE  H16Y19533   1.276   5.223   8.753 -0.0706  0.5860  0.6213
  172SOPE  C31719534   1.113   5.270   8.879 -0.0993  0.3214 -0.2585
  172SOPE  H17X19535   1.046   5.357   8.895 -0.7980  0.3518 -2.9938
  172SOPE  H17Y19536   1.163   5.244   8.974  1.0652  2.0044 -0.3967
  172SOPE  C31819537   1.038   5.142   8.854 -0.3036  0.2875 -0.4714
  172SOPE  H18X19538   0.975   5.125   8.944  2.1611  0.3725  1.3268
  172SOPE  H18Y19539   1.107   5.059   8.827 -0.6577 -0.0405 -0.3726
  172SOPE  H18Z19540   0.971   5.157   8.767  0.1780  3.0832 -0.4013
  173SAPI   C1219541   2.872   3.665  11.107 -0.1949 -0.2737  0.3822
  173SAPI    H219542   2.813   3.660  11.013  0.5886  1.6643 -0.2399
  173SAPI    O219543   2.978   3.757  11.095  0.8392 -0.3442 -0.2452
  173SAPI   HO219544   3.038   3.717  11.033  1.6257  0.4060  0.0134
  173SAPI   C1319545   2.779   3.697  11.218 -0.0686 -0.6260  0.1171
  173SAPI    H319546   2.694   3.626  11.226  0.5569 -1.3455  0.5092
  173SAPI    O319547   2.723   3.832  11.207  0.6124  0.1229  0.6848
  173SAPI   HO319548   2.799   3.886  11.187  0.4073 -0.0165 -0.4911
  173SAPI   C1419549   2.848   3.683  11.356 -0.0660  0.8336 -0.0838
  173SAPI    H419550   2.939   3.747  11.362  0.8820 -0.5227  0.3191
  173SAPI    O419551   2.770   3.725  11.469  0.5665 -0.3343  0.1411
  173SAPI   HO419552   2.708   3.657  11.494 -1.8185  1.3474 -1.0884
  173SAPI   C1519553   2.919   3.543  11.371  0.0723  0.0457 -0.0552
  173SAPI    H519554   2.832   3.474  11.376 -2.0257  2.4834 -1.4467
  173SAPI    O519555   2.993   3.523  11.486 -0.1554  0.1682  0.0907
  173SAPI   HO519556   2.940   3.461  11.536  2.2970 -1.6601  0.5564
  173SAPI   C1619557   3.010   3.506  11.248  0.4100  0.1370 -0.2536
  173SAPI    H619558   3.100   3.570  11.246  0.3432  0.2027 -1.1300
  173SAPI    O619559   3.056   3.373  11.255 -0.2143  0.3762  0.3516
  173SAPI   HO619560   3.080   3.345  11.344 -3.1395 -2.7874  0.2423
  173SAPI   C1119561   2.930   3.526  11.119 -0.2490  0.0037 -0.4548
  173SAPI    H119562   2.850   3.448  11.125  0.3586 -0.5708  0.2641
  173SAPI     P19563   2.968   3.425  10.858  0.6452  0.1607 -0.3935
  173SAPI   O1319564   2.931   3.285  10.882  0.2629  0.9411 -0.3714
  173SAPI   O1419565   3.079   3.448  10.765  0.3533  0.0691  0.2825
  173SAPI   O1219566   3.011   3.507  10.999 -0.0605  0.1874  0.4300
  173SAPI   O1119567   2.845   3.511  10.803 -0.3865 -0.4555 -0.2308
  173SAPI    C119568   2.754   3.455  10.713 -0.9078  0.1507  0.2697
  173SAPI    HA19569   2.752   3.345  10.721  0.1241 -0.1266 -2.4874
  173SAPI    HB19570   2.658   3.511  10.714  0.6930  3.0208 -0.4289
  173SAPI    C219571   2.799   3.472  10.564 -0.0630 -0.8096 -0.7403
  173SAPI    HS19572   2.873   3.390  10.553  0.2467 -0.3326 -2.2935
  173SAPI   O2119573   2.856   3.599  10.545 -0.1378  0.1158 -0.1736
  173SAPI   C2119574   2.974   3.599  10.480 -0.2147  0.8807  0.5814
  173SAPI   O2219575   3.030   3.503  10.426 -0.1411  0.0248 -0.1860
  173SAPI   C2219576   3.021   3.742  10.485  0.1083  0.5190 -0.6904
  173SAPI   H2R19577   2.930   3.802  10.463  0.3257  0.9661 -0.3875
  173SAPI   H2S19578   3.053   3.752  10.591 -0.0274  0.6080 -0.6573
  173SAPI    C319579   2.672   3.444  10.481 -0.0620  0.0881 -0.0278
  173SAPI    HX19580   2.597   3.521  10.511 -2.2256 -2.1665  0.5161
  173SAPI    HY19581   2.626   3.350  10.520 -2.9237  1.8460  1.0635
  173SAPI   O3119582   2.697   3.450  10.341 -0.1296  0.1118 -0.1431
  173SAPI   C3119583   2.714   3.339  10.281 -0.0033  0.2602 -0.1191
  173SAPI   O3219584   2.701   3.220  10.323 -0.5603 -0.2186 -0.6484
  173SAPI   C3219585   2.737   3.372  10.133 -0.1593 -0.6485 -0.3430
  173SAPI   H2X19586   2.646   3.433  10.111 -0.9864 -0.5827  2.9926
  173SAPI   H2Y19587   2.738   3.280  10.072  1.2308 -1.0666  0.2980
  173SAPI   C2319588   3.140   3.782  10.396 -0.6843  0.1111  0.8326
  173SAPI   H3R19589   3.215   3.700  10.399  0.6839  1.1893 -2.0764
  173SAPI   H3S19590   3.174   3.875  10.447  1.1861 -0.0998  0.0055
  173SAPI   C2419591   3.097   3.809  10.243  0.4068  0.2564 -0.3697
  173SAPI   H4R19592   3.018   3.887  10.254 -0.3808 -0.2796 -2.0339
  173SAPI   H4S19593   3.043   3.717  10.212 -0.7574 -0.7069  4.0943
  173SAPI   C2519594   3.207   3.854  10.155 -0.0386 -0.8103 -0.1556
  173SAPI   H5R19595   3.290   3.904  10.206 -1.0193 -0.9930  1.6608
  173SAPI   C2619596   3.207   3.854  10.022 -0.3963  0.2614  0.2445
  173SAPI   H6R19597   3.300   3.878   9.968  0.6937  1.5172  2.6156
  173SAPI   C2719598   3.104   3.805   9.914 -0.1447  0.3947  0.7279
  173SAPI   H7R19599   3.024   3.752   9.970 -0.0941  1.3084  1.6915
  173SAPI   H7S19600   3.154   3.730   9.849  0.8575  1.0098  0.7775
  173SAPI   C2819601   3.053   3.927   9.832 -0.3232 -0.8265 -0.0895
  173SAPI   H8R19602   3.049   4.025   9.881 -0.3199 -0.6284 -0.4771
  173SAPI   C2919603   3.024   3.922   9.696  0.3270 -0.4425 -0.2888
  173SAPI   H9R19604   2.979   4.010   9.648  1.6485 -0.2801 -1.2621
  173SAPI  C21019605   3.037   3.805   9.602  0.0435  0.5463  0.4478
  173SAPI  H10R19606   3.106   3.730   9.646 -0.2047  0.5421  0.8349
  173SAPI  H10S19607   3.075   3.835   9.502 -1.8133  0.7450 -0.2177
  173SAPI  C21119608   2.900   3.742   9.596 -0.1489  0.1089 -0.1473
  173SAPI  H11R19609   2.846   3.719   9.689 -2.1319 -2.9832 -1.9857
  173SAPI  C21219610   2.833   3.710   9.483  0.4398  0.2607 -0.6909
  173SAPI  H12R19611   2.752   3.636   9.489 -0.3442  1.2088  0.8787
  173SAPI  C21319612   2.889   3.732   9.345  0.5110  0.3060 -0.5185
  173SAPI  H13R19613   2.923   3.634   9.305 -0.1353  0.5022 -1.5777
  173SAPI  H13S19614   2.976   3.798   9.327  1.0899 -0.4382 -0.4720
  173SAPI  C21419615   2.764   3.778   9.270 -0.3112 -0.4030 -0.0562
  173SAPI  H14R19616   2.704   3.691   9.238 -2.4590  1.4247 -1.1471
  173SAPI  C21519617   2.741   3.901   9.223 -0.3614  0.3171  0.0647
  173SAPI  H15R19618   2.644   3.917   9.172 -1.0587 -0.0550  1.2411
  173SAPI  C21619619   2.813   4.024   9.241  0.7331  0.0961  0.3143
  173SAPI  H16R19620   2.910   4.009   9.292  0.7382  0.6149  0.4663
  173SAPI  H16S19621   2.750   4.091   9.304 -0.7407 -3.3998  2.6871
  173SAPI  C21719622   2.836   4.100   9.107 -0.1982 -0.7788  0.9357
  173SAPI  H17R19623   2.914   4.172   9.139 -1.3206  0.8728 -0.0092
  173SAPI  H17S19624   2.745   4.158   9.082  1.0991  0.6297 -0.5563
  173SAPI  C21819625   2.908   4.014   8.987  0.2006  0.2841  0.4090
  173SAPI  H18R19626   2.839   3.931   8.961 -0.6664  0.6988  1.3661
  173SAPI  H18S19627   3.000   3.966   9.026  0.4046  0.2060 -0.1647
  173SAPI  C21919628   2.924   4.098   8.856  0.1019 -0.4065  0.1712
  173SAPI  H19R19629   2.854   4.184   8.854 -0.7618 -1.1323 -0.8751
  173SAPI  H19S19630   2.896   4.027   8.775  0.8257 -1.4427  0.8068
  173SAPI  C22019631   3.073   4.148   8.830 -0.1283 -0.8767  0.0294
  173SAPI  H20R19632   3.148   4.079   8.875  1.2821  1.4645  1.3740
  173SAPI  H20S19633   3.092   4.245   8.881 -1.0684 -1.8318  2.2752
  173SAPI  H20T19634   3.084   4.163   8.721  2.0246  2.2155  0.6023
  173SAPI   C3319635   2.862   3.454  10.117  0.2431 -0.1861  0.4394
  173SAPI   H3X19636   2.941   3.396  10.170  0.0710  0.7039  1.6805
  173SAPI   H3Y19637   2.849   3.558  10.152  0.7422  0.9414 -2.5548
  173SAPI   C3419638   2.913   3.477   9.973 -0.3643 -0.2189 -0.8809
  173SAPI   H4X19639   3.004   3.541   9.978  0.1867 -0.7312 -3.4199
  173SAPI   H4Y19640   2.833   3.542   9.932 -0.4103 -1.4036 -2.7249
  173SAPI   C3519641   2.945   3.351   9.891  0.0203 -0.3649 -0.1245
  173SAPI   H5X19642   2.887   3.268   9.938  2.9240 -2.3784  0.0689
  173SAPI   H5Y19643   3.050   3.331   9.922  0.3338  1.3109 -0.0582
  173SAPI   C3619644   2.919   3.373   9.751  0.3973 -0.7443  0.6773
  173SAPI   H6X19645   2.996   3.446   9.716 -0.6383  0.2631  0.4821
  173SAPI   H6Y19646   2.818   3.406   9.718  1.4212 -0.0175 -1.9040
  173SAPI   C3719647   2.954   3.251   9.662  0.7556  0.3495  0.4776
  173SAPI   H7X19648   2.906   3.160   9.705  1.1432 -0.9353 -1.7489
  173SAPI   H7Y19649   3.065   3.245   9.656  0.6044 -1.2910 -1.3183
  173SAPI   C3819650   2.906   3.271   9.517  1.0607  0.0971  0.5846
  173SAPI   H8X19651   2.953   3.359   9.467 -0.9730  0.6948 -0.3463
  173SAPI   H8Y19652   2.796   3.289   9.518  0.9832 -0.3900  0.9289
  173SAPI   C3919653   2.933   3.145   9.428  0.2595  0.2814 -0.3699
  173SAPI   H9X19654   2.926   3.054   9.492 -0.3111 -1.3898 -2.7272
  173SAPI   H9Y19655   3.036   3.141   9.386 -0.0336 -1.6326 -0.9883
  173SAPI  C31019656   2.831   3.127   9.312  0.6682  0.0981 -0.6206
  173SAPI  H10X19657   2.798   3.227   9.276  0.4891  0.9069  1.6777
  173SAPI  H10Y19658   2.741   3.063   9.324  0.1507  0.7253 -1.0916
  173SAPI  C31119659   2.902   3.063   9.188 -0.4003  0.3057  0.0482
  173SAPI  H11X19660   2.929   2.966   9.235 -1.3192 -0.2571 -0.5670
  173SAPI  H11Y19661   2.992   3.121   9.158  0.3734  0.0098  1.7394
  173SAPI  C31219662   2.818   3.036   9.062 -0.9164  0.3530  0.2601
  173SAPI  H12X19663   2.769   3.134   9.049 -2.9971 -0.1630  3.5492
  173SAPI  H12Y19664   2.732   2.965   9.061 -0.6234 -0.0414  1.6205
  173SAPI  C31319665   2.904   3.017   8.935  0.1828 -0.0573  0.4472
  173SAPI  H13X19666   2.949   2.916   8.947 -1.1885 -0.9079 -1.2567
  173SAPI  H13Y19667   2.987   3.088   8.955 -1.1302  1.1037  1.9262
  173SAPI  C31419668   2.841   3.041   8.799  0.9177 -0.4577 -0.5420
  173SAPI  H14X19669   2.751   2.977   8.786 -0.4111  0.9037  1.6376
  173SAPI  H14Y19670   2.906   3.000   8.720 -1.3837 -0.6043 -2.4281
  173SAPI  C31519671   2.822   3.193   8.765 -0.2354 -0.3446  0.2828
  173SAPI  H15X19672   2.898   3.254   8.818 -0.6858 -0.5502  1.1778
  173SAPI  H15Y19673   2.725   3.232   8.803 -0.8162 -0.7321 -0.7877
  173SAPI  C31619674   2.847   3.210   8.614  0.0333 -1.1121 -0.1792
  173SAPI  H16X19675   2.771   3.143   8.570  0.0351 -0.7078 -0.8033
  173SAPI  H16Y19676   2.948   3.183   8.576 -0.2157 -1.5022 -0.5593
  173SAPI  C31719677   2.806   3.355   8.572  0.0277  0.2430  0.2292
  173SAPI  H17X19678   2.879   3.431   8.606 -1.4621  3.2623 -3.0629
  173SAPI  H17Y19679   2.705   3.378   8.613  0.7351  2.7643  0.6577
  173SAPI  C31819680   2.798   3.364   8.423 -0.2591 -0.0328 -0.0339
  173SAPI  H18X19681   2.768   3.467   8.393  0.9835  0.4055  0.1711
  173SAPI  H18Y19682   2.718   3.301   8.380 -0.9215 -0.1659  1.3716
  173SAPI  H18Z19683   2.898   3.348   8.377 -0.2418 -2.1530  0.7107
  174SAPI   C1219684   6.062   4.262  10.836  0.5219 -0.2912 -0.3355
  174SAPI    H219685   6.133   4.341  10.805  2.8192 -1.7830  0.9964
  174SAPI    O219686   5.959   4.250  10.735  0.6155 -0.0514 -0.7066
  174SAPI   HO219687   6.004   4.284  10.656  1.0026 -1.5409 -1.1389
  174SAPI   C1319688   6.132   4.131  10.859  0.7224 -0.7096 -0.3215
  174SAPI    H319689   6.211   4.141  10.937 -0.6647  1.9708  0.7928
  174SAPI    O319690   6.196   4.087  10.737  0.2504 -0.2184  0.9107
  174SAPI   HO319691   6.251   4.162  10.714  1.6135 -1.2481  0.7487
  174SAPI   C1419692   6.026   4.026  10.911 -0.1701 -0.6147 -0.2272
  174SAPI    H419693   5.948   4.014  10.833  0.9551  0.4209 -1.5370
  174SAPI    O419694   6.085   3.901  10.934  0.7279  0.3516 -1.2594
  174SAPI   HO419695   6.097   3.851  10.853 -1.6140 -1.8741 -0.3116
  174SAPI   C1519696   5.953   4.075  11.038 -0.0940 -0.3244  0.7455
  174SAPI    H519697   6.037   4.077  11.110 -1.3362  1.4818  2.1896
  174SAPI    O519698   5.860   3.979  11.079  0.6557  0.2018  0.5814
  174SAPI   HO519699   5.805   3.957  11.004 -0.9488  1.4688  1.3445
  174SAPI   C1619700   5.892   4.220  11.019 -0.8143 -0.0508 -0.4697
  174SAPI    H619701   5.806   4.210  10.949 -0.8205  2.3830 -0.8746
  174SAPI    O619702   5.847   4.265  11.146  0.2429 -0.0067  0.4256
  174SAPI   HO619703   5.929   4.276  11.195  1.1002  0.5023 -1.0935
  174SAPI   C1119704   6.007   4.313  10.968  0.2719 -0.3748 -0.6432
  174SAPI    H119705   6.090   4.310  11.041  0.6272 -0.0733 -1.0314
  174SAPI     P19706   6.039   4.585  10.937  0.3644 -0.2609 -0.2302
  174SAPI   O1319707   6.187   4.580  10.963 -0.2110  0.2820  0.5958
  174SAPI   O1419708   5.967   4.692  11.018 -0.4973 -0.1235 -0.1386
  174SAPI   O1219709   5.955   4.447  10.955 -0.0736 -0.3050  0.0561
  174SAPI   O1119710   6.023   4.617  10.782  0.0706 -0.2120 -0.0875
  174SAPI    C119711   5.910   4.673  10.716 -0.9685  0.1923 -0.5587
  174SAPI    HA19712   5.825   4.668  10.788 -0.5936  1.9146  0.0531
  174SAPI    HB19713   5.925   4.779  10.685  0.2895  0.0489 -0.4684
  174SAPI    C219714   5.895   4.586  10.598 -0.6333  0.0618 -0.1184
  174SAPI    HS19715   5.893   4.483  10.640  0.0627 -0.8447 -2.2535
  174SAPI   O2119716   6.007   4.613  10.508  0.5679 -0.1863  0.6334
  174SAPI   C2119717   6.069   4.499  10.474  0.7546 -0.2199  0.1472
  174SAPI   O2219718   6.050   4.389  10.522 -0.6258 -0.0584 -0.4327
  174SAPI   C2219719   6.172   4.530  10.360  0.0348 -0.3818  0.1960
  174SAPI   H2R19720   6.108   4.564  10.275 -0.3469 -2.4799 -0.3853
  174SAPI   H2S19721   6.232   4.617  10.395  0.8314 -0.9867  0.3161
  174SAPI    C319722   5.753   4.596  10.527  0.2201 -0.8919 -0.0478
  174SAPI    HX19723   5.719   4.702  10.520 -2.4966 -1.7429 -0.5492
  174SAPI    HY19724   5.673   4.560  10.595  0.9767  0.4877  1.6358
  174SAPI   O3119725   5.763   4.550  10.398 -0.3226 -0.2216  0.1538
  174SAPI   C3119726   5.694   4.440  10.368  0.1843  0.3584 -0.3233
  174SAPI   O3219727   5.602   4.393  10.434 -0.2189 -0.0932 -0.2572
  174SAPI   C3219728   5.754   4.371  10.248 -0.4069 -0.4513 -0.2535
  174SAPI   H2X19729   5.700   4.279  10.217 -2.3918  0.2923  0.8680
  174SAPI   H2Y19730   5.858   4.348  10.280  0.7019  1.5467 -2.3531
  174SAPI   C2319731   6.241   4.395  10.325 -0.0814  0.3413 -0.7636
  174SAPI   H3R19732   6.165   4.317  10.301  1.4096 -1.5089  0.3211
  174SAPI   H3S19733   6.310   4.361  10.405 -2.5076 -1.2052  0.7319
  174SAPI   C2419734   6.334   4.400  10.191 -0.8783 -0.0733 -0.1803
  174SAPI   H4R19735   6.379   4.298  10.186 -0.8024  0.0070 -1.4823
  174SAPI   H4S19736   6.421   4.467  10.207  0.3708 -1.3623 -1.4147
  174SAPI   C2519737   6.261   4.429  10.061  0.8001 -0.7601  0.0201
  174SAPI   H5R19738   6.213   4.528  10.058  0.7550 -0.7784  0.1212
  174SAPI   C2619739   6.261   4.348   9.955 -0.8426  0.4405  1.1508
  174SAPI   H6R19740   6.207   4.393   9.871 -1.5718  0.5065  1.6474
  174SAPI   C2719741   6.322   4.216   9.925  0.3542 -0.1390  0.1917
  174SAPI   H7R19742   6.238   4.152   9.891  1.1661  0.2351 -2.7037
  174SAPI   H7S19743   6.363   4.165  10.015  0.8047  0.5145  0.3639
  174SAPI   C2819744   6.422   4.216   9.814 -0.9776  0.3646 -0.5259
  174SAPI   H8R19745   6.523   4.220   9.857 -1.2218  1.1624 -0.0142
  174SAPI   C2919746   6.396   4.223   9.683  0.0473 -0.2769  1.2192
  174SAPI   H9R19747   6.480   4.230   9.612  1.7464  2.5777  3.3572
  174SAPI  C21019748   6.260   4.220   9.626  0.0873  0.0436  0.0881
  174SAPI  H10R19749   6.265   4.302   9.551  1.4582 -0.1246 -0.0049
  174SAPI  H10S19750   6.178   4.239   9.699  0.3012  1.7376 -0.0818
  174SAPI  C21119751   6.236   4.079   9.570 -0.3312  0.0685  0.2479
  174SAPI  H11R19752   6.248   4.003   9.648 -1.9164 -0.6125 -0.1535
  174SAPI  C21219753   6.221   4.041   9.440  0.0236 -0.3077  0.0019
  174SAPI  H12R19754   6.207   3.936   9.411 -1.0997 -0.5884  1.5365
  174SAPI  C21319755   6.211   4.132   9.324  0.6121 -0.3434  0.5806
  174SAPI  H13R19756   6.212   4.239   9.354 -1.4964  0.2519 -1.3577
  174SAPI  H13S19757   6.108   4.121   9.285  0.6465  1.2307  0.0412
  174SAPI  C21419758   6.312   4.103   9.218 -0.0669 -0.1446  0.8312
  174SAPI  H14R19759   6.411   4.150   9.228  0.3374 -1.2539  2.1238
  174SAPI  C21519760   6.300   4.022   9.113 -0.1805  0.0447  0.1321
  174SAPI  H15R19761   6.392   4.013   9.053  0.2474  0.6841  0.6759
  174SAPI  C21619762   6.179   3.934   9.077 -0.4269 -0.5706  0.0343
  174SAPI  H16R19763   6.133   3.986   8.990 -0.7630 -0.9882 -0.0372
  174SAPI  H16S19764   6.113   3.925   9.166 -0.9665 -0.2412 -0.3275
  174SAPI  C21719765   6.218   3.788   9.038 -0.7027  0.3808 -0.1666
  174SAPI  H17R19766   6.278   3.748   9.123 -0.8896  1.3159  0.4106
  174SAPI  H17S19767   6.281   3.800   8.947  0.3584 -0.1691  0.4784
  174SAPI  C21819768   6.091   3.694   9.017 -0.0368 -0.2018 -0.6899
  174SAPI  H18R19769   6.030   3.751   8.944 -1.7359 -0.5155  0.4346
  174SAPI  H18S19770   6.035   3.688   9.113 -0.6033  2.2417 -0.8302
  174SAPI  C21919771   6.127   3.554   8.964 -0.3711 -0.3231  0.4552
  174SAPI  H19R19772   6.032   3.496   8.965  0.1524 -1.1889  0.9385
  174SAPI  H19S19773   6.202   3.500   9.025 -0.3812 -1.2348 -0.3176
  174SAPI  C22019774   6.177   3.553   8.817 -0.6434 -0.0065  0.3535
  174SAPI  H20R19775   6.276   3.599   8.797  0.0850 -1.0093  1.5570
  174SAPI  H20S19776   6.102   3.611   8.760  1.2324  1.2565 -0.8814
  174SAPI  H20T19777   6.169   3.450   8.776 -1.0756  0.7242 -1.4387
  174SAPI   C3319778   5.755   4.466  10.120  0.2079  0.1474 -0.0685
  174SAPI   H3X19779   5.761   4.574  10.145  0.1481 -0.1634  1.3336
  174SAPI   H3Y19780   5.660   4.437  10.072 -1.1309  2.9079  0.8320
  174SAPI   C3419781   5.854   4.433  10.014  0.2634 -0.0113  0.1933
  174SAPI   H4X19782   5.871   4.324  10.002  0.5023  0.0782 -0.2831
  174SAPI   H4Y19783   5.953   4.475  10.043  0.4137  0.3050 -0.7525
  174SAPI   C3519784   5.813   4.497   9.885 -0.0546  0.1278  0.7129
  174SAPI   H5X19785   5.809   4.608   9.897 -1.5319  0.3305 -1.5027
  174SAPI   H5Y19786   5.712   4.467   9.851 -0.3556  1.8676  0.0365
  174SAPI   C3619787   5.921   4.461   9.783 -0.1395 -0.2346  0.1751
  174SAPI   H6X19788   5.926   4.350   9.781 -0.4732 -0.2327 -1.2110
  174SAPI   H6Y19789   6.015   4.510   9.818 -0.7890 -0.5621  2.4484
  174SAPI   C3719790   5.891   4.512   9.645  0.4028  0.1410  0.5248
  174SAPI   H7X19791   5.853   4.616   9.643  0.2841  0.1811  2.9550
  174SAPI   H7Y19792   5.797   4.457   9.625  0.5919  0.0884 -0.2108
  174SAPI   C3819793   6.002   4.503   9.542  0.7763  0.0894  0.1856
  174SAPI   H8X19794   6.034   4.397   9.544 -2.2638 -0.8597  1.3587
  174SAPI   H8Y19795   6.092   4.562   9.570 -0.9628  2.0050  1.9131
  174SAPI   C3919796   5.954   4.569   9.408  0.1035 -0.1233 -0.0743
  174SAPI   H9X19797   5.952   4.680   9.414  0.5873 -0.1021 -0.2630
  174SAPI   H9Y19798   5.849   4.534   9.394  0.1066 -0.0008 -0.3941
  174SAPI  C31019799   6.043   4.517   9.295  0.4211 -0.5022  0.2484
  174SAPI  H10X19800   6.063   4.408   9.300 -0.3010 -0.5876  1.5024
  174SAPI  H10Y19801   6.146   4.556   9.306  0.1986  0.7082 -1.7736
  174SAPI  C31119802   5.968   4.549   9.158 -0.1735 -0.8031  0.1985
  174SAPI  H11X19803   5.942   4.657   9.152  0.4816 -0.6837 -0.6277
  174SAPI  H11Y19804   5.874   4.490   9.160 -0.3362 -0.6419 -1.5158
  174SAPI  C31219805   6.021   4.485   9.028  0.1087  0.5590  0.2177
  174SAPI  H12X19806   6.127   4.517   9.020  0.2209  1.0792  3.2476
  174SAPI  H12Y19807   5.974   4.522   8.934 -0.1203  0.1119  0.1543
  174SAPI  C31319808   6.015   4.334   9.002  0.1668  0.7235 -0.0931
  174SAPI  H13X19809   5.914   4.291   8.984  0.9809 -1.0514 -0.5848
  174SAPI  H13Y19810   6.077   4.266   9.066 -2.1637 -1.0589  0.3436
  174SAPI  C31419811   6.090   4.292   8.868  0.5853 -0.3112 -0.5253
  174SAPI  H14X19812   6.114   4.185   8.888 -0.0254  0.0877  2.5984
  174SAPI  H14Y19813   6.186   4.348   8.873 -0.2541  0.9697  3.0276
  174SAPI  C31519814   6.020   4.321   8.730 -0.0052 -0.1339 -0.9289
  174SAPI  H15X19815   5.999   4.430   8.733  2.6910  0.4019  0.5989
  174SAPI  H15Y19816   5.918   4.278   8.726  0.8073 -2.1718 -0.4389
  174SAPI  C31619817   6.095   4.295   8.602  0.1377  0.1555  0.4532
  174SAPI  H16X19818   6.179   4.368   8.591 -1.7495  2.3374  0.2529
  174SAPI  H16Y19819   6.021   4.306   8.520 -0.9412 -0.8263  1.2779
  174SAPI  C31719820   6.138   4.148   8.593  1.2342  0.0665 -0.0943
  174SAPI  H17X19821   6.051   4.083   8.616  1.7868 -1.5338 -2.3758
  174SAPI  H17Y19822   6.214   4.143   8.673 -0.4265  3.2729  1.8159
  174SAPI  C31819823   6.195   4.107   8.458  0.1578  0.5943 -0.3303
  174SAPI  H18X19824   6.279   4.173   8.429 -0.0731 -0.3419 -3.2848
  174SAPI  H18Y19825   6.118   4.098   8.379  1.0355 -0.8285 -1.0294
  174SAPI  H18Z19826   6.240   4.005   8.459 -0.2918  0.3924 -0.5332
  175SAPI   C1219827   1.238   2.143   6.246  0.8569  0.0957  0.9251
  175SAPI    H219828   1.190   2.043   6.258 -0.1196  0.5052  0.4736
  175SAPI    O219829   1.317   2.135   6.129  0.1190 -0.4686  0.2234
  175SAPI   HO219830   1.353   2.046   6.127 -1.4419 -1.2196  2.8079
  175SAPI   C1319831   1.133   2.252   6.231  0.1435  0.4176 -0.6985
  175SAPI    H319832   1.083   2.253   6.330  1.4768 -0.3328  0.0016
  175SAPI    O319833   1.035   2.226   6.134 -0.1967 -0.7018 -0.2943
  175SAPI   HO319834   0.955   2.275   6.158  0.6641  0.6205 -0.0650
  175SAPI   C1419835   1.197   2.387   6.212  0.1529  0.2212 -0.0279
  175SAPI    H419836   1.262   2.375   6.124  1.9402 -0.7187  1.3950
  175SAPI    O419837   1.100   2.492   6.185 -0.1107 -0.0364 -0.2871
  175SAPI   HO419838   1.029   2.488   6.250  1.4677  1.4162  1.5944
  175SAPI   C1519839   1.287   2.419   6.334 -0.7024  0.1472  0.4283
  175SAPI    H519840   1.217   2.415   6.420 -1.5653  0.4673 -0.2430
  175SAPI    O519841   1.336   2.551   6.333  0.1608 -0.4916 -0.0431
  175SAPI   HO519842   1.345   2.579   6.425  0.2836 -0.6158 -0.0167
  175SAPI   C1619843   1.391   2.308   6.369  0.4736 -0.0776  0.0364
  175SAPI    H619844   1.479   2.318   6.302  1.0887 -0.3808  0.7772
  175SAPI    O619845   1.444   2.335   6.494 -0.1227  0.0205  0.1991
  175SAPI   HO619846   1.518   2.276   6.510 -0.1008  0.2507  0.9680
  175SAPI   C1119847   1.325   2.163   6.372 -0.0232 -0.6778  0.1853
  175SAPI    H119848   1.257   2.168   6.459  0.4027 -1.9737  0.6074
  175SAPI     P19849   1.410   1.928   6.471 -0.0337 -0.0502 -0.0070
  175SAPI   O1319850   1.517   1.835   6.441  0.0811 -0.7165 -0.2824
  175SAPI   O1419851   1.274   1.879   6.442  0.2792 -0.3934 -0.2110
  175SAPI   O1219852   1.430   2.066   6.378 -0.6014  0.1229 -0.1175
  175SAPI   O1119853   1.430   1.971   6.619 -0.4677 -0.2903  0.6811
  175SAPI    C119854   1.328   1.939   6.710  0.3297  0.1082  0.0553
  175SAPI    HA19855   1.230   1.987   6.688  0.6982  0.4393 -0.8972
  175SAPI    HB19856   1.311   1.829   6.715  0.3044  0.1494  1.0221
  175SAPI    C219857   1.372   1.989   6.850 -0.3241  0.5948 -0.3225
  175SAPI    HS19858   1.294   1.943   6.915 -1.8352 -0.1025 -2.5696
  175SAPI   O2119859   1.381   2.129   6.845  0.2019  0.0362  0.1747
  175SAPI   C2119860   1.267   2.199   6.825  0.5830 -0.5645 -0.1561
  175SAPI   O2219861   1.155   2.152   6.818  0.2189 -0.3546  0.6013
  175SAPI   C2219862   1.310   2.342   6.817  0.1606 -0.1613  0.4635
  175SAPI   H2R19863   1.387   2.374   6.890  1.1442 -1.6680  0.1047
  175SAPI   H2S19864   1.343   2.355   6.712 -0.0441  2.5577  0.7042
  175SAPI    C319865   1.504   1.934   6.905 -0.6349  0.2991 -0.5394
  175SAPI    HX19866   1.590   1.975   6.848 -0.8190 -1.2181 -1.9304
  175SAPI    HY19867   1.503   1.825   6.888 -0.1468  0.4472 -1.5671
  175SAPI   O3119868   1.522   1.950   7.046 -0.1317 -0.4811 -0.1220
  175SAPI   C3119869   1.604   2.048   7.079 -0.4273 -0.6832 -0.2288
  175SAPI   O3219870   1.635   2.143   7.009  0.4157 -0.2965  0.2373
  175SAPI   C3219871   1.617   2.055   7.230  0.0600 -0.2184  0.7199
  175SAPI   H2X19872   1.615   1.949   7.264  2.9554 -1.2529 -2.0538
  175SAPI   H2Y19873   1.529   2.104   7.277 -2.3224 -2.8500 -0.9062
  175SAPI   C2319874   1.190   2.441   6.834  0.1969 -0.0190 -0.3041
  175SAPI   H3R19875   1.109   2.410   6.765  1.8416  0.6955 -2.5901
  175SAPI   H3S19876   1.218   2.541   6.795 -0.5669  0.2002 -0.2882
  175SAPI   C2419877   1.135   2.456   6.975 -0.0042 -0.3816 -0.0518
  175SAPI   H4R19878   1.062   2.373   6.990 -0.4732 -0.0139 -0.2988
  175SAPI   H4S19879   1.065   2.542   6.978 -2.0316 -1.9400 -1.0320
  175SAPI   C2519880   1.227   2.468   7.099 -0.3098  0.8083  0.3530
  175SAPI   H5R19881   1.295   2.555   7.091  1.3394 -0.5854 -1.0058
  175SAPI   C2619882   1.225   2.393   7.211 -0.3976 -0.4886  1.0687
  175SAPI   H6R19883   1.305   2.413   7.284  1.1504  2.3429 -1.2921
  175SAPI   C2719884   1.139   2.274   7.230  0.8075  0.7312  0.5578
  175SAPI   H7R19885   1.047   2.270   7.168  1.6976 -0.5396 -0.6969
  175SAPI   H7S19886   1.083   2.272   7.326 -1.3419  0.0608 -0.6684
  175SAPI   C2819887   1.217   2.144   7.209 -0.3520  0.1055  0.5199
  175SAPI   H8R19888   1.246   2.115   7.107  0.0414  1.3825  0.2578
  175SAPI   C2919889   1.266   2.071   7.314 -0.2701  0.5380 -0.2340
  175SAPI   H9R19890   1.314   1.976   7.288 -0.1683  0.9424 -1.5670
  175SAPI  C21019891   1.250   2.109   7.464 -0.3522  0.2058  1.0854
  175SAPI  H10R19892   1.246   2.015   7.525  0.6650  0.9985  2.3919
  175SAPI  H10S19893   1.155   2.161   7.491 -1.5873 -1.4608  0.1126
  175SAPI  C21119894   1.367   2.176   7.530  0.9441  0.1485  0.2438
  175SAPI  H11R19895   1.444   2.219   7.464  1.0728  0.1014  0.3623
  175SAPI  C21219896   1.385   2.187   7.667 -0.1682  0.0467  0.0789
  175SAPI  H12R19897   1.479   2.223   7.711  0.3079  0.3235 -1.1484
  175SAPI  C21319898   1.290   2.135   7.772 -0.1909  0.0391  0.1008
  175SAPI  H13R19899   1.342   2.091   7.860 -0.4466  0.5157  0.4898
  175SAPI  H13S19900   1.254   2.036   7.736  1.1042 -1.8824  3.7823
  175SAPI  C21419901   1.172   2.227   7.812  0.7796  0.0094  0.4118
  175SAPI  H14R19902   1.144   2.303   7.738 -1.7368 -0.2556  1.0418
  175SAPI  C21519903   1.092   2.212   7.918 -0.6222 -0.3435  0.6347
  175SAPI  H15R19904   1.009   2.282   7.935 -1.0598 -1.3958  3.0810
  175SAPI  C21619905   1.103   2.097   8.014 -0.0267  0.4833  0.0249
  175SAPI  H16R19906   1.207   2.058   8.018  0.0894  0.7188 -0.7305
  175SAPI  H16S19907   1.039   2.021   7.965  1.2768 -1.2049  0.8959
  175SAPI  C21719908   1.044   2.132   8.156  0.2483  0.1020 -0.4900
  175SAPI  H17R19909   0.948   2.187   8.148 -0.5641 -0.8310  2.2381
  175SAPI  H17S19910   1.107   2.205   8.212  1.2742  0.1234 -1.6627
  175SAPI  C21819911   1.008   2.017   8.253  0.1773 -0.2290  0.1321
  175SAPI  H18R19912   0.916   1.966   8.219 -1.0086  1.9638 -0.0332
  175SAPI  H18S19913   0.981   2.054   8.355 -0.0519 -0.1356  0.0355
  175SAPI  C21919914   1.126   1.922   8.275  0.6652 -0.0289 -0.2842
  175SAPI  H19R19915   1.211   1.968   8.331 -1.5639  0.6550  2.6250
  175SAPI  H19S19916   1.166   1.884   8.179 -1.2127 -0.7894 -0.7730
  175SAPI  C22019917   1.085   1.802   8.362 -0.6450  0.4423 -0.3709
  175SAPI  H20R19918   1.018   1.728   8.314  0.8949 -2.0290  1.1660
  175SAPI  H20S19919   1.021   1.836   8.447  1.1417  0.7345  0.8843
  175SAPI  H20T19920   1.179   1.755   8.398 -0.4392  0.7722 -0.4711
  175SAPI   C3319921   1.747   2.138   7.284  0.7553 -1.0348 -0.0013
  175SAPI   H3X19922   1.739   2.238   7.237  2.0547 -0.9814 -0.1072
  175SAPI   H3Y19923   1.835   2.083   7.245  0.5901 -2.5791  1.7058
  175SAPI   C3419924   1.744   2.160   7.439 -0.4340 -0.8136  0.2779
  175SAPI   H4X19925   1.650   2.217   7.457  0.6089  0.7243  0.9414
  175SAPI   H4Y19926   1.837   2.213   7.467 -1.3795  1.2589 -0.4036
  175SAPI   C3519927   1.730   2.026   7.515 -0.3924  0.2582 -0.3469
  175SAPI   H5X19928   1.808   1.958   7.474 -1.0911 -1.2081  0.7324
  175SAPI   H5Y19929   1.627   1.987   7.500 -1.1341  2.4202 -1.0893
  175SAPI   C3619930   1.760   2.026   7.665 -0.3040 -0.1150  0.3567
  175SAPI   H6X19931   1.748   1.921   7.698 -1.2582 -0.1144  0.0446
  175SAPI   H6Y19932   1.695   2.095   7.723 -1.6061 -3.0498  2.4829
  175SAPI   C3719933   1.904   2.084   7.695  0.5854 -0.0872  0.4454
  175SAPI   H7X19934   1.901   2.192   7.667  0.1035 -0.2733 -0.2521
  175SAPI   H7Y19935   1.975   2.021   7.638 -0.0238 -0.5092  0.1442
  175SAPI   C3819936   1.940   2.075   7.845  0.1341  0.2274 -0.2027
  175SAPI   H8X19937   1.917   1.972   7.878 -0.1408  0.5156  0.5085
  175SAPI   H8Y19938   1.886   2.149   7.908  0.2453 -0.4406  0.6768
  175SAPI   C3919939   2.098   2.092   7.875 -0.1130 -0.0454 -0.4489
  175SAPI   H9X19940   2.126   2.192   7.834 -2.2286  0.0852 -1.6224
  175SAPI   H9Y19941   2.143   2.013   7.811  0.5455 -0.0481  0.0114
  175SAPI  C31019942   2.112   2.081   8.025 -0.0347  0.5861 -0.6727
  175SAPI  H10X19943   2.099   1.974   8.053 -2.2046  0.7983 -0.8358
  175SAPI  H10Y19944   2.052   2.154   8.082 -0.0414  0.8750 -1.0488
  175SAPI  C31119945   2.260   2.121   8.068 -0.0104  0.5357 -0.1155
  175SAPI  H11X19946   2.252   2.232   8.055  0.4961  0.4733 -1.0133
  175SAPI  H11Y19947   2.319   2.066   7.992 -1.7185 -3.2132  1.1801
  175SAPI  C31219948   2.293   2.087   8.209 -0.1618 -0.0793  0.1655
  175SAPI  H12X19949   2.205   2.105   8.275  0.1977 -1.9793  1.1657
  175SAPI  H12Y19950   2.365   2.168   8.237 -0.6626  1.5572 -3.0503
  175SAPI  C31319951   2.346   1.951   8.231  1.4412  0.6098 -0.4023
  175SAPI  H13X19952   2.446   1.943   8.184  0.1614  1.7722 -3.4163
  175SAPI  H13Y19953   2.284   1.871   8.186 -0.5196  1.0028  1.4940
  175SAPI  C31419954   2.346   1.926   8.387 -0.1616 -0.0139  0.5377
  175SAPI  H14X19955   2.254   1.948   8.446 -0.7557  1.1152 -0.7681
  175SAPI  H14Y19956   2.423   1.997   8.424  0.0705  0.3519 -0.6250
  175SAPI  C31519957   2.398   1.785   8.426  0.2022 -0.2205  0.0472
  175SAPI  H15X19958   2.405   1.799   8.536  0.6474  0.7705 -0.0990
  175SAPI  H15Y19959   2.500   1.763   8.386  0.2602 -1.9538  1.1157
  175SAPI  C31619960   2.303   1.667   8.401  0.4676  0.0251  0.2109
  175SAPI  H16X19961   2.299   1.655   8.291  0.7112  0.4532  0.1539
  175SAPI  H16Y19962   2.201   1.699   8.430  0.5412  0.0934  0.3939
  175SAPI  C31719963   2.336   1.535   8.472 -0.5648  0.3796 -0.6359
  175SAPI  H17X19964   2.446   1.526   8.462 -0.6394 -1.3674 -0.0257
  175SAPI  H17Y19965   2.279   1.456   8.419 -0.9210 -0.7176  1.3243
  175SAPI  C31819966   2.307   1.542   8.622  0.5338 -0.2617  0.1498
  175SAPI  H18X19967   2.199   1.556   8.643  0.5990  2.1750 -0.9473
  175SAPI  H18Y19968   2.364   1.623   8.672  2.3605 -2.0557  1.0433
  175SAPI  H18Z19969   2.357   1.451   8.662  0.8624 -0.2082 -0.1266
  176SAPI   C1219970   1.178   0.527   6.298 -0.4647 -0.2125  0.0291
  176SAPI    H219971   1.278   0.545   6.343 -0.2286 -0.8351 -0.2434
  176SAPI    O219972   1.142   0.628   6.198 -0.0544  0.2617 -0.0940
  176SAPI   HO219973   1.145   0.715   6.237  0.8359  0.7169 -1.1350
  176SAPI   C1319974   1.190   0.387   6.246 -0.1545 -0.5641 -0.1938
  176SAPI    H319975   1.214   0.319   6.331 -2.8524 -1.2266  0.0972
  176SAPI    O319976   1.294   0.364   6.150 -0.2516  0.2580  0.0832
  176SAPI   HO319977   1.288   0.421   6.073  1.7830  1.3732  0.7005
  176SAPI   C1419978   1.051   0.350   6.193 -0.9200  0.2794  0.2233
  176SAPI    H419979   1.024   0.406   6.100 -1.5117 -0.7120 -0.2126
  176SAPI    O419980   1.054   0.211   6.165 -0.9177 -0.1949 -0.0918
  176SAPI   HO419981   0.996   0.190   6.091  0.3937  3.2328 -2.2717
  176SAPI   C1519982   0.937   0.366   6.296 -0.1508  0.0135 -0.5883
  176SAPI    H519983   0.948   0.288   6.375 -2.0974  1.2635  0.9859
  176SAPI    O519984   0.811   0.339   6.232  0.1448  0.2997 -0.3617
  176SAPI   HO519985   0.792   0.246   6.246 -1.0139  1.1103  4.0708
  176SAPI   C1619986   0.937   0.511   6.347 -0.3783  0.1903 -0.5053
  176SAPI    H619987   0.908   0.574   6.261 -1.6967 -0.1068 -0.2953
  176SAPI    O619988   0.845   0.519   6.459  0.3462  0.3160 -0.4447
  176SAPI   HO619989   0.887   0.473   6.533 -1.2507 -0.3420  0.0764
  176SAPI   C1119990   1.072   0.544   6.407  0.1493  0.1179  0.3800
  176SAPI    H119991   1.098   0.461   6.477 -2.8812 -1.6782 -0.5310
  176SAPI     P19992   1.176   0.743   6.573  0.0140  0.1220  0.1530
  176SAPI   O1319993   1.169   0.886   6.537 -0.3519 -0.7994  0.7568
  176SAPI   O1419994   1.307   0.678   6.557 -0.2500 -0.1340 -0.0088
  176SAPI   O1219995   1.073   0.679   6.459  0.6015 -0.1431  0.1135
  176SAPI   O1119996   1.113   0.716   6.706  0.0084  0.2391  0.0648
  176SAPI    C119997   1.079   0.596   6.765 -0.5972  0.2824  0.1115
  176SAPI    HA19998   0.972   0.598   6.795 -0.7792 -0.1680 -0.5015
  176SAPI    HB19999   1.090   0.507   6.701  0.9364 -0.4401  1.3590
  176SAPI    C220000   1.149   0.564   6.901  0.2880  0.7766 -0.1478
  176SAPI    HS20001   1.099   0.471   6.935 -1.0614  2.2587  2.1653
  176SAPI   O2120002   1.137   0.669   6.997  0.2795  0.0657 -0.4201
  176SAPI   C2120003   1.017   0.673   7.056  0.2582 -0.2527  0.4463
  176SAPI   O2220004   0.924   0.597   7.026 -0.0695  0.1489  0.7692
  176SAPI   C2220005   1.014   0.800   7.142  0.2476 -0.1553  0.8151
  176SAPI   H2R20006   1.118   0.829   7.166 -0.5260  2.6989  0.8767
  176SAPI   H2S20007   0.976   0.875   7.070 -0.5666  0.5347  1.9379
  176SAPI    C320008   1.293   0.523   6.873 -0.1060  1.4350 -0.6659
  176SAPI    HX20009   1.351   0.605   6.826 -0.1328 -0.3182 -3.9298
  176SAPI    HY20010   1.282   0.436   6.804  1.9011 -0.3249  1.1481
  176SAPI   O3120011   1.342   0.479   6.998  0.3406  0.5778  0.1711
  176SAPI   C3120012   1.471   0.477   7.018  0.2288 -0.2801  0.6844
  176SAPI   O3220013   1.553   0.495   6.935  0.2786  0.1582  0.1324
  176SAPI   C3220014   1.493   0.449   7.174  0.5156 -0.3596  0.0053
  176SAPI   H2X20015   1.602   0.444   7.199  0.1694  0.0092  1.6360
  176SAPI   H2Y20016   1.441   0.356   7.205 -2.1506  1.4126  1.0198
  176SAPI   C2320017   0.919   0.798   7.269 -0.5358 -0.1309 -0.2802
  176SAPI   H3R20018   0.822   0.744   7.264 -0.4714 -0.1289 -1.9481
  176SAPI   H3S20019   0.895   0.903   7.294  1.4871  0.2000  0.3817
  176SAPI   C2420020   0.986   0.738   7.388  0.1680 -0.1068 -0.6930
  176SAPI   H4R20021   1.085   0.785   7.408  1.3980 -1.8971 -2.3283
  176SAPI   H4S20022   1.015   0.634   7.363 -2.2244  0.2352 -5.4889
  176SAPI   C2520023   0.897   0.739   7.508 -0.4869 -0.3523 -0.3245
  176SAPI   H5R20024   0.813   0.669   7.504  0.6155 -1.6514 -1.3315
  176SAPI   C2620025   0.913   0.809   7.622 -0.2312  0.7228 -0.2818
  176SAPI   H6R20026   0.837   0.805   7.700 -1.3427  0.1380 -1.3772
  176SAPI   C2720027   1.026   0.907   7.647  0.3055  0.0181 -0.1922
  176SAPI   H7R20028   1.039   0.987   7.571  3.1077  0.7625  1.0205
  176SAPI   H7S20029   1.125   0.860   7.665  0.1801 -0.5780 -1.0653
  176SAPI   C2820030   0.992   0.978   7.778 -0.4536  0.3727 -0.4503
  176SAPI   H8R20031   0.948   1.079   7.774  0.7143  0.9465  0.8034
  176SAPI   C2920032   1.012   0.943   7.908 -0.2434  0.3787  0.9329
  176SAPI   H9R20033   0.992   1.017   7.988 -1.2154  0.8121  0.2950
  176SAPI  C21020034   1.073   0.813   7.955 -0.3358 -0.0267 -0.7681
  176SAPI  H10R20035   1.131   0.773   7.869 -0.2487  0.2491 -0.8388
  176SAPI  H10S20036   0.988   0.745   7.977 -2.8368  2.6211 -1.8541
  176SAPI  C21120037   1.162   0.835   8.073 -0.0683 -0.5184 -0.1476
  176SAPI  H11R20038   1.262   0.874   8.052 -0.6056  0.7171 -0.4382
  176SAPI  C21220039   1.141   0.783   8.192 -0.1841  0.0885 -0.8934
  176SAPI  H12R20040   1.209   0.815   8.273 -1.7728 -0.9804  0.9088
  176SAPI  C21320041   1.019   0.697   8.240  0.3865 -0.4090  0.8122
  176SAPI  H13R20042   0.933   0.752   8.198  0.8573  0.7657  1.3803
  176SAPI  H13S20043   1.013   0.709   8.351 -1.6613 -0.1015  0.6752
  176SAPI  C21420044   1.028   0.555   8.205 -0.7070  0.1556 -0.6640
  176SAPI  H14R20045   1.122   0.511   8.170 -1.1975 -1.1882 -0.3546
  176SAPI  C21520046   0.933   0.456   8.203 -0.2055  0.4041  1.1754
  176SAPI  H15R20047   0.969   0.358   8.169 -0.4121 -0.1281  2.4757
  176SAPI  C21620048   0.788   0.475   8.237 -0.2290 -0.2233  0.2331
  176SAPI  H16R20049   0.778   0.582   8.266  1.0486 -0.2572  0.8492
  176SAPI  H16S20050   0.760   0.409   8.322 -1.5407  1.1576  0.8821
  176SAPI  C21720051   0.677   0.459   8.130  0.6399  0.3269  0.0820
  176SAPI  H17R20052   0.581   0.503   8.163  0.6026 -0.2752  0.7966
  176SAPI  H17S20053   0.652   0.351   8.123 -1.1051  0.6394  1.1738
  176SAPI  C21820054   0.720   0.535   8.003  0.0828 -0.2224  0.0405
  176SAPI  H18R20055   0.808   0.485   7.958  1.9634  2.5556  0.5102
  176SAPI  H18S20056   0.771   0.627   8.038  1.9295 -1.6298  1.1421
  176SAPI  C21920057   0.602   0.550   7.900  0.5979  1.0164  0.1926
  176SAPI  H19R20058   0.651   0.606   7.818  3.0379  0.1404  1.0119
  176SAPI  H19S20059   0.520   0.607   7.947  0.5362 -0.1281  1.5090
  176SAPI  C22020060   0.552   0.410   7.869 -0.4381 -0.0986 -0.6077
  176SAPI  H20R20061   0.497   0.416   7.772  0.1072  0.6542 -0.8771
  176SAPI  H20S20062   0.483   0.376   7.949 -1.1134  0.1535 -1.0767
  176SAPI  H20T20063   0.635   0.337   7.861 -0.1613  0.1327  0.1438
  176SAPI   C3320064   1.418   0.557   7.258  0.1041 -0.0992  0.1845
  176SAPI   H3X20065   1.316   0.577   7.220  0.8036 -2.4576 -3.1781
  176SAPI   H3Y20066   1.479   0.650   7.252  1.5836 -1.0706 -0.1914
  176SAPI   C3420067   1.412   0.515   7.410  0.0767  0.5837 -0.7292
  176SAPI   H4X20068   1.516   0.487   7.440  0.0410  2.4125  1.2091
  176SAPI   H4Y20069   1.345   0.427   7.418 -0.2145  0.8130 -0.6281
  176SAPI   C3520070   1.347   0.619   7.509 -0.3498 -0.9883 -0.6642
  176SAPI   H5X20071   1.253   0.662   7.468  0.8735  1.3082 -1.0961
  176SAPI   H5Y20072   1.410   0.709   7.522 -2.0673 -0.2080  2.8776
  176SAPI   C3620073   1.327   0.563   7.646  0.5104 -0.3321  0.7846
  176SAPI   H6X20074   1.283   0.461   7.640 -0.7744  0.2783 -0.5423
  176SAPI   H6Y20075   1.259   0.625   7.708  3.0013  1.5333  1.6937
  176SAPI   C3720076   1.462   0.548   7.726  0.4339  0.0456 -0.9681
  176SAPI   H7X20077   1.506   0.649   7.742  2.1658 -0.6314 -1.3047
  176SAPI   H7Y20078   1.534   0.493   7.661  0.3404 -0.9077 -0.2756
  176SAPI   C3820079   1.427   0.475   7.859  0.2644  0.1749 -0.5212
  176SAPI   H8X20080   1.408   0.370   7.831  0.5687  0.2496 -1.0193
  176SAPI   H8Y20081   1.337   0.515   7.910 -0.2545 -2.1642  0.4618
  176SAPI   C3920082   1.545   0.489   7.956  0.9992  0.3116  0.5998
  176SAPI   H9X20083   1.562   0.597   7.980 -2.1414  1.1337 -0.6047
  176SAPI   H9Y20084   1.637   0.450   7.907  0.7261  2.5517 -1.8345
  176SAPI  C31020085   1.540   0.420   8.093  0.7475 -0.3350  0.6150
  176SAPI  H10X20086   1.640   0.431   8.141  0.7630 -0.3453  0.5840
  176SAPI  H10Y20087   1.507   0.315   8.079 -1.0117  0.5157 -1.9227
  176SAPI  C31120088   1.443   0.489   8.188  1.0102  0.2826  0.4251
  176SAPI  H11X20089   1.340   0.455   8.165  1.9635 -1.0339 -2.0020
  176SAPI  H11Y20090   1.447   0.600   8.188  1.1349  0.2837  1.1582
  176SAPI  C31220091   1.453   0.441   8.339  0.2808 -0.1205  0.3268
  176SAPI  H12X20092   1.560   0.463   8.358  0.2958  0.8344 -0.7589
  176SAPI  H12Y20093   1.447   0.331   8.357  0.6002 -0.1316  0.3632
  176SAPI  C31320094   1.363   0.531   8.422 -0.9710  0.1581  0.7617
  176SAPI  H13X20095   1.255   0.508   8.405 -1.1556  0.2169  1.8223
  176SAPI  H13Y20096   1.362   0.638   8.393 -1.1946  0.0433  0.3416
  176SAPI  C31420097   1.415   0.528   8.570  0.4984  0.3732 -0.0683
  176SAPI  H14X20098   1.366   0.611   8.627 -1.0035 -1.3792  1.2495
  176SAPI  H14Y20099   1.525   0.543   8.570  0.0224  4.5007  0.3530
  176SAPI  C31520100   1.383   0.394   8.642  0.4095 -0.9267  0.7987
  176SAPI  H15X20101   1.441   0.388   8.736 -0.6578 -0.5329  1.4871
  176SAPI  H15Y20102   1.387   0.301   8.581 -2.9714 -1.4418  1.2277
  176SAPI  C31620103   1.235   0.403   8.697 -1.3074  0.2838  0.4238
  176SAPI  H16X20104   1.173   0.413   8.605 -1.8177  1.0659  0.8528
  176SAPI  H16Y20105   1.226   0.496   8.756 -3.5274  0.0504  0.4994
  176SAPI  C31720106   1.176   0.282   8.764 -0.0242  0.0664  0.3136
  176SAPI  H17X20107   1.237   0.259   8.854 -2.0433  0.2265  1.7546
  176SAPI  H17Y20108   1.186   0.195   8.695  0.4016  1.1549 -1.0288
  176SAPI  C31820109   1.035   0.314   8.808 -0.2907 -0.3486  0.4439
  176SAPI  H18X20110   0.959   0.312   8.727 -0.0894  1.6294  0.1848
  176SAPI  H18Y20111   1.030   0.412   8.860 -0.7982  2.0316 -3.8390
  176SAPI  H18Z20112   1.011   0.241   8.889  1.9468 -0.7864  0.7370
  177SLPC     N20113   0.608   5.181  11.193  0.7696 -0.2306 -0.3613
  177SLPC   C1320114   0.690   5.288  11.139 -0.3479 -0.0751 -0.2910
  177SLPC  H13A20115   0.634   5.346  11.067  0.7462  1.6258  0.2185
  177SLPC  H13B20116   0.730   5.356  11.211  2.5089 -0.1234 -1.7829
  177SLPC  H13C20117   0.775   5.250  11.084 -1.4697  0.7475 -2.6754
  177SLPC   C1420118   0.498   5.247  11.281  0.5639 -0.1710  0.9163
  177SLPC  H14A20119   0.430   5.321  11.243 -1.2896 -1.2489  2.0814
  177SLPC  H14B20120   0.436   5.173  11.329 -0.0509  0.8719  1.7492
  177SLPC  H14C20121   0.539   5.292  11.371  1.9886 -1.5407  0.9814
  177SLPC   C1520122   0.679   5.090  11.285 -0.4254 -0.0084 -0.3001
  177SLPC  H15A20123   0.739   5.139  11.360 -1.8283  2.0797 -0.5153
  177SLPC  H15B20124   0.606   5.023  11.330  0.9401 -1.3974 -0.0987
  177SLPC  H15C20125   0.741   5.016  11.238 -0.5474 -0.4960  0.2937
  177SLPC   C1220126   0.543   5.097  11.084  0.3988 -0.4954  0.1294
  177SLPC  H12A20127   0.491   5.165  11.018 -0.5500 -1.5629 -0.2244
  177SLPC  H12B20128   0.473   5.024  11.120 -1.3259  0.8390 -0.4615
  177SLPC   C1120129   0.656   5.028  10.993  0.3466 -0.2285  0.7059
  177SLPC  H11A20130   0.740   5.097  10.972  1.0754 -1.1924  0.4086
  177SLPC  H11B20131   0.615   4.999  10.893  2.9534  0.6276 -0.6554
  177SLPC     P20132   0.655   4.758  11.038 -0.3646  0.1096 -0.4139
  177SLPC   O1320133   0.748   4.661  11.097  0.2233 -0.1137  0.0729
  177SLPC   O1420134   0.515   4.766  11.088 -0.0856 -0.3939 -0.2382
  177SLPC   O1220135   0.713   4.910  11.053  0.4100 -0.1469 -0.1008
  177SLPC   O1120136   0.664   4.741  10.880 -0.5195 -0.8521  0.0157
  177SLPC    C120137   0.562   4.774  10.792  0.5454  0.0919  0.3483
  177SLPC    HA20138   0.502   4.683  10.771  0.3816  0.0604  0.9442
  177SLPC    HB20139   0.491   4.852  10.828  0.3334  0.0609  0.0058
  177SLPC    C220140   0.632   4.810  10.654 -0.3231  0.2729 -0.3532
  177SLPC    HS20141   0.705   4.735  10.616 -0.8271  0.5738 -1.9720
  177SLPC   O2120142   0.700   4.944  10.659  0.5191  0.1334  0.0461
  177SLPC   C2120143   0.829   4.940  10.651  0.7391  0.1510 -0.1481
  177SLPC   O2220144   0.895   4.850  10.615 -0.0265  0.5051  0.1250
  177SLPC   C2220145   0.878   5.068  10.710 -0.2096 -0.1286  0.1892
  177SLPC   H2R20146   0.811   5.154  10.689 -1.5546 -1.1028  0.4503
  177SLPC   H2S20147   0.887   5.056  10.820  0.2106 -0.1461  0.1545
  177SLPC    C320148   0.529   4.818  10.539  0.2736 -0.1522 -0.0005
  177SLPC    HX20149   0.445   4.883  10.569 -1.0205 -1.3516 -0.9612
  177SLPC    HY20150   0.484   4.717  10.551  1.0873 -0.3354  1.5711
  177SLPC   O3120151   0.590   4.842  10.405 -0.5056 -0.1598  0.3679
  177SLPC   C3120152   0.562   4.960  10.355 -0.3622 -0.0903  0.2218
  177SLPC   O3220153   0.488   5.042  10.406 -0.2308  0.3607 -0.0937
  177SLPC   C3220154   0.636   4.989  10.220  0.5976 -0.2046  0.5583
  177SLPC   H2X20155   0.587   4.948  10.130 -1.4058  2.3997  0.3981
  177SLPC   H2Y20156   0.721   4.918  10.222  1.4638  0.7577 -1.1514
  177SLPC   C2320157   1.006   5.103  10.637  0.4974  0.3425  0.2006
  177SLPC   H3R20158   1.086   5.028  10.651  1.3674  1.3925  0.8865
  177SLPC   H3S20159   1.043   5.193  10.691  0.5681 -0.0315  0.7834
  177SLPC   C2420160   0.986   5.122  10.487  0.0148  0.0044  0.1995
  177SLPC   H4R20161   0.890   5.172  10.463  0.9520  1.9800  0.4680
  177SLPC   H4S20162   0.986   5.016  10.454  0.0690  0.4961 -1.4030
  177SLPC   C2520163   1.104   5.200  10.428  0.5568 -0.0641  0.2159
  177SLPC   H5R20164   1.199   5.142  10.428  0.8120  0.2993  3.0887
  177SLPC   H5S20165   1.112   5.299  10.476  1.6129  0.6792 -1.4357
  177SLPC   C2620166   1.089   5.235  10.278  0.8265 -0.1948  0.2312
  177SLPC   H6R20167   1.184   5.287  10.252 -0.5087  2.4811  0.5701
  177SLPC   H6S20168   1.013   5.313  10.259 -0.5382 -0.8450  2.8247
  177SLPC   C2720169   1.052   5.112  10.192  0.6904  0.7458  0.4574
  177SLPC   H7R20170   0.961   5.064  10.234  1.8145 -2.0469 -0.1959
  177SLPC   H7S20171   1.130   5.036  10.216  1.0140  0.7766 -0.4832
  177SLPC   C2820172   1.069   5.120  10.034  0.6021  0.5259 -0.8389
  177SLPC   H8R20173   1.064   5.020   9.988 -1.0202  1.1830 -2.1363
  177SLPC   H8S20174   1.167   5.168  10.013  1.7978 -1.6517 -0.3809
  177SLPC   C2920175   0.954   5.197   9.966  0.5625 -0.2843  0.1241
  177SLPC   H9R20176   0.947   5.301  10.001 -0.3061 -0.0255 -0.7968
  177SLPC  C21020177   0.870   5.158   9.865 -0.0726  0.3881  0.5916
  177SLPC  H10R20178   0.797   5.231   9.827 -0.5765 -1.4080 -1.9764
  177SLPC  C21120179   0.868   5.019   9.804 -0.0034 -0.2755 -0.3904
  177SLPC  H11R20180   0.967   4.996   9.759  0.1552  1.1705 -0.7827
  177SLPC  H11S20181   0.845   4.934   9.872 -1.6416 -0.7857 -1.5704
  177SLPC  C21220182   0.770   5.008   9.686 -0.2568 -0.6135 -0.3592
  177SLPC  H12R20183   0.666   4.978   9.710 -0.0611 -2.2890 -1.5072
  177SLPC  C21320184   0.786   5.068   9.562  0.7046 -0.2650  0.5427
  177SLPC  H13R20185   0.719   5.042   9.479  0.1285  2.9940 -0.0547
  177SLPC  C21420186   0.902   5.143   9.512  0.5731 -0.5498  0.1413
  177SLPC  H14R20187   0.947   5.092   9.423 -0.5875 -0.5787 -0.4381
  177SLPC  H14S20188   0.979   5.154   9.592 -0.6964 -0.7411  1.3923
  177SLPC  C21520189   0.864   5.289   9.458  0.7812  0.0953 -0.7552
  177SLPC  H15R20190   0.853   5.351   9.549 -0.0827 -0.5278 -0.4243
  177SLPC  H15S20191   0.763   5.284   9.410  0.9830  2.4786 -1.5122
  177SLPC  C21620192   0.960   5.353   9.359  0.1256  0.0016  0.0391
  177SLPC  H16R20193   1.062   5.343   9.403 -0.6382 -2.7863  1.2520
  177SLPC  H16S20194   0.947   5.462   9.342  0.8424  0.1086  0.1578
  177SLPC  C21720195   0.970   5.289   9.217 -0.4085  0.7885 -0.4982
  177SLPC  H17R20196   0.996   5.181   9.226  2.3998  1.4203 -0.6258
  177SLPC  H17S20197   1.060   5.315   9.157 -0.7515  0.9001 -0.9683
  177SLPC  C21820198   0.841   5.319   9.143 -0.0897  0.9658 -0.1069
  177SLPC  H18R20199   0.850   5.290   9.036 -0.7255  0.3957 -0.0112
  177SLPC  H18S20200   0.811   5.426   9.153 -0.3186  0.9537 -0.6395
  177SLPC  H18T20201   0.771   5.245   9.188  0.9278  0.7062  1.0712
  177SLPC   C3320202   0.667   5.139  10.212  1.0195 -0.9794  0.3159
  177SLPC   H3X20203   0.757   5.160  10.150  1.6290  0.0706  1.5314
  177SLPC   H3Y20204   0.688   5.174  10.315  1.3474 -3.7218  1.2307
  177SLPC   C3420205   0.559   5.222  10.143 -0.2485  0.1667  0.1649
  177SLPC   H4X20206   0.596   5.324  10.120  2.4193 -0.6904  0.5031
  177SLPC   H4Y20207   0.473   5.237  10.211  0.6948  1.8145  1.0266
  177SLPC   C3520208   0.508   5.170  10.004  0.3098  0.4874  0.1530
  177SLPC   H5X20209   0.439   5.084  10.017  1.5393 -0.5685 -0.2119
  177SLPC   H5Y20210   0.600   5.148   9.946  0.1718 -1.4967  0.6502
  177SLPC   C3620211   0.431   5.281   9.929  0.1309 -0.1631  0.3473
  177SLPC   H6X20212   0.467   5.381   9.960 -2.1219  1.0449 -0.7691
  177SLPC   H6Y20213   0.327   5.271   9.967  0.9564 -0.0639  2.6970
  177SLPC   C3720214   0.436   5.266   9.778 -0.0135  0.6384  0.2077
  177SLPC   H7X20215   0.423   5.158   9.760  0.4702  0.5091  0.6194
  177SLPC   H7Y20216   0.537   5.288   9.738  0.5479 -1.2409  0.5887
  177SLPC   C3820217   0.327   5.344   9.702  0.1218 -0.4862  0.6488
  177SLPC   H8X20218   0.360   5.449   9.718  0.5097 -0.6380  0.8522
  177SLPC   H8Y20219   0.228   5.324   9.747 -0.6753 -0.0012 -0.8775
  177SLPC   C3920220   0.307   5.304   9.562  0.1410 -0.0107  0.2758
  177SLPC   H9X20221   0.233   5.375   9.519  1.6942  1.6161  0.2402
  177SLPC   H9Y20222   0.277   5.198   9.557  0.2631 -0.0095 -0.4891
  177SLPC  C31020223   0.445   5.314   9.480 -0.4188  0.0431 -0.2326
  177SLPC  H10X20224   0.514   5.240   9.526 -1.1763 -0.9986 -0.7690
  177SLPC  H10Y20225   0.493   5.414   9.486  1.4117 -0.8539  0.6101
  177SLPC  C31120226   0.442   5.269   9.338 -0.0788 -1.0150  0.3137
  177SLPC  H11X20227   0.443   5.158   9.326  0.6344 -1.1197  1.2825
  177SLPC  H11Y20228   0.539   5.307   9.299 -1.8830  0.4946 -2.8788
  177SLPC  C31220229   0.330   5.335   9.261  0.1452  0.0717  0.4861
  177SLPC  H12X20230   0.323   5.442   9.290  0.3105  0.8304 -2.1257
  177SLPC  H12Y20231   0.239   5.284   9.300  1.1963  0.4649  3.6232
  177SLPC  C31320232   0.344   5.345   9.109  0.2837  0.2482 -0.8208
  177SLPC  H13X20233   0.308   5.251   9.062  0.4322 -0.8798  1.2647
  177SLPC  H13Y20234   0.452   5.353   9.086  0.6636  2.9499  1.5928
  177SLPC  C31420235   0.278   5.472   9.048  0.3359  0.2984 -0.2101
  177SLPC  H14X20236   0.332   5.563   9.083  1.4368 -0.5052  0.2333
  177SLPC  H14Y20237   0.170   5.476   9.072  0.6058 -0.6181  1.2684
  177SLPC  C31520238   0.292   5.470   8.888  0.0796  0.0594 -0.1712
  177SLPC  H15X20239   0.210   5.404   8.854 -1.4576  0.7720  2.0546
  177SLPC  H15Y20240   0.391   5.425   8.864 -0.0546  0.8977 -2.4472
  177SLPC  C31620241   0.282   5.602   8.822  1.3235  0.0677 -0.7381
  177SLPC  H16X20242   0.335   5.593   8.725 -0.7274  0.2917 -1.9096
  177SLPC  H16Y20243   0.341   5.670   8.887 -0.1605 -0.4913  1.2340
  177SLPC  C31720244   0.141   5.650   8.803  0.0324  1.1573 -0.7773
  177SLPC  H17X20245   0.078   5.642   8.895  1.7847  1.3652  0.4562
  177SLPC  H17Y20246   0.088   5.579   8.736  1.6371 -2.0121  1.1635
  177SLPC  C31820247   0.127   5.801   8.765  0.2386  0.1877  0.0417
  177SLPC  H18X20248   0.192   5.865   8.829  0.8848  1.7529 -2.1116
  177SLPC  H18Y20249   0.020   5.828   8.777  0.6722  1.0853  2.0674
  177SLPC  H18Z20250   0.174   5.814   8.665 -0.5970 -0.1108 -0.3945
  178SLPC     N20251   2.751   0.500  10.897  0.9568  0.2570  0.3840
  178SLPC   C1320252   2.837   0.578  10.983  0.3417 -0.0203 -0.2758
  178SLPC  H13A20253   2.910   0.623  10.918 -1.9807  2.5358 -1.1781
  178SLPC  H13B20254   2.788   0.657  11.037  0.9092 -0.6256  1.1555
  178SLPC  H13C20255   2.890   0.517  11.055 -0.8557  2.4889  2.7994
  178SLPC   C1420256   2.819   0.380  10.859 -0.9642 -0.1217  0.5831
  178SLPC  H14A20257   2.924   0.399  10.844 -0.6998  0.6094  3.0013
  178SLPC  H14B20258   2.820   0.310  10.942  2.6183 -0.0583  0.6803
  178SLPC  H14C20259   2.770   0.329  10.778  1.5765  0.3338 -1.3012
  178SLPC   C1520260   2.714   0.574  10.773 -0.3076  0.5670 -0.3215
  178SLPC  H15A20261   2.797   0.584  10.705 -0.4414  4.9058 -0.0133
  178SLPC  H15B20262   2.632   0.521  10.726  0.2467 -1.1744  0.6201
  178SLPC  H15C20263   2.677   0.675  10.786  0.2941  1.0478 -2.2059
  178SLPC   C1220264   2.623   0.464  10.966  0.4835  0.2921  0.0721
  178SLPC  H12A20265   2.575   0.553  11.006  0.4172 -0.1246  0.9333
  178SLPC  H12B20266   2.647   0.394  11.044 -1.9699  1.0748  1.5754
  178SLPC   C1120267   2.508   0.409  10.883 -0.8725 -0.1549 -0.8692
  178SLPC  H11A20268   2.449   0.344  10.951  0.2984 -0.7703 -0.4167
  178SLPC  H11B20269   2.542   0.342  10.801 -0.0328  0.0484 -0.6943
  178SLPC     P20270   2.308   0.582  10.879  0.2357  0.3918 -0.0850
  178SLPC   O1320271   2.332   0.618  11.019 -0.0433 -0.0413  0.4518
  178SLPC   O1420272   2.273   0.702  10.798  0.0230  0.5696  0.1181
  178SLPC   O1220273   2.438   0.518  10.824 -0.1693  0.0975 -0.2402
  178SLPC   O1120274   2.185   0.468  10.870 -0.0477  0.0173 -0.4249
  178SLPC    C120275   2.187   0.360  10.777  0.0945 -0.0021 -0.3774
  178SLPC    HA20276   2.289   0.321  10.758 -0.2182 -1.6451  1.1352
  178SLPC    HB20277   2.131   0.273  10.818 -1.4285  1.5084  0.8170
  178SLPC    C220278   2.133   0.406  10.635  0.1924  0.8708  0.7358
  178SLPC    HS20279   2.134   0.319  10.565 -0.8410  0.8734  0.7035
  178SLPC   O2120280   2.215   0.518  10.586  0.5569  0.3972 -0.0731
  178SLPC   C2120281   2.329   0.474  10.538 -0.1126  0.1391 -0.3996
  178SLPC   O2220282   2.362   0.358  10.529 -0.2233  0.5022 -0.2751
  178SLPC   C2220283   2.424   0.592  10.512 -0.1248 -0.1879 -0.5690
  178SLPC   H2R20284   2.370   0.684  10.482  2.6551  1.3258 -1.0659
  178SLPC   H2S20285   2.475   0.611  10.609  2.1103  0.0907 -1.7839
  178SLPC    C320286   1.985   0.448  10.658  0.6908  0.1543 -0.5669
  178SLPC    HX20287   1.987   0.536  10.725  0.8111 -1.7027  1.9102
  178SLPC    HY20288   1.933   0.366  10.711  0.5215  1.2150  0.9325
  178SLPC   O3120289   1.918   0.462  10.527  0.3686  0.3860  0.4179
  178SLPC   C3120290   1.921   0.579  10.472  0.0991  0.2529  0.2211
  178SLPC   O3220291   1.967   0.684  10.522 -0.0000 -0.2361 -0.0276
  178SLPC   C3220292   1.871   0.563  10.327 -0.2566 -0.4357 -0.3410
  178SLPC   H2X20293   1.760   0.562  10.339 -0.1206 -0.4793  1.0663
  178SLPC   H2Y20294   1.909   0.469  10.282 -1.1974 -0.8139 -0.3611
  178SLPC   C2320295   2.525   0.555  10.406 -0.0085 -0.2544 -0.8418
  178SLPC   H3R20296   2.583   0.461  10.421  2.1422  1.2214  0.5017
  178SLPC   H3S20297   2.611   0.626  10.408 -0.0989 -0.1559  3.3814
  178SLPC   C2420298   2.461   0.553  10.264  0.4894  0.3203 -0.0475
  178SLPC   H4R20299   2.380   0.627  10.248 -0.0949 -0.5596 -1.1401
  178SLPC   H4S20300   2.415   0.453  10.271  0.5844  0.1679 -1.4404
  178SLPC   C2520301   2.565   0.537  10.148 -0.0650 -0.1146  0.5697
  178SLPC   H5R20302   2.631   0.452  10.175  0.0935 -0.7496 -1.6667
  178SLPC   H5S20303   2.631   0.625  10.139  0.3940 -0.5617 -0.5855
  178SLPC   C2620304   2.499   0.522  10.016 -0.0362 -0.0943  0.4552
  178SLPC   H6R20305   2.450   0.618   9.989  0.2131 -0.0027  0.3277
  178SLPC   H6S20306   2.421   0.442  10.019 -1.2371  0.9888 -0.9076
  178SLPC   C2720307   2.579   0.496   9.888 -0.7823  0.3063 -0.0026
  178SLPC   H7R20308   2.591   0.389   9.862 -0.2257  0.7604 -1.7236
  178SLPC   H7S20309   2.675   0.550   9.907 -2.3559  2.5801  1.7163
  178SLPC   C2820310   2.508   0.546   9.762  0.5391 -0.6146 -0.2461
  178SLPC   H8R20311   2.467   0.649   9.769  0.6214 -0.7011  1.9710
  178SLPC   H8S20312   2.417   0.483   9.757  0.9600 -1.4428  2.0737
  178SLPC   C2920313   2.586   0.542   9.635  0.2443 -0.4009  0.0420
  178SLPC   H9R20314   2.659   0.624   9.636  1.1942 -1.2311 -0.6193
  178SLPC  C21020315   2.558   0.469   9.522 -0.0674 -0.0262 -0.5240
  178SLPC  H10R20316   2.629   0.475   9.438 -1.0816  0.6122 -1.3558
  178SLPC  C21120317   2.443   0.375   9.503  0.0162  0.8197  0.5122
  178SLPC  H11R20318   2.348   0.425   9.473 -0.5242  0.2612  1.2753
  178SLPC  H11S20319   2.424   0.325   9.600 -2.5586 -0.4686 -0.6060
  178SLPC  C21220320   2.475   0.274   9.396 -0.0328 -0.3121 -0.4523
  178SLPC  H12R20321   2.548   0.198   9.425  0.7368  0.3445 -0.6483
  178SLPC  C21320322   2.433   0.294   9.271 -0.0927 -0.3203  0.7017
  178SLPC  H13R20323   2.467   0.223   9.194 -3.7019 -2.4244  0.9292
  178SLPC  C21420324   2.340   0.399   9.214  0.3492 -0.4869  0.3374
  178SLPC  H14R20325   2.348   0.494   9.271  1.7270 -0.0387 -0.5639
  178SLPC  H14S20326   2.240   0.361   9.242 -1.3648  1.6994 -2.6136
  178SLPC  C21520327   2.338   0.422   9.060 -0.1193 -0.4278  0.2846
  178SLPC  H15R20328   2.245   0.474   9.029  1.2120  1.8310 -0.0447
  178SLPC  H15S20329   2.346   0.321   9.014 -0.8446 -0.6558  0.6596
  178SLPC  C21620330   2.446   0.517   9.011 -0.3925 -0.1907  0.4968
  178SLPC  H16R20331   2.547   0.477   9.032  0.7740  2.8738  0.9987
  178SLPC  H16S20332   2.440   0.614   9.065  0.2651 -0.6693  1.4300
  178SLPC  C21720333   2.430   0.549   8.860  0.0647  0.3726  0.7647
  178SLPC  H17R20334   2.322   0.544   8.834  0.5499  3.6585 -2.3231
  178SLPC  H17S20335   2.478   0.466   8.803 -0.6219  1.7535 -1.9262
  178SLPC  C21820336   2.480   0.683   8.820 -0.3144 -0.1014  0.1142
  178SLPC  H18R20337   2.448   0.765   8.888 -1.2167  0.5354 -1.0577
  178SLPC  H18S20338   2.449   0.704   8.716  0.8198 -1.2258 -0.4709
  178SLPC  H18T20339   2.591   0.696   8.819 -0.4870  1.4292 -0.8634
  178SLPC   C3320340   1.914   0.671  10.230 -0.0350  0.0422  0.1720
  178SLPC   H3X20341   1.892   0.769  10.279 -1.0172 -0.5877  1.0055
  178SLPC   H3Y20342   1.858   0.671  10.134 -1.6453 -2.0523  1.0732
  178SLPC   C3420343   2.058   0.662  10.195  0.2550  0.1898 -0.4448
  178SLPC   H4X20344   2.066   0.593  10.109  0.5458 -1.6285  1.0173
  178SLPC   H4Y20345   2.108   0.609  10.278 -1.6907 -0.9017  0.0630
  178SLPC   C3520346   2.121   0.807  10.160  0.4389  0.0485  0.6771
  178SLPC   H5X20347   2.232   0.800  10.156  0.3169 -1.3312 -0.4174
  178SLPC   H5Y20348   2.088   0.881  10.236 -0.0977  1.1751 -0.6221
  178SLPC   C3620349   2.081   0.864  10.026  0.0879 -0.2964  0.5006
  178SLPC   H6X20350   2.124   0.965  10.012 -0.0892 -0.3138 -0.1843
  178SLPC   H6Y20351   1.971   0.874  10.036 -0.0479  0.1581 -1.3457
  178SLPC   C3720352   2.130   0.784   9.904  0.4144  0.1172  0.5375
  178SLPC   H7X20353   2.058   0.700   9.909  0.9917 -0.3908  0.2720
  178SLPC   H7Y20354   2.231   0.746   9.931 -0.0893 -1.2878  0.4587
  178SLPC   C3820355   2.116   0.848   9.762 -0.3706 -0.2228  0.1759
  178SLPC   H8X20356   2.177   0.941   9.771 -0.2206 -0.2212 -0.8148
  178SLPC   H8Y20357   2.011   0.868   9.731 -0.6284 -0.6728  0.7513
  178SLPC   C3920358   2.198   0.765   9.658 -0.5158 -0.0828 -0.7245
  178SLPC   H9X20359   2.157   0.663   9.654  1.7211 -1.0840  0.6300
  178SLPC   H9Y20360   2.302   0.759   9.697 -0.5211 -0.1228 -0.7177
  178SLPC  C31020361   2.199   0.839   9.527 -0.0763  0.0402 -0.0393
  178SLPC  H10X20362   2.225   0.945   9.546 -0.8015 -0.4482  4.1357
  178SLPC  H10Y20363   2.097   0.831   9.484  0.0144 -1.9545  0.0863
  178SLPC  C31120364   2.297   0.797   9.424 -0.2625 -0.1585  0.4335
  178SLPC  H11X20365   2.330   0.692   9.436  0.6662  0.1158  0.2918
  178SLPC  H11Y20366   2.398   0.843   9.433  0.9325 -1.9799 -2.7114
  178SLPC  C31220367   2.270   0.835   9.279 -0.0508  0.5520  0.5893
  178SLPC  H12X20368   2.176   0.785   9.247 -0.1710  0.3313  1.2675
  178SLPC  H12Y20369   2.347   0.795   9.209 -0.9717 -2.4628  1.2153
  178SLPC  C31320370   2.252   0.981   9.259  0.0659  0.3038 -0.5771
  178SLPC  H13X20371   2.343   1.030   9.300  2.7693 -4.5168 -0.5464
  178SLPC  H13Y20372   2.162   1.021   9.311  0.5286  0.2050  0.3095
  178SLPC  C31420373   2.248   1.020   9.107 -0.1618  0.1001  0.2514
  178SLPC  H14X20374   2.336   0.966   9.066  0.0244  1.0381 -0.6180
  178SLPC  H14Y20375   2.255   1.131   9.101  1.9977 -0.0428 -0.1578
  178SLPC  C31520376   2.122   0.976   9.029  0.1893  0.6333  0.4596
  178SLPC  H15X20377   2.107   0.867   9.012 -2.3028  0.7162  1.8363
  178SLPC  H15Y20378   2.040   1.019   9.090  0.9336  0.5252  1.5490
  178SLPC  C31620379   2.130   1.034   8.884  0.5978  0.1322  0.8974
  178SLPC  H16X20380   2.222   0.995   8.834  0.8659  0.9341  0.7683
  178SLPC  H16Y20381   2.132   1.145   8.889  0.4617  0.2040 -0.3686
  178SLPC  C31720382   2.025   0.999   8.778  0.2464  0.1452 -0.2464
  178SLPC  H17X20383   2.029   1.054   8.681  0.9183 -0.3937 -0.5247
  178SLPC  H17Y20384   1.922   1.026   8.810  1.0119 -0.5329  2.9949
  178SLPC  C31820385   2.029   0.848   8.746 -0.2378 -0.1627 -0.1501
  178SLPC  H18X20386   1.997   0.786   8.833 -0.7593  0.5706  0.1925
  178SLPC  H18Y20387   2.123   0.814   8.699  0.6276 -1.6028  2.4975
  178SLPC  H18Z20388   1.954   0.842   8.664 -0.8094 -0.6926  0.4075
  179SLPC     N20389   4.673   4.017  10.485  0.4797  0.2312  0.7605
  179SLPC   C1320390   4.532   4.065  10.482 -0.3620 -0.6002 -1.0018
  179SLPC  H13A20391   4.466   4.002  10.540 -0.2357  1.0178  0.9216
  179SLPC  H13B20392   4.527   4.164  10.524 -0.7917 -1.1180  0.1694
  179SLPC  H13C20393   4.497   4.067  10.379  0.2056 -0.7669 -1.1995
  179SLPC   C1420394   4.661   3.871  10.422 -0.5083 -0.3703  1.0557
  179SLPC  H14A20395   4.623   3.875  10.321  1.8481  0.0612  0.1637
  179SLPC  H14B20396   4.758   3.825  10.415 -0.0868  0.8261 -1.2356
  179SLPC  H14C20397   4.591   3.811  10.479 -0.0209 -1.6164  0.3532
  179SLPC   C1520398   4.725   3.998  10.622 -0.0864  0.6560  0.5373
  179SLPC  H15A20399   4.660   3.950  10.695 -0.4935  0.6289  0.1630
  179SLPC  H15B20400   4.809   3.931  10.618  0.3314  1.2526 -0.7709
  179SLPC  H15C20401   4.766   4.084  10.672 -0.2408  0.9179  0.2129
  179SLPC   C1220402   4.769   4.105  10.406 -0.4508  1.1832 -0.4092
  179SLPC  H12A20403   4.745   4.210  10.412 -2.8597  0.5930  0.4449
  179SLPC  H12B20404   4.758   4.087  10.300 -1.8535 -1.0207  0.0812
  179SLPC   C1120405   4.917   4.092  10.449  0.7364  0.5510  0.0939
  179SLPC  H11A20406   4.924   4.105  10.559 -2.1974 -2.3275  0.6994
  179SLPC  H11B20407   4.973   4.178  10.405  2.0018 -0.3542 -0.1046
  179SLPC     P20408   5.015   3.938  10.269 -0.1773  0.0429  0.0816
  179SLPC   O1320409   5.151   3.987  10.240  0.3128 -0.8153  0.1792
  179SLPC   O1420410   5.002   3.790  10.237 -0.1971  0.5587  0.4790
  179SLPC   O1220411   4.973   3.967  10.418 -0.6279 -0.0404  0.4730
  179SLPC   O1120412   4.911   4.021  10.186  0.2845 -0.0736  0.5312
  179SLPC    C120413   4.909   4.011  10.039  0.4708  0.1317 -0.5558
  179SLPC    HA20414   4.844   4.094  10.004 -1.5420 -1.5518 -0.9100
  179SLPC    HB20415   5.009   4.025   9.995  1.8241 -0.5660  2.1885
  179SLPC    C220416   4.846   3.875   9.986 -0.2276 -0.3150  0.3939
  179SLPC    HS20417   4.910   3.791  10.020  1.1094  0.9561  1.1109
  179SLPC   O2120418   4.855   3.879   9.844  0.1257  0.1311  0.0274
  179SLPC   C2120419   4.814   3.764   9.793  1.1523  0.1544 -0.2763
  179SLPC   O2220420   4.803   3.655   9.850  0.9478  0.1587  0.1757
  179SLPC   C2220421   4.769   3.781   9.649 -0.1747 -0.3296  0.1260
  179SLPC   H2R20422   4.702   3.869   9.651 -1.1490 -1.0833  0.7254
  179SLPC   H2S20423   4.857   3.790   9.581  0.0874 -1.1356  0.3497
  179SLPC    C320424   4.696   3.866  10.041 -0.5304 -0.2857 -0.6698
  179SLPC    HX20425   4.700   3.845  10.150  1.5652  1.0230 -0.4671
  179SLPC    HY20426   4.648   3.775   9.998 -0.3575 -1.1439  0.9344
  179SLPC   O3120427   4.604   3.976  10.004 -0.0085 -0.6066 -0.3436
  179SLPC   C3120428   4.484   3.966  10.069 -0.4545 -0.6929 -0.1986
  179SLPC   O3220429   4.465   3.895  10.166 -0.1678 -0.0080 -0.5779
  179SLPC   C3220430   4.372   4.047  10.005  0.1453 -1.0475  0.1011
  179SLPC   H2X20431   4.397   4.155  10.014  0.2344 -0.9576 -1.0584
  179SLPC   H2Y20432   4.281   4.032  10.067  0.7691  1.0607  1.5719
  179SLPC   C2320433   4.688   3.668   9.579 -0.3678  0.0225 -0.0268
  179SLPC   H3R20434   4.585   3.659   9.620  0.2604 -1.1921  1.3437
  179SLPC   H3S20435   4.736   3.572   9.609  0.3804 -0.5889 -2.9451
  179SLPC   C2420436   4.682   3.669   9.425  0.0747 -0.6985 -0.5267
  179SLPC   H4R20437   4.625   3.583   9.385 -1.3472 -0.5468  1.1083
  179SLPC   H4S20438   4.787   3.660   9.390  0.6330 -1.0184  1.1676
  179SLPC   C2520439   4.635   3.793   9.354  0.2162  0.5253  0.5462
  179SLPC   H5R20440   4.705   3.874   9.384 -0.2437  0.4767  1.8084
  179SLPC   H5S20441   4.530   3.815   9.382  0.1021 -1.8749  2.2268
  179SLPC   C2620442   4.649   3.791   9.199  0.1510  0.2578 -0.1934
  179SLPC   H6R20443   4.593   3.701   9.166 -1.2238  1.5979 -1.5931
  179SLPC   H6S20444   4.758   3.776   9.183  0.1548 -1.6350  1.3458
  179SLPC   C2720445   4.596   3.927   9.151 -0.7719  0.3262  0.7322
  179SLPC   H7R20446   4.654   3.946   9.059  0.3031 -1.1467  1.0767
  179SLPC   H7S20447   4.636   4.008   9.216  2.2284 -0.6536  0.1888
  179SLPC   C2820448   4.449   3.930   9.120  0.7293 -0.5326  0.4750
  179SLPC   H8R20449   4.430   4.040   9.123  1.4960 -0.3823 -0.1196
  179SLPC   H8S20450   4.391   3.874   9.198 -0.0919  0.6283  0.7161
  179SLPC   C2920451   4.418   3.888   8.978 -0.1693  0.8927 -0.7346
  179SLPC   H9R20452   4.491   3.825   8.925 -1.3788 -3.2491  2.2463
  179SLPC  C21020453   4.303   3.909   8.912  0.2272 -0.6974 -0.8137
  179SLPC  H10R20454   4.295   3.861   8.813 -0.0049 -1.4978 -0.4100
  179SLPC  C21120455   4.188   3.984   8.967 -0.0582 -0.5025  0.1793
  179SLPC  H11R20456   4.224   4.045   9.053 -0.9470  1.1065 -0.5506
  179SLPC  H11S20457   4.114   3.911   9.008  1.1976 -1.5335  0.6370
  179SLPC  C21220458   4.116   4.074   8.870  0.2692  0.0532 -0.1046
  179SLPC  H12R20459   4.153   4.178   8.868 -1.7318  0.8107 -3.7312
  179SLPC  C21320460   4.023   4.048   8.775  0.3798  0.1622 -0.3691
  179SLPC  H13R20461   3.972   4.122   8.711 -1.7950 -2.3640 -1.6320
  179SLPC  C21420462   3.954   3.919   8.761 -0.1749  0.0971 -0.0064
  179SLPC  H14R20463   3.858   3.926   8.817  0.4844  1.9240  0.9243
  179SLPC  H14S20464   4.017   3.836   8.801  1.7419  0.2636 -2.5379
  179SLPC  C21520465   3.916   3.882   8.608 -0.0857 -0.2019 -0.3780
  179SLPC  H15R20466   3.854   3.962   8.563 -0.5784  1.0850  2.4463
  179SLPC  H15S20467   3.844   3.799   8.622  1.0335 -0.9031  1.4073
  179SLPC  C21620468   4.034   3.836   8.520 -0.4470  1.1747  0.1076
  179SLPC  H16R20469   4.097   3.769   8.582 -2.4505 -1.7161 -0.8762
  179SLPC  H16S20470   4.103   3.918   8.490 -1.3911  0.8595 -3.1259
  179SLPC  C21720471   4.000   3.739   8.405 -0.3569 -0.0469  0.1520
  179SLPC  H17R20472   3.948   3.648   8.442 -1.0802  0.4400  0.3452
  179SLPC  H17S20473   4.088   3.699   8.351 -1.3850 -1.0547 -0.7994
  179SLPC  C21820474   3.916   3.813   8.299  1.3043  0.2583 -0.0951
  179SLPC  H18R20475   3.966   3.903   8.256  2.5945 -0.6055 -0.4578
  179SLPC  H18S20476   3.822   3.844   8.349  2.7342 -0.0818  2.9400
  179SLPC  H18T20477   3.902   3.753   8.206 -0.0686  1.8086 -0.8924
  179SLPC   C3320478   4.350   4.020   9.853 -0.6553  0.0418  0.4011
  179SLPC   H3X20479   4.368   3.912   9.835  0.8871  0.5336 -1.1654
  179SLPC   H3Y20480   4.436   4.068   9.801 -0.5490 -1.2598 -0.6540
  179SLPC   C3420481   4.221   4.067   9.780 -0.3947 -0.1945 -0.2527
  179SLPC   H4X20482   4.233   4.168   9.735 -0.6634  0.5594  1.3295
  179SLPC   H4Y20483   4.137   4.068   9.852 -0.0429  1.3985  0.1577
  179SLPC   C3520484   4.178   3.971   9.665  1.0419 -0.0796  0.3169
  179SLPC   H5X20485   4.138   3.872   9.697 -0.1872  0.1118 -0.5911
  179SLPC   H5Y20486   4.263   3.951   9.597  1.9013 -1.1800  1.6807
  179SLPC   C3620487   4.076   4.040   9.569  0.2155 -0.3075  0.0218
  179SLPC   H6X20488   4.121   4.131   9.523 -0.8127 -0.4725 -1.3515
  179SLPC   H6Y20489   3.992   4.077   9.632  1.1029  0.9022  0.5129
  179SLPC   C3720490   4.024   3.938   9.466  0.1998 -0.3075 -0.2422
  179SLPC   H7X20491   3.989   3.845   9.514 -1.6856 -0.8208 -2.5007
  179SLPC   H7Y20492   4.117   3.905   9.415 -0.0094  0.2312 -0.9879
  179SLPC   C3820493   3.920   4.004   9.378  0.3359  0.0984  0.8806
  179SLPC   H8X20494   3.973   4.090   9.330 -0.7472 -0.0417 -0.5940
  179SLPC   H8Y20495   3.835   4.050   9.432  0.3823  1.2958 -0.0358
  179SLPC   C3920496   3.875   3.906   9.267 -0.0282  0.6900  0.0667
  179SLPC   H9X20497   3.967   3.852   9.236  1.3561  1.9918  1.7862
  179SLPC   H9Y20498   3.826   3.953   9.179  1.7949  0.8910 -0.8614
  179SLPC  C31020499   3.776   3.802   9.312  0.3065 -0.2805 -0.7261
  179SLPC  H10X20500   3.677   3.851   9.318  0.0658 -0.6471 -1.6240
  179SLPC  H10Y20501   3.794   3.773   9.417  1.2756  1.3971 -0.4068
  179SLPC  C31120502   3.784   3.678   9.219  0.4684  0.3940 -0.4480
  179SLPC  H11X20503   3.708   3.603   9.249  1.1535  0.2378  0.9467
  179SLPC  H11Y20504   3.877   3.621   9.240 -0.3840 -0.3793  1.2819
  179SLPC  C31220505   3.774   3.709   9.071 -0.1589  0.3727 -0.9337
  179SLPC  H12X20506   3.868   3.757   9.039  1.4465 -0.6411  2.1013
  179SLPC  H12Y20507   3.687   3.778   9.059  0.2826  1.2660  0.8844
  179SLPC  C31320508   3.751   3.576   8.989  0.0448 -1.0036 -0.8307
  179SLPC  H13X20509   3.718   3.621   8.893 -1.5523  1.3490  0.7434
  179SLPC  H13Y20510   3.672   3.522   9.046 -0.5988  1.7439  1.0121
  179SLPC  C31420511   3.882   3.493   8.977  0.6108  0.3586  0.7617
  179SLPC  H14X20512   3.913   3.458   9.078 -0.0833 -0.7198  0.6055
  179SLPC  H14Y20513   3.970   3.549   8.939 -0.5172  0.0291 -2.4441
  179SLPC  C31520514   3.852   3.368   8.895  0.0331  0.5780  0.3176
  179SLPC  H15X20515   3.764   3.324   8.948 -0.9857 -0.9628 -2.5431
  179SLPC  H15Y20516   3.941   3.302   8.902 -0.5095 -0.3379 -1.3279
  179SLPC  C31620517   3.832   3.386   8.745 -0.3460 -0.3458 -0.3688
  179SLPC  H16X20518   3.924   3.429   8.701 -0.4202 -1.2085 -1.3743
  179SLPC  H16Y20519   3.744   3.451   8.724 -0.1602 -0.4518 -1.5147
  179SLPC  C31720520   3.813   3.249   8.688 -0.5238 -0.1251 -0.0335
  179SLPC  H17X20521   3.715   3.205   8.717 -0.5533  0.0300  0.1034
  179SLPC  H17Y20522   3.897   3.183   8.720  0.9314  1.9043  0.4415
  179SLPC  C31820523   3.820   3.246   8.538  0.6577  0.3867  0.5158
  179SLPC  H18X20524   3.816   3.142   8.500 -1.0547  0.0221  1.6273
  179SLPC  H18Y20525   3.911   3.294   8.495  1.3698 -0.9879  0.4565
  179SLPC  H18Z20526   3.737   3.309   8.498  1.3520  1.5949  0.9329
  180SLPC     N20527   5.922   1.348  10.879 -0.4457  0.2081 -0.1790
  180SLPC   C1320528   5.861   1.477  10.927 -0.6554 -0.3694 -1.0027
  180SLPC  H13A20529   5.894   1.521  11.020 -3.6664 -0.2673  0.0659
  180SLPC  H13B20530   5.861   1.546  10.844 -1.8693 -0.1807 -0.8606
  180SLPC  H13C20531   5.756   1.454  10.936 -1.0772  1.9580  0.4358
  180SLPC   C1420532   5.902   1.250  10.998 -0.1613 -0.3317  0.0126
  180SLPC  H14A20533   5.928   1.149  10.968  2.5466 -0.1430  1.4711
  180SLPC  H14B20534   5.966   1.275  11.082  1.4456  0.3957 -1.4026
  180SLPC  H14C20535   5.798   1.248  11.027 -0.8757 -2.6574 -2.5450
  180SLPC   C1520536   6.073   1.374  10.866 -0.3539  0.1772 -0.1912
  180SLPC  H15A20537   6.082   1.445  10.785  1.4371 -1.7883 -1.7843
  180SLPC  H15B20538   6.121   1.402  10.958  2.0005 -0.6373 -1.1332
  180SLPC  H15C20539   6.126   1.287  10.829  1.8773  1.8194 -0.9515
  180SLPC   C1220540   5.873   1.288  10.754 -0.0194 -0.1157  0.1199
  180SLPC  H12A20541   5.915   1.188  10.756 -1.6251 -0.8185  0.1350
  180SLPC  H12B20542   5.910   1.337  10.666  0.5653 -0.5680  0.1103
  180SLPC   C1120543   5.717   1.296  10.744 -0.6100  0.4219 -0.2362
  180SLPC  H11A20544   5.692   1.249  10.647 -1.4319  0.3239  0.0222
  180SLPC  H11B20545   5.686   1.403  10.740 -2.1348  0.1442  2.6590
  180SLPC     P20546   5.515   1.288  10.916 -0.4789  0.2131 -0.0365
  180SLPC   O1320547   5.431   1.197  10.987  0.3721  0.2551  0.5163
  180SLPC   O1420548   5.558   1.396  11.006 -0.0261  0.3287 -0.5019
  180SLPC   O1220549   5.644   1.226  10.844  0.4697 -0.7116  0.2993
  180SLPC   O1120550   5.434   1.346  10.794  0.4273  0.1790  0.2683
  180SLPC    C120551   5.353   1.278  10.702  0.0460 -0.1788  0.3112
  180SLPC    HA20552   5.347   1.171  10.730 -1.1582  0.4698  2.6771
  180SLPC    HB20553   5.252   1.325  10.708 -0.5926 -1.5313  0.3399
  180SLPC    C220554   5.382   1.305  10.554 -0.7939  0.2303 -0.4960
  180SLPC    HS20555   5.492   1.301  10.544 -0.9250 -0.1828 -2.0468
  180SLPC   O2120556   5.337   1.431  10.515 -0.1435 -0.3590 -0.6087
  180SLPC   C2120557   5.389   1.480  10.407  0.4637 -0.3910  0.9465
  180SLPC   O2220558   5.488   1.433  10.349 -0.0206 -0.7034 -0.0031
  180SLPC   C2220559   5.320   1.608  10.369 -0.6414  0.0115 -0.6309
  180SLPC   H2R20560   5.239   1.631  10.441  0.5310  1.4171  0.2764
  180SLPC   H2S20561   5.390   1.692  10.390 -1.2807  0.2586  0.5261
  180SLPC    C320562   5.313   1.190  10.471 -0.3898  0.5365 -0.2555
  180SLPC    HX20563   5.206   1.194  10.500 -0.2388  0.9292  0.2471
  180SLPC    HY20564   5.349   1.088  10.497  0.0226  0.2719 -1.8075
  180SLPC   O3120565   5.321   1.212  10.324 -0.5679 -0.4187 -0.2792
  180SLPC   C3120566   5.380   1.120  10.241  0.4420 -0.3510 -0.7182
  180SLPC   O3220567   5.447   1.030  10.284 -0.3528  0.0758  0.3836
  180SLPC   C3220568   5.329   1.132  10.094 -0.1672  0.3521  0.1746
  180SLPC   H2X20569   5.324   1.237  10.056 -1.7215  0.4706  0.6986
  180SLPC   H2Y20570   5.227   1.089  10.100  0.6419 -1.4164  1.9394
  180SLPC   C2320571   5.294   1.624  10.224  0.1824 -0.3743  0.0111
  180SLPC   H3R20572   5.214   1.701  10.225 -0.3586 -0.9271  0.1119
  180SLPC   H3S20573   5.250   1.529  10.186 -2.3692 -0.2400  2.4528
  180SLPC   C2420574   5.392   1.665  10.122 -0.0033  0.0827  0.0024
  180SLPC   H4R20575   5.454   1.581  10.085  2.2523  1.8028 -0.2554
  180SLPC   H4S20576   5.469   1.737  10.156 -2.4524  1.2444  3.3582
  180SLPC   C2520577   5.326   1.702   9.992 -0.6514  0.3778 -0.0718
  180SLPC   H5R20578   5.300   1.810   9.994  0.4236  0.6619 -1.1310
  180SLPC   H5S20579   5.228   1.653   9.973 -0.5966 -0.1903  1.0686
  180SLPC   C2620580   5.414   1.676   9.868  0.0293  0.2390 -0.4658
  180SLPC   H6R20581   5.432   1.567   9.854 -0.0619  0.2650 -0.7948
  180SLPC   H6S20582   5.513   1.719   9.892  0.8283 -2.3654  1.0729
  180SLPC   C2720583   5.373   1.751   9.740  0.0231  0.7518 -0.2198
  180SLPC   H7R20584   5.363   1.861   9.752 -0.4314  0.8265 -1.2094
  180SLPC   H7S20585   5.273   1.711   9.713  0.3714 -0.4296  0.2363
  180SLPC   C2820586   5.474   1.742   9.627  0.6334  0.4730 -0.1263
  180SLPC   H8R20587   5.571   1.782   9.665  0.4070 -0.0330  0.9906
  180SLPC   H8S20588   5.440   1.810   9.546 -0.5178 -0.0134 -0.0661
  180SLPC   C2920589   5.487   1.599   9.582 -0.1278 -0.7678 -0.2248
  180SLPC   H9R20590   5.500   1.532   9.668  1.7958  2.4484  2.0943
  180SLPC  C21020591   5.479   1.544   9.456  0.0855  0.1123  0.1446
  180SLPC  H10R20592   5.480   1.435   9.440 -0.1007  0.0240  0.7019
  180SLPC  C21120593   5.478   1.622   9.327 -0.3143  0.1479 -0.7136
  180SLPC  H11R20594   5.426   1.718   9.345 -1.5091 -0.1528 -2.4171
  180SLPC  H11S20595   5.420   1.561   9.254 -0.6039 -0.5015  0.0526
  180SLPC  C21220596   5.619   1.643   9.273 -0.3470 -0.4516 -0.0514
  180SLPC  H12R20597   5.704   1.664   9.340 -1.4321  1.7032  0.6812
  180SLPC  C21320598   5.649   1.629   9.142 -0.5520  0.0805 -0.1755
  180SLPC  H13R20599   5.756   1.632   9.117 -0.3931 -0.4065  0.4345
  180SLPC  C21420600   5.554   1.593   9.030 -0.5670 -1.0904  0.1837
  180SLPC  H14R20601   5.497   1.687   9.012  0.4759 -0.8700 -2.1071
  180SLPC  H14S20602   5.477   1.518   9.057 -1.3308 -0.5560 -0.5006
  180SLPC  C21520603   5.602   1.569   8.884  0.3166 -0.3522  0.2609
  180SLPC  H15R20604   5.514   1.550   8.819  0.8708 -2.0918 -0.0056
  180SLPC  H15S20605   5.665   1.478   8.896 -0.0898 -0.6123  0.4046
  180SLPC  C21620606   5.670   1.701   8.821  0.1917  0.0647 -0.5134
  180SLPC  H16R20607   5.636   1.789   8.881 -1.1692 -0.9264  0.2018
  180SLPC  H16S20608   5.635   1.713   8.716  0.3634  1.2019 -0.4531
  180SLPC  C21720609   5.821   1.694   8.821  0.6008 -0.0864  0.2880
  180SLPC  H17R20610   5.848   1.600   8.768  0.4969  0.7105 -1.2024
  180SLPC  H17S20611   5.863   1.699   8.924  0.0741  4.2774  0.3686
  180SLPC  C21820612   5.902   1.798   8.741 -0.2510  0.3735  0.4935
  180SLPC  H18R20613   6.004   1.759   8.721 -0.0840  1.7627 -1.5505
  180SLPC  H18S20614   5.912   1.894   8.796 -0.5184  1.9957 -2.2064
  180SLPC  H18T20615   5.858   1.809   8.640  2.4682  1.5006 -0.6219
  180SLPC   C3320616   5.408   1.049   9.989  0.4378 -0.0888 -0.8051
  180SLPC   H3X20617   5.411   0.941  10.015 -1.7797  0.4770  2.1156
  180SLPC   H3Y20618   5.513   1.082  10.008  0.8396 -0.7870 -1.7911
  180SLPC   C3420619   5.374   1.063   9.844  0.1237 -0.0616 -0.4837
  180SLPC   H4X20620   5.281   1.006   9.823  0.6107 -1.8202  2.0682
  180SLPC   H4Y20621   5.448   1.005   9.784  0.2742  0.2712 -0.6215
  180SLPC   C3520622   5.376   1.204   9.784  0.1681 -0.9503 -0.0085
  180SLPC   H5X20623   5.480   1.241   9.790  0.0865 -0.7993  0.4702
  180SLPC   H5Y20624   5.306   1.268   9.842 -0.0928 -1.7906  0.6067
  180SLPC   C3620625   5.321   1.201   9.640 -0.5599  0.1717  0.5665
  180SLPC   H6X20626   5.332   1.295   9.584  1.3032 -1.4977 -1.9647
  180SLPC   H6Y20627   5.212   1.181   9.634 -0.5093  0.1369 -0.2721
  180SLPC   C3720628   5.387   1.098   9.549  0.4834  0.2243  0.0894
  180SLPC   H7X20629   5.416   1.003   9.599  0.6298  0.2262  0.0092
  180SLPC   H7Y20630   5.489   1.138   9.530  0.6693 -0.5210 -0.5226
  180SLPC   C3820631   5.313   1.070   9.414 -0.0078 -0.3907  0.3903
  180SLPC   H8X20632   5.218   1.018   9.436  0.8422 -2.7721 -1.4371
  180SLPC   H8Y20633   5.386   1.007   9.360  0.6369  0.5961  0.0804
  180SLPC   C3920634   5.292   1.192   9.326  1.0472 -0.3813  1.6685
  180SLPC   H9X20635   5.387   1.245   9.305  0.4955  0.0462  0.1652
  180SLPC   H9Y20636   5.211   1.259   9.362 -0.4298 -1.6130  0.7222
  180SLPC  C31020637   5.246   1.146   9.183 -0.0034 -0.2392 -0.9221
  180SLPC  H10X20638   5.167   1.069   9.195 -0.2714 -0.2745 -2.8783
  180SLPC  H10Y20639   5.331   1.094   9.136 -0.9482 -0.3746 -2.4983
  180SLPC  C31120640   5.214   1.265   9.094  0.9869  0.2429  0.9783
  180SLPC  H11X20641   5.293   1.343   9.095  0.4645  0.7768  2.1781
  180SLPC  H11Y20642   5.120   1.310   9.131  1.4946  1.8156  0.4110
  180SLPC  C31220643   5.206   1.223   8.948 -0.1287  0.0091  0.2684
  180SLPC  H12X20644   5.146   1.131   8.927 -1.2829  0.9373 -0.5413
  180SLPC  H12Y20645   5.312   1.202   8.924  0.1170  0.9151  0.5741
  180SLPC  C31320646   5.162   1.339   8.863  0.4103  0.1451 -0.1823
  180SLPC  H13X20647   5.220   1.428   8.896 -0.1306  0.4947 -0.1573
  180SLPC  H13Y20648   5.056   1.359   8.891  0.7463  0.0458  1.2156
  180SLPC  C31420649   5.196   1.332   8.714 -0.1965 -0.5652 -0.0611
  180SLPC  H14X20650   5.132   1.260   8.660  0.8361 -1.0521 -0.6459
  180SLPC  H14Y20651   5.301   1.302   8.698  0.5955  2.2957 -0.5933
  180SLPC  C31520652   5.173   1.475   8.654  0.2122 -1.5805 -0.2808
  180SLPC  H15X20653   5.201   1.456   8.548  1.9951  0.2725 -0.1553
  180SLPC  H15Y20654   5.246   1.546   8.698  0.3252 -0.8310 -1.6626
  180SLPC  C31620655   5.025   1.529   8.672  0.4760  0.4012 -0.2805
  180SLPC  H16X20656   5.018   1.569   8.775 -0.8745 -2.3263  0.7148
  180SLPC  H16Y20657   4.946   1.456   8.645  1.0466 -0.3722  0.1180
  180SLPC  C31720658   5.000   1.644   8.577 -0.1136  0.1083  0.3575
  180SLPC  H17X20659   5.032   1.616   8.475 -1.3627 -1.9604  0.4895
  180SLPC  H17Y20660   5.076   1.722   8.599 -3.3778  4.3030 -2.3638
  180SLPC  C31820661   4.857   1.697   8.573 -0.5178  0.2674  0.0269
  180SLPC  H18X20662   4.850   1.781   8.500  1.5587  1.0834  0.7580
  180SLPC  H18Y20663   4.813   1.735   8.667 -2.2492 -0.4509 -0.4508
  180SLPC  H18Z20664   4.790   1.611   8.550  0.0183 -0.0692 -0.3038
  181SLPC     N20665   1.300   4.914  11.201 -0.2967 -0.0285 -0.0326
  181SLPC   C1320666   1.179   4.926  11.282  0.0704 -0.2726  0.3792
  181SLPC  H13A20667   1.195   4.988  11.369  0.5197 -2.4032  1.8612
  181SLPC  H13B20668   1.098   4.977  11.232 -0.4952 -0.9466  0.6161
  181SLPC  H13C20669   1.147   4.827  11.311 -2.1483  0.2743 -0.1388
  181SLPC   C1420670   1.284   4.795  11.119  0.0234  0.7405  0.2016
  181SLPC  H14A20671   1.275   4.714  11.191  1.2972 -0.3577 -0.8590
  181SLPC  H14B20672   1.191   4.800  11.065  0.1374  1.9780  0.1097
  181SLPC  H14C20673   1.373   4.773  11.063 -1.5379  2.0075 -2.8757
  181SLPC   C1520674   1.423   4.880  11.288  0.8780 -0.0717  0.2836
  181SLPC  H15A20675   1.499   4.827  11.232 -0.8508 -1.3514 -0.9171
  181SLPC  H15B20676   1.461   4.975  11.325 -0.3875  0.3732  0.4677
  181SLPC  H15C20677   1.402   4.819  11.374  2.5881  0.4880  1.1268
  181SLPC   C1220678   1.317   5.033  11.113 -0.0112  0.1607 -0.5379
  181SLPC  H12A20679   1.407   5.014  11.056 -0.3782 -1.4808 -0.5928
  181SLPC  H12B20680   1.323   5.114  11.184 -2.8782 -2.0345  2.3728
  181SLPC   C1120681   1.209   5.070  11.010  0.0349  0.6607  0.6084
  181SLPC  H11A20682   1.189   4.981  10.947  1.4046  0.3944  0.5520
  181SLPC  H11B20683   1.257   5.146  10.944  1.0582 -0.0448  0.5377
  181SLPC     P20684   1.066   5.247  11.130  0.0948 -0.0919  0.0957
  181SLPC   O1320685   0.986   5.334  11.039 -1.0412 -0.1960 -0.0493
  181SLPC   O1420686   1.024   5.240  11.267 -0.8516  0.0505 -0.5909
  181SLPC   O1220687   1.081   5.105  11.066 -0.0981  0.3159  0.5393
  181SLPC   O1120688   1.208   5.306  11.137  0.4135 -0.0746  0.1737
  181SLPC    C120689   1.239   5.444  11.119  0.0020 -0.2876 -0.3329
  181SLPC    HA20690   1.151   5.511  11.112 -1.1533 -1.9512 -2.3077
  181SLPC    HB20691   1.314   5.484  11.191 -0.0811  0.1238 -0.4760
  181SLPC    C220692   1.303   5.472  10.976  0.3058  1.2321 -0.0305
  181SLPC    HS20693   1.313   5.583  10.976 -2.8028  1.5510 -0.9114
  181SLPC   O2120694   1.218   5.426  10.870 -0.1571 -0.0015 -0.4380
  181SLPC   C2120695   1.136   5.519  10.822  0.3581 -0.3697 -0.0561
  181SLPC   O2220696   1.111   5.621  10.878  0.1291 -0.3715 -0.2775
  181SLPC   C2220697   1.085   5.483  10.677 -0.2984  0.0823  0.0459
  181SLPC   H2R20698   1.135   5.389  10.648 -2.1381 -0.6212 -0.8564
  181SLPC   H2S20699   0.975   5.482  10.685 -0.2799  1.1440  0.5800
  181SLPC    C320700   1.446   5.411  10.958  0.2949  0.2981  0.7495
  181SLPC    HX20701   1.440   5.300  10.963 -0.2115 -0.0857 -5.5104
  181SLPC    HY20702   1.509   5.432  11.047 -0.7754 -0.3904  1.7054
  181SLPC   O3120703   1.498   5.457  10.824  0.9613  0.0384 -0.1778
  181SLPC   C3120704   1.483   5.363  10.726 -0.0399 -0.2871  0.2546
  181SLPC   O3220705   1.441   5.251  10.739 -0.1731 -0.0764 -0.3937
  181SLPC   C3220706   1.545   5.414  10.594  0.4525 -0.0880  0.5032
  181SLPC   H2X20707   1.641   5.359  10.583  1.3425  1.5755 -0.2593
  181SLPC   H2Y20708   1.571   5.522  10.593  1.8653 -0.4237  0.4035
  181SLPC   C2320709   1.129   5.597  10.574  0.6867  0.1673 -0.5996
  181SLPC   H3R20710   1.238   5.589  10.552  0.4794 -0.2587 -1.5105
  181SLPC   H3S20711   1.107   5.696  10.620 -0.1694  0.1792 -1.0220
  181SLPC   C2420712   1.058   5.589  10.442 -0.2462 -0.2516 -0.0745
  181SLPC   H4R20713   0.950   5.602  10.463  0.0022  0.9625  0.5002
  181SLPC   H4S20714   1.071   5.487  10.400  0.8431 -0.4164  0.6435
  181SLPC   C2520715   1.124   5.679  10.338  0.4062 -0.2075 -0.4415
  181SLPC   H5R20716   1.215   5.618  10.317 -0.0911 -1.3539  0.7052
  181SLPC   H5S20717   1.147   5.779  10.382  0.0831 -0.9651  1.4630
  181SLPC   C2620718   1.058   5.689  10.195 -0.5184 -0.1338 -0.2054
  181SLPC   H6R20719   0.976   5.764  10.190 -0.1863  0.5403  3.1455
  181SLPC   H6S20720   1.020   5.588  10.171 -0.4427 -0.2706  0.2487
  181SLPC   C2720721   1.163   5.726  10.086  0.3057  0.0119  0.4083
  181SLPC   H7R20722   1.250   5.661  10.112 -1.1919 -1.4568  1.8486
  181SLPC   H7S20723   1.184   5.835  10.088  1.1505 -0.1368 -0.2002
  181SLPC   C2820724   1.125   5.694   9.933  0.0045  0.5988  0.3829
  181SLPC   H8R20725   1.208   5.733   9.870 -0.7163  1.1461 -0.2380
  181SLPC   H8S20726   1.036   5.749   9.898  0.3863  1.6246  0.9947
  181SLPC   C2920727   1.101   5.548   9.898 -0.0422  0.0324  0.6286
  181SLPC   H9R20728   1.055   5.490   9.980 -0.0901 -0.2784  0.3840
  181SLPC  C21020729   1.132   5.489   9.771  0.1498 -0.1330 -0.6378
  181SLPC  H10R20730   1.119   5.382   9.749  0.2697 -0.3935  0.5471
  181SLPC  C21120731   1.198   5.552   9.656  0.4945 -0.6019 -0.9296
  181SLPC  H11R20732   1.240   5.480   9.582  0.3774 -1.9412  0.2918
  181SLPC  H11S20733   1.287   5.613   9.681 -0.2500  0.5440 -1.0163
  181SLPC  C21220734   1.095   5.647   9.593  0.2462  0.9486 -0.5413
  181SLPC  H12R20735   1.007   5.674   9.654  1.6904 -1.1104  2.5966
  181SLPC  C21320736   1.089   5.696   9.465 -0.0118  0.3137 -0.3494
  181SLPC  H13R20737   1.006   5.761   9.437 -0.3439 -1.0461 -2.7050
  181SLPC  C21420738   1.196   5.661   9.369 -0.6443  0.5168  0.5133
  181SLPC  H14R20739   1.243   5.565   9.401  0.2890  0.7243 -0.2186
  181SLPC  H14S20740   1.273   5.741   9.370 -0.3442  0.3048 -2.3856
  181SLPC  C21520741   1.135   5.643   9.227 -0.7645  0.3493 -0.7213
  181SLPC  H15R20742   1.080   5.736   9.204 -1.1072  0.3476  0.0862
  181SLPC  H15S20743   1.052   5.570   9.229  0.2098 -0.7541  0.6218
  181SLPC  C21620744   1.241   5.613   9.125 -0.1024  0.1874 -0.2507
  181SLPC  H16R20745   1.317   5.694   9.126  2.9608 -2.6112  1.3549
  181SLPC  H16S20746   1.186   5.613   9.028 -2.0098 -0.4946  0.8063
  181SLPC  C21720747   1.312   5.482   9.134  0.6799 -0.4374 -0.1572
  181SLPC  H17R20748   1.258   5.398   9.084  2.0250  0.0358 -2.4366
  181SLPC  H17S20749   1.317   5.460   9.243  1.3038 -2.1470 -0.5100
  181SLPC  C21820750   1.449   5.479   9.071 -0.1453  0.4924 -0.6855
  181SLPC  H18R20751   1.447   5.493   8.961  1.1010  0.6548 -0.7023
  181SLPC  H18S20752   1.499   5.381   9.088 -0.4345  0.2151 -1.4417
  181SLPC  H18T20753   1.522   5.541   9.128 -1.5617  0.5419  1.1316
  181SLPC   C3320754   1.466   5.360  10.472 -0.0487 -0.2986 -0.1776
  181SLPC   H3X20755   1.381   5.430  10.455 -0.0430  0.8357  3.9030
  181SLPC   H3Y20756   1.444   5.252  10.484  0.6502 -0.3698  0.5246
  181SLPC   C3420757   1.553   5.366  10.344  0.3762 -0.6460 -0.1173
  181SLPC   H4X20758   1.609   5.270  10.333  2.0931  0.3068  0.0907
  181SLPC   H4Y20759   1.624   5.451  10.347 -0.2726  0.0054 -2.5034
  181SLPC   C3520760   1.474   5.373  10.211 -0.3932 -0.3735  0.1038
  181SLPC   H5X20761   1.426   5.469  10.183  0.8583 -0.7748 -3.8141
  181SLPC   H5Y20762   1.388   5.303  10.216 -1.4950  1.0529  1.3142
  181SLPC   C3620763   1.552   5.339  10.085  0.4971 -0.4982  0.3095
  181SLPC   H6X20764   1.602   5.240  10.094  0.8178 -0.4155 -0.5105
  181SLPC   H6Y20765   1.642   5.404  10.084  0.2741 -0.1859  0.5753
  181SLPC   C3720766   1.475   5.369   9.961 -1.3757 -0.3942  0.1920
  181SLPC   H7X20767   1.444   5.475   9.950 -0.1033 -0.2919 -3.0229
  181SLPC   H7Y20768   1.393   5.296   9.946 -1.5353 -0.7259  2.4391
  181SLPC   C3820769   1.569   5.333   9.841 -0.5210  0.0636 -0.0202
  181SLPC   H8X20770   1.576   5.222   9.844  1.5700  0.0708 -2.5491
  181SLPC   H8Y20771   1.667   5.375   9.872 -1.7378  0.4341  3.5881
  181SLPC   C3920772   1.522   5.395   9.710  0.2665  0.2376 -0.2295
  181SLPC   H9X20773   1.540   5.505   9.712 -0.0972  0.3294 -1.8320
  181SLPC   H9Y20774   1.415   5.373   9.694  0.2801 -0.3214  0.3933
  181SLPC  C31020775   1.596   5.337   9.584 -0.7000 -0.2452 -0.8776
  181SLPC  H10X20776   1.574   5.232   9.559  1.2652 -0.9196  0.0980
  181SLPC  H10Y20777   1.702   5.338   9.620 -1.1277 -0.5166  0.4367
  181SLPC  C31120778   1.579   5.428   9.461  0.1100  1.1257  0.1071
  181SLPC  H11X20779   1.596   5.534   9.489 -3.4715  1.2705  2.1135
  181SLPC  H11Y20780   1.471   5.431   9.435 -0.1527  0.2243  1.0754
  181SLPC  C31220781   1.674   5.408   9.336 -1.0919 -0.3766  0.0238
  181SLPC  H12X20782   1.670   5.498   9.271 -1.0855 -0.4579 -0.0858
  181SLPC  H12Y20783   1.648   5.319   9.276  0.5851 -0.9912  0.1809
  181SLPC  C31320784   1.819   5.373   9.375  0.1078  0.3947  0.2046
  181SLPC  H13X20785   1.830   5.306   9.462  0.2855  0.4433  0.2191
  181SLPC  H13Y20786   1.876   5.467   9.395  0.8043 -0.3887  1.9860
  181SLPC  C31420787   1.896   5.314   9.256 -0.2119  0.8427 -0.1235
  181SLPC  H14X20788   1.951   5.403   9.217  2.8539 -0.7832  0.3330
  181SLPC  H14Y20789   1.822   5.274   9.183 -0.3192 -3.2643  2.1132
  181SLPC  C31520790   1.987   5.204   9.307 -0.2810 -0.2444  0.9299
  181SLPC  H15X20791   1.930   5.117   9.346  1.4699 -2.0818 -0.4636
  181SLPC  H15Y20792   2.043   5.247   9.392 -0.1917  3.5549 -0.9653
  181SLPC  C31620793   2.103   5.151   9.210  0.5003  0.1986 -0.9250
  181SLPC  H16X20794   2.049   5.105   9.125 -0.3177  1.0243 -0.8599
  181SLPC  H16Y20795   2.153   5.072   9.270 -0.8358 -0.0289 -0.0979
  181SLPC  C31720796   2.201   5.256   9.163 -0.1307 -0.8356 -0.0446
  181SLPC  H17X20797   2.300   5.210   9.184  0.1108 -0.2631  0.1006
  181SLPC  H17Y20798   2.180   5.347   9.224  1.3834 -0.3612 -0.2066
  181SLPC  C31820799   2.183   5.282   9.016 -0.5250 -0.0451  0.2759
  181SLPC  H18X20800   2.191   5.186   8.959 -0.2760 -0.9260  1.7758
  181SLPC  H18Y20801   2.261   5.351   8.978 -2.0136  0.5376 -1.8084
  181SLPC  H18Z20802   2.086   5.335   9.005 -0.7950 -0.3946  0.9263
  182SLPC     N20803   6.187   6.649  11.096 -0.1199 -0.2410  0.3042
  182SLPC   C1320804   6.164   6.788  11.142 -0.7320  0.2223 -0.5370
  182SLPC  H13A20805   6.104   6.844  11.071 -1.1856 -0.7823 -0.9542
  182SLPC  H13B20806   6.117   6.772  11.238 -0.9404  0.9756 -0.5088
  182SLPC  H13C20807   6.254   6.844  11.160 -1.1326  0.9841 -0.8757
  182SLPC   C1420808   6.069   6.570  11.141 -0.2606 -0.5513  0.3226
  182SLPC  H14A20809   5.980   6.601  11.088  0.0888  0.3389  0.2499
  182SLPC  H14B20810   6.085   6.467  11.112  0.5596  0.1551 -1.8687
  182SLPC  H14C20811   6.066   6.577  11.249  0.1755  0.0490  0.2982
  182SLPC   C1520812   6.298   6.584  11.172  0.0691  0.0005  0.0840
  182SLPC  H15A20813   6.305   6.477  11.164  3.3495  0.1341  0.5025
  182SLPC  H15B20814   6.395   6.622  11.142 -0.7237  0.0776 -2.5140
  182SLPC  H15C20815   6.282   6.604  11.277 -1.9000  1.6643 -0.5107
  182SLPC   C1220816   6.211   6.630  10.942  0.4555  0.4359  0.5609
  182SLPC  H12A20817   6.209   6.523  10.926 -0.6226  0.5300 -0.0145
  182SLPC  H12B20818   6.310   6.664  10.918  0.9125 -0.4137  1.2417
  182SLPC   C1120819   6.113   6.686  10.841 -0.0061 -0.0827  0.4122
  182SLPC  H11A20820   6.170   6.688  10.746  1.2401 -1.9399  1.0977
  182SLPC  H11B20821   6.095   6.790  10.878  1.4359  0.7047 -1.0341
  182SLPC     P20822   5.954   6.496  10.734  0.3446 -0.2166  0.1721
  182SLPC   O1320823   5.922   6.376  10.810  0.2061  0.2385 -0.0049
  182SLPC   O1420824   5.850   6.548  10.642 -0.6379 -0.3335  0.2280
  182SLPC   O1220825   6.000   6.600  10.837  0.4018 -0.2324  0.2079
  182SLPC   O1120826   6.084   6.475  10.644  0.1574  0.1759  0.0996
  182SLPC    C120827   6.125   6.358  10.568  0.3296  0.6929  0.5207
  182SLPC    HA20828   6.232   6.336  10.584  0.4125  1.2606  0.7567
  182SLPC    HB20829   6.059   6.269  10.570  1.3574 -0.1076 -0.7791
  182SLPC    C220830   6.130   6.401  10.411  0.4496  0.3395 -0.2103
  182SLPC    HS20831   6.032   6.441  10.377  1.1542  1.2706 -1.1999
  182SLPC   O2120832   6.166   6.291  10.328  0.7218  0.2824 -0.2793
  182SLPC   C2120833   6.074   6.208  10.307 -0.6849  0.3535 -0.8066
  182SLPC   O2220834   5.958   6.224  10.333 -0.1392 -0.3362  0.2966
  182SLPC   C2220835   6.127   6.079  10.240  0.1220  0.0733 -0.6506
  182SLPC   H2R20836   6.192   6.039  10.321 -0.5008  0.2740 -0.0403
  182SLPC   H2S20837   6.037   6.017  10.219 -0.1195 -1.2634  3.7430
  182SLPC    C320838   6.239   6.503  10.390  0.4242 -0.4080 -0.1757
  182SLPC    HX20839   6.329   6.451  10.429 -0.3161 -0.6834  1.1782
  182SLPC    HY20840   6.210   6.595  10.445 -1.1834 -1.1004  0.1683
  182SLPC   O3120841   6.264   6.534  10.252  0.3975 -0.0539 -0.5085
  182SLPC   C3120842   6.184   6.610  10.201 -0.9880  0.1844 -0.3164
  182SLPC   O3220843   6.083   6.658  10.243  0.2756 -0.2371 -0.5468
  182SLPC   C3220844   6.235   6.636  10.059  0.1639 -0.4525 -0.0278
  182SLPC   H2X20845   6.187   6.563   9.989 -5.1879  1.9862  0.8728
  182SLPC   H2Y20846   6.345   6.628  10.049  0.0176 -0.9261 -1.4981
  182SLPC   C2320847   6.207   6.097  10.111 -0.0065 -0.2157  0.7389
  182SLPC   H3R20848   6.249   6.001  10.075  0.6051  0.6229 -0.8551
  182SLPC   H3S20849   6.291   6.166  10.135 -0.6988  0.8673  0.0691
  182SLPC   C2420850   6.132   6.155   9.990 -0.0839  0.4153  0.5694
  182SLPC   H4R20851   6.081   6.250  10.018  0.0974  0.6863 -0.0111
  182SLPC   H4S20852   6.056   6.084   9.953  1.1653 -0.8537  0.3991
  182SLPC   C2520853   6.229   6.180   9.873 -0.2774 -0.1739 -0.7535
  182SLPC   H5R20854   6.162   6.199   9.787 -1.0899 -0.0016 -0.0950
  182SLPC   H5S20855   6.286   6.086   9.854 -1.5632 -0.8191 -1.5161
  182SLPC   C2620856   6.325   6.303   9.888  0.8480  0.0541  0.1037
  182SLPC   H6R20857   6.416   6.257   9.932  0.5897 -0.7458 -0.1931
  182SLPC   H6S20858   6.283   6.375   9.962  1.2435  0.8468 -0.4429
  182SLPC   C2720859   6.370   6.366   9.760  0.1969  0.2703 -0.3035
  182SLPC   H7R20860   6.427   6.456   9.792  2.3262 -1.7999  1.9070
  182SLPC   H7S20861   6.280   6.394   9.702  0.3196  0.2889 -0.4846
  182SLPC   C2820862   6.450   6.268   9.666 -0.4367  0.2542 -0.3659
  182SLPC   H8R20863   6.376   6.193   9.633 -1.0852  0.4941  0.5288
  182SLPC   H8S20864   6.528   6.222   9.731 -2.3475 -1.9392  0.4258
  182SLPC   C2920865   6.526   6.326   9.547 -0.1797 -0.1358  0.4012
  182SLPC   H9R20866   6.454   6.382   9.486  1.2712  0.8209 -0.4779
  182SLPC  C21020867   6.656   6.303   9.510 -0.0274  0.7383 -0.6758
  182SLPC  H10R20868   6.692   6.337   9.412 -0.0941 -1.4262 -1.4707
  182SLPC  C21120869   6.762   6.219   9.574  0.1800 -0.3071  0.3283
  182SLPC  H11R20870   6.812   6.153   9.500  0.4935  0.1510  0.1270
  182SLPC  H11S20871   6.709   6.146   9.639 -0.9098  0.0327 -0.1595
  182SLPC  C21220872   6.868   6.309   9.636 -0.5561 -0.1079  0.8212
  182SLPC  H12R20873   6.916   6.373   9.560 -0.4621 -1.5984 -0.4121
  182SLPC  C21320874   6.911   6.300   9.762 -0.4409  0.2491  0.2290
  182SLPC  H13R20875   6.987   6.373   9.794 -1.0696  1.9538 -2.0704
  182SLPC  C21420876   6.863   6.202   9.866 -0.5725 -0.4399  0.0826
  182SLPC  H14R20877   6.954   6.165   9.919 -0.6257 -2.7663 -1.3638
  182SLPC  H14S20878   6.823   6.112   9.815 -0.8171  0.1979 -0.8672
  182SLPC  C21520879   6.765   6.254   9.971  0.6421  0.8240  0.1436
  182SLPC  H15R20880   6.752   6.166  10.039  1.8642  0.9098  0.5103
  182SLPC  H15S20881   6.668   6.271   9.920 -0.6759 -1.8946  1.6294
  182SLPC  C21620882   6.807   6.371  10.062  0.3453 -0.3766  1.0110
  182SLPC  H16R20883   6.855   6.459  10.014  1.6861 -1.6643 -0.0678
  182SLPC  H16S20884   6.883   6.334  10.133 -0.0222 -0.0341  1.5890
  182SLPC  C21720885   6.693   6.421  10.148  0.3061 -0.4429 -0.3110
  182SLPC  H17R20886   6.609   6.454  10.083  0.6104 -0.8338 -0.9022
  182SLPC  H17S20887   6.734   6.512  10.198 -2.6741  0.2716  0.9355
  182SLPC  C21820888   6.665   6.316  10.254 -0.1784 -0.2705  0.0748
  182SLPC  H18R20889   6.749   6.280  10.318 -1.1233 -0.1351  1.4043
  182SLPC  H18S20890   6.646   6.216  10.207  1.9798  0.1140 -1.7202
  182SLPC  H18T20891   6.583   6.356  10.317 -0.7671  2.4953 -2.3384
  182SLPC   C3320892   6.208   6.777  10.001 -0.2527 -0.3415 -0.6850
  182SLPC   H3X20893   6.250   6.854  10.069 -0.3443 -0.4454 -0.5108
  182SLPC   H3Y20894   6.098   6.792  10.006 -0.1370  1.0674 -1.9609
  182SLPC   C3420895   6.249   6.808   9.852  0.5829 -0.1714 -0.5706
  182SLPC   H4X20896   6.348   6.759   9.846  1.9787  2.6529 -1.3729
  182SLPC   H4Y20897   6.237   6.919   9.855  0.5194 -0.2097  0.6028
  182SLPC   C3520898   6.154   6.762   9.747 -0.4858  0.6002 -0.9224
  182SLPC   H5X20899   6.057   6.814   9.750 -1.3005 -0.9039 -0.6598
  182SLPC   H5Y20900   6.123   6.658   9.772 -1.3996  0.6939 -1.6654
  182SLPC   C3620901   6.231   6.763   9.617  0.0109 -0.6022  0.0414
  182SLPC   H6X20902   6.320   6.698   9.629  2.2536  2.0339 -1.6635
  182SLPC   H6Y20903   6.261   6.866   9.587 -1.2558 -0.0726  0.5466
  182SLPC   C3720904   6.146   6.699   9.500 -0.1430 -0.1544  0.1011
  182SLPC   H7X20905   6.047   6.748   9.492  0.8100  1.6596 -0.7123
  182SLPC   H7Y20906   6.118   6.596   9.531  2.4711 -1.3051 -1.2572
  182SLPC   C3820907   6.226   6.713   9.365  0.0152 -0.2359 -0.0694
  182SLPC   H8X20908   6.292   6.624   9.359 -2.3678 -2.0473 -0.0873
  182SLPC   H8Y20909   6.282   6.806   9.340  1.4090 -0.1638  3.1083
  182SLPC   C3920910   6.126   6.684   9.253 -0.7193  0.2863 -0.5140
  182SLPC   H9X20911   6.051   6.766   9.247  0.5830  1.5351  0.0157
  182SLPC   H9Y20912   6.062   6.594   9.265 -0.2059  0.0712  0.6739
  182SLPC  C31020913   6.202   6.697   9.120  0.2425  0.1129  0.4737
  182SLPC  H10X20914   6.283   6.621   9.120 -0.5147 -0.6881  1.5799
  182SLPC  H10Y20915   6.252   6.796   9.118  0.2631  0.1625  2.5149
  182SLPC  C31120916   6.117   6.683   8.993  0.1870 -0.5595  0.2492
  182SLPC  H11X20917   6.062   6.780   8.985  0.5120 -0.6482 -4.7268
  182SLPC  H11Y20918   6.048   6.596   8.993 -0.1959 -0.2549  0.4232
  182SLPC  C31220919   6.196   6.685   8.856 -0.0256  0.1110 -0.0172
  182SLPC  H12X20920   6.269   6.602   8.862 -0.6695 -0.5494 -1.1692
  182SLPC  H12Y20921   6.252   6.780   8.845  2.5796 -1.7834 -4.3214
  182SLPC  C31320922   6.118   6.673   8.728 -0.7894 -0.0845 -0.2581
  182SLPC  H13X20923   6.047   6.757   8.719  0.5889  1.2308  0.9645
  182SLPC  H13Y20924   6.063   6.576   8.721  0.0012 -0.4647 -1.2774
  182SLPC  C31420925   6.224   6.689   8.615 -0.0939  0.7576  0.0049
  182SLPC  H14X20926   6.295   6.605   8.632 -1.2341 -0.6821 -2.2170
  182SLPC  H14Y20927   6.281   6.785   8.626  1.4340 -0.1691  0.3020
  182SLPC  C31520928   6.170   6.675   8.475  0.4433  0.0271  0.0456
  182SLPC  H15X20929   6.097   6.758   8.464  0.8285  0.3337 -0.1962
  182SLPC  H15Y20930   6.129   6.572   8.463 -1.2426  0.6072  0.5416
  182SLPC  C31620931   6.273   6.679   8.367 -0.0417 -0.3263 -0.3436
  182SLPC  H16X20932   6.332   6.773   8.379 -1.5426  0.4924  0.8457
  182SLPC  H16Y20933   6.222   6.692   8.269  0.1405  2.3978 -0.1317
  182SLPC  C31720934   6.365   6.559   8.365  0.1858  0.4456  0.2362
  182SLPC  H17X20935   6.297   6.475   8.343  0.0341  0.4154  0.8041
  182SLPC  H17Y20936   6.406   6.531   8.465  1.9319  3.8046  0.5549
  182SLPC  C31820937   6.493   6.547   8.276 -0.2827  0.1446 -0.5796
  182SLPC  H18X20938   6.586   6.586   8.322  1.5372 -2.2167 -2.1179
  182SLPC  H18Y20939   6.466   6.608   8.187  0.9250  1.6414  0.0505
  182SLPC  H18Z20940   6.514   6.441   8.250 -2.7582 -0.2293 -1.1964
  183SLPC     N20941   1.148   0.086  10.983 -0.3742  0.4058 -0.1819
  183SLPC   C1320942   1.008   0.126  11.023 -0.0128 -0.3499 -0.3551
  183SLPC  H13A20943   0.997   0.233  11.034 -1.6022 -0.2592 -2.5310
  183SLPC  H13B20944   0.931   0.097  10.953 -0.1837 -0.9396  0.0717
  183SLPC  H13C20945   0.985   0.084  11.120 -2.3651 -1.3786 -1.3229
  183SLPC   C1420946   1.145  -0.064  10.979 -0.6822 -0.1696 -0.3197
  183SLPC  H14A20947   1.116  -0.104  11.075 -0.2284 -1.6529 -0.7938
  183SLPC  H14B20948   1.084  -0.099  10.897 -1.4321  0.1326  0.1104
  183SLPC  H14C20949   1.241  -0.110  10.959 -0.9365  0.3016 -2.7823
  183SLPC   C1520950   1.235   0.131  11.090 -1.1318  0.4748 -0.3373
  183SLPC  H15A20951   1.238   0.239  11.092  0.4901  0.4235  0.7558
  183SLPC  H15B20952   1.216   0.090  11.188 -1.2955  0.6650 -0.2874
  183SLPC  H15C20953   1.332   0.091  11.066 -0.6004  0.1949  2.0990
  183SLPC   C1220954   1.175   0.139  10.848  0.0240  0.1502  0.1744
  183SLPC  H12A20955   1.155   0.245  10.851 -1.4225 -0.1103  0.0100
  183SLPC  H12B20956   1.103   0.103  10.777 -1.0212  0.2445  1.1631
  183SLPC   C1120957   1.316   0.114  10.781 -0.3461 -0.2386 -0.3030
  183SLPC  H11A20958   1.338   0.184  10.697  0.9869 -1.2409 -0.8017
  183SLPC  H11B20959   1.319   0.011  10.738 -0.7399 -0.5381  0.3938
  183SLPC     P20960   1.529   0.018  10.901  0.0211 -0.3867 -0.5526
  183SLPC   O1320961   1.614   0.081  11.001 -0.7326  0.6447  0.1114
  183SLPC   O1420962   1.461  -0.106  10.940 -0.2157  0.3154 -0.0903
  183SLPC   O1220963   1.423   0.133  10.870 -0.4368 -0.3583  0.8820
  183SLPC   O1120964   1.596  -0.008  10.758 -0.6547 -0.4266 -0.1412
  183SLPC    C120965   1.672   0.088  10.690  0.2228 -0.4111  0.3047
  183SLPC    HA20966   1.652   0.190  10.730  0.8695 -0.3597  0.5004
  183SLPC    HB20967   1.781   0.076  10.703 -0.0313 -1.1145  1.9155
  183SLPC    C220968   1.643   0.082  10.539 -0.0440 -0.7022 -0.3698
  183SLPC    HS20969   1.533   0.090  10.526 -0.1153  0.0747  0.6035
  183SLPC   O2120970   1.696  -0.041  10.482 -0.4760  0.2548 -0.1729
  183SLPC   C2120971   1.622  -0.100  10.391 -0.4044 -0.3742  0.0651
  183SLPC   O2220972   1.515  -0.055  10.344  0.0625  0.6437 -0.5742
  183SLPC   C2220973   1.686  -0.232  10.347  0.6691 -0.9799  0.8012
  183SLPC   H2R20974   1.718  -0.277  10.444  0.0644  0.8892  1.9004
  183SLPC   H2S20975   1.607  -0.294  10.299  0.3698 -0.5069  0.6853
  183SLPC    C320976   1.700   0.213  10.468  0.0765 -0.3745 -0.5464
  183SLPC    HX20977   1.809   0.222  10.488  0.3638 -2.9742 -0.6873
  183SLPC    HY20978   1.651   0.300  10.517  0.1452 -0.0353 -1.0806
  183SLPC   O3120979   1.685   0.207  10.321  0.0807 -0.1899 -0.1699
  183SLPC   C3120980   1.583   0.270  10.271  0.0113  0.8967 -0.3701
  183SLPC   O3220981   1.507   0.346  10.333  0.2055  0.2435 -0.2707
  183SLPC   C3220982   1.589   0.232  10.121 -0.0840 -0.3680 -0.1360
  183SLPC   H2X20983   1.525   0.141  10.119  2.0718 -1.9621  1.3822
  183SLPC   H2Y20984   1.689   0.206  10.079  0.7069  1.0416  0.8363
  183SLPC   C2320985   1.813  -0.227  10.258  0.6874 -0.3446 -0.1264
  183SLPC   H3R20986   1.836  -0.333  10.236 -0.7719 -0.9360  1.1239
  183SLPC   H3S20987   1.894  -0.181  10.319 -0.0526  1.6417 -0.6054
  183SLPC   C2420988   1.773  -0.168  10.123 -0.7162  0.2373  0.7045
  183SLPC   H4R20989   1.745  -0.061  10.137 -1.6159  0.1532 -0.4342
  183SLPC   H4S20990   1.689  -0.220  10.074  0.8839 -1.1574 -0.5952
  183SLPC   C2520991   1.893  -0.181  10.025  0.4056 -0.1949  0.6735
  183SLPC   H5R20992   1.890  -0.283   9.981 -1.2121  0.4244 -0.7220
  183SLPC   H5S20993   1.992  -0.169  10.074  1.3613  1.4709 -1.5958
  183SLPC   C2620994   1.886  -0.089   9.896 -0.5803 -0.4099  0.8766
  183SLPC   H6R20995   1.969  -0.105   9.824 -3.8093  0.1717 -3.2564
  183SLPC   H6S20996   1.881   0.014   9.937  0.3101 -0.8119  2.0058
  183SLPC   C2720997   1.771  -0.106   9.797  1.2191 -0.1853 -0.3027
  183SLPC   H7R20998   1.669  -0.106   9.841 -0.0052  3.8765 -2.8538
  183SLPC   H7S20999   1.794  -0.204   9.749  2.5877  0.1448 -0.3243
  183SLPC   C2821000   1.788  -0.018   9.672 -0.3222 -0.0012  0.7488
  183SLPC   H8R21001   1.895  -0.015   9.644 -0.3236 -0.6125  0.6691
  183SLPC   H8S21002   1.771   0.080   9.721  2.1364  0.9266 -0.1856
  183SLPC   C2921003   1.693  -0.042   9.557  0.0896 -0.4322 -0.2502
  183SLPC   H9R21004   1.661  -0.147   9.543  0.6783 -0.6262 -0.1572
  183SLPC  C21021005   1.660   0.053   9.468  0.8015  0.1006  0.4001
  183SLPC  H10R21006   1.593   0.017   9.388  0.5188  1.1590  0.1524
  183SLPC  C21121007   1.694   0.204   9.464 -0.4081 -0.6452 -0.3062
  183SLPC  H11R21008   1.778   0.227   9.396  0.7916 -0.1887  1.2878
  183SLPC  H11S21009   1.733   0.242   9.561 -1.9626  2.4641 -0.8620
  183SLPC  C21221010   1.571   0.292   9.428 -0.0318 -0.2068  0.3719
  183SLPC  H12R21011   1.518   0.326   9.517  0.8594  0.9602  0.4656
  183SLPC  C21321012   1.543   0.338   9.304  0.6152  0.7140  0.2073
  183SLPC  H13R21013   1.463   0.414   9.299  0.5253  0.6715  0.9159
  183SLPC  C21421014   1.623   0.307   9.181  0.1707  0.1119  0.5335
  183SLPC  H14R21015   1.726   0.279   9.211  0.4049  1.8666  1.4223
  183SLPC  H14S21016   1.634   0.393   9.112 -0.8542 -0.9702 -1.0116
  183SLPC  C21521017   1.563   0.188   9.103  0.5188  0.4304 -0.6713
  183SLPC  H15R21018   1.457   0.220   9.094  0.1543 -1.0345 -1.6852
  183SLPC  H15S21019   1.581   0.096   9.163  1.6454  0.3733 -1.0798
  183SLPC  C21621020   1.603   0.184   8.951 -0.2431  0.1961  0.4097
  183SLPC  H16R21021   1.710   0.171   8.923 -0.5384 -0.6574 -0.3605
  183SLPC  H16S21022   1.579   0.285   8.912 -1.2859 -0.3168 -0.3188
  183SLPC  C21721023   1.522   0.086   8.867 -0.4204  0.1549 -0.7655
  183SLPC  H17R21024   1.413   0.103   8.872 -0.2918  0.7069  0.4704
  183SLPC  H17S21025   1.531  -0.007   8.928  2.3301  1.1073  0.4001
  183SLPC  C21821026   1.569   0.075   8.727  0.3780 -0.0279 -0.6198
  183SLPC  H18R21027   1.679   0.079   8.712 -0.0716  1.4527 -4.2713
  183SLPC  H18S21028   1.522   0.154   8.663  1.5613  1.9468  0.8812
  183SLPC  H18T21029   1.533  -0.024   8.692  0.5400  0.5202 -2.4319
  183SLPC   C3321030   1.529   0.341  10.023 -0.2212  0.5011 -1.3717
  183SLPC   H3X21031   1.426   0.370  10.052  0.8149  0.0398  3.2589
  183SLPC   H3Y21032   1.523   0.291   9.924 -0.0970 -3.0664  0.3672
  183SLPC   C3421033   1.600   0.476  10.009  0.6697  0.1329 -0.3425
  183SLPC   H4X21034   1.700   0.447   9.970  2.1217  1.3685  2.3725
  183SLPC   H4Y21035   1.624   0.524  10.106 -0.5057 -2.8022  1.4715
  183SLPC   C3521036   1.534   0.576   9.902  0.5224  0.6081  0.5315
  183SLPC   H5X21037   1.438   0.616   9.940  0.0744  0.7627 -0.7128
  183SLPC   H5Y21038   1.507   0.511   9.815 -2.1901 -0.4642  2.1252
  183SLPC   C3621039   1.634   0.676   9.860 -0.8472  0.1762 -0.0711
  183SLPC   H6X21040   1.680   0.707   9.956  0.4093  1.9152 -1.1918
  183SLPC   H6Y21041   1.577   0.765   9.824 -0.4109  0.2317 -0.6419
  183SLPC   C3721042   1.743   0.641   9.759  0.2551  0.2287 -0.1296
  183SLPC   H7X21043   1.800   0.555   9.799 -0.5983 -0.5878 -0.6434
  183SLPC   H7Y21044   1.815   0.725   9.771 -0.4399  0.7462  0.4528
  183SLPC   C3821045   1.706   0.596   9.612 -0.0950  0.4615 -0.2928
  183SLPC   H8X21046   1.631   0.665   9.567  1.3368  1.2598 -1.4985
  183SLPC   H8Y21047   1.675   0.489   9.623 -0.3102  0.6226  0.7161
  183SLPC   C3921048   1.835   0.615   9.535  0.4426  0.1820 -0.6660
  183SLPC   H9X21049   1.919   0.561   9.585  0.7751  0.9289 -0.4062
  183SLPC   H9Y21050   1.854   0.724   9.528  2.0815 -0.0938 -0.8280
  183SLPC  C31021051   1.817   0.569   9.388  0.1836  0.3221 -0.4759
  183SLPC  H10X21052   1.739   0.636   9.346  0.8259  2.3340  1.4307
  183SLPC  H10Y21053   1.794   0.460   9.377  2.3900 -0.3141  1.0267
  183SLPC  C31121054   1.942   0.590   9.306 -0.5770 -0.7188  0.0474
  183SLPC  H11X21055   2.027   0.548   9.364 -0.9673 -2.5310 -0.6758
  183SLPC  H11Y21056   1.975   0.696   9.294 -2.4720 -0.1030  0.2175
  183SLPC  C31221057   1.950   0.518   9.169 -0.5920 -0.3279 -0.3025
  183SLPC  H12X21058   1.896   0.421   9.177 -1.5939  0.2374 -0.0641
  183SLPC  H12Y21059   2.056   0.497   9.143 -1.0974 -1.7009 -1.2751
  183SLPC  C31321060   1.886   0.596   9.049 -0.1328 -0.1723 -0.3901
  183SLPC  H13X21061   1.955   0.676   9.014 -2.8318  1.2216 -2.6876
  183SLPC  H13Y21062   1.788   0.640   9.075  0.1985  0.9266 -0.9771
  183SLPC  C31421063   1.864   0.514   8.919  0.6807 -0.1700 -0.1001
  183SLPC  H14X21064   1.812   0.584   8.850 -0.0576  0.4011  1.0300
  183SLPC  H14Y21065   1.791   0.432   8.936  2.4429 -1.6887  0.3887
  183SLPC  C31521066   1.991   0.452   8.863 -0.3175  0.6575  0.7835
  183SLPC  H15X21067   2.055   0.418   8.947  0.2518 -1.5848 -0.5237
  183SLPC  H15Y21068   2.043   0.539   8.818  0.3531  0.1955  0.6640
  183SLPC  C31621069   1.977   0.334   8.766 -1.0451  0.0156  0.7286
  183SLPC  H16X21070   1.930   0.379   8.676 -2.0882 -0.0813  1.2099
  183SLPC  H16Y21071   1.906   0.259   8.808 -0.0094 -1.2073  0.3278
  183SLPC  C31721072   2.115   0.271   8.729 -0.1071  0.1127 -0.4778
  183SLPC  H17X21073   2.092   0.175   8.678  0.3591 -1.1726  1.6460
  183SLPC  H17Y21074   2.165   0.249   8.826 -0.7127 -1.2895 -0.4740
  183SLPC  C31821075   2.202   0.359   8.639 -0.4267 -0.0110  0.6763
  183SLPC  H18X21076   2.180   0.467   8.652  0.0500  0.0868  0.6687
  183SLPC  H18Y21077   2.188   0.330   8.532 -1.2928 -0.9318  1.0253
  183SLPC  H18Z21078   2.303   0.353   8.684 -0.2408  1.8272  0.5296
  184SLPC     N21079   3.439   5.396  10.923  0.7203 -0.1317 -0.0507
  184SLPC   C1321080   3.509   5.282  10.987 -0.3224  0.2010  0.1382
  184SLPC  H13A21081   3.612   5.301  10.960  0.0602  0.3407  1.6728
  184SLPC  H13B21082   3.515   5.279  11.094  0.0226  0.2379  0.1208
  184SLPC  H13C21083   3.490   5.190  10.933  1.3296  0.1081 -0.3132
  184SLPC   C1421084   3.474   5.523  10.989 -0.4517  0.4703  0.5752
  184SLPC  H14A21085   3.575   5.555  10.967 -1.3014  2.8095 -0.0914
  184SLPC  H14B21086   3.407   5.600  10.955  1.3251  1.7957 -0.0205
  184SLPC  H14C21087   3.458   5.506  11.094  1.0531 -1.7538  0.4813
  184SLPC   C1521088   3.291   5.369  10.948 -0.0898  0.0635  0.2356
  184SLPC  H15A21089   3.226   5.437  10.895  1.4694  3.5894  2.6712
  184SLPC  H15B21090   3.251   5.272  10.923 -2.0963  0.0255  3.4166
  184SLPC  H15C21091   3.270   5.379  11.053  0.9494  1.2908  0.3386
  184SLPC   C1221092   3.448   5.405  10.773  0.0817 -0.5885  0.4481
  184SLPC  H12A21093   3.537   5.459  10.744 -2.4893  3.3794 -0.4481
  184SLPC  H12B21094   3.357   5.449  10.735  1.8054  0.6910 -2.3818
  184SLPC   C1121095   3.467   5.268  10.702  0.3293 -0.0945 -0.2309
  184SLPC  H11A21096   3.465   5.281  10.591  1.2470 -2.1196 -0.5025
  184SLPC  H11B21097   3.375   5.211  10.727  0.9238 -0.9850 -0.0647
  184SLPC     P21098   3.730   5.231  10.681  0.4522  0.2290 -0.4609
  184SLPC   O1321099   3.765   5.376  10.692 -0.1398 -0.0935  0.0332
  184SLPC   O1421100   3.830   5.137  10.750 -0.3351 -0.2737  0.2174
  184SLPC   O1221101   3.589   5.201  10.741  0.3246  0.5866  0.3478
  184SLPC   O1121102   3.716   5.202  10.527 -0.8118 -0.0355  0.6839
  184SLPC    C121103   3.732   5.302  10.422  0.0514 -0.3487  0.1537
  184SLPC    HA21104   3.640   5.364  10.436 -0.6890 -1.2068 -0.8782
  184SLPC    HB21105   3.820   5.369  10.437 -0.2755  0.1783 -0.2638
  184SLPC    C221106   3.732   5.238  10.280  0.2781  0.3411 -0.9058
  184SLPC    HS21107   3.648   5.165  10.276  0.9031 -0.4411  0.0875
  184SLPC   O2121108   3.863   5.177  10.247  0.7701 -0.3481 -0.2835
  184SLPC   C2121109   3.869   5.051  10.213  0.3171  0.3657 -0.5128
  184SLPC   O2221110   3.776   4.974  10.218  0.1395 -0.7787  0.3984
  184SLPC   C2221111   4.015   5.010  10.186 -0.0351  0.3452 -0.0998
  184SLPC   H2R21112   4.085   5.096  10.196  2.5378 -1.8287  1.1887
  184SLPC   H2S21113   4.047   4.924  10.248  1.5208 -1.0255 -2.7292
  184SLPC    C321114   3.694   5.344  10.164 -0.1949 -0.3649  0.3715
  184SLPC    HX21115   3.773   5.422  10.164 -0.5838  0.0324  0.2518
  184SLPC    HY21116   3.599   5.400  10.177  0.5109  0.6892  1.0438
  184SLPC   O3121117   3.692   5.278  10.035 -0.1759 -0.2699 -0.3739
  184SLPC   C3121118   3.576   5.221  10.006 -0.0132  0.3625 -0.2383
  184SLPC   O3221119   3.472   5.235  10.073  0.0323  0.2553  1.5775
  184SLPC   C3221120   3.576   5.144   9.878 -0.2543 -0.8274 -0.0407
  184SLPC   H2X21121   3.628   5.195   9.794  1.0891 -2.7833 -0.4385
  184SLPC   H2Y21122   3.473   5.121   9.846 -0.0361 -1.4583 -0.2988
  184SLPC   C2321123   4.042   4.961  10.042  0.1913  0.5144 -0.0179
  184SLPC   H3R21124   3.976   4.877  10.010  0.2304  1.5577 -2.9298
  184SLPC   H3S21125   4.143   4.914  10.050 -0.4917 -0.9600  0.2283
  184SLPC   C2421126   4.063   5.075   9.938  0.2221 -0.1832 -0.0964
  184SLPC   H4R21127   4.130   5.158   9.970 -0.0940 -0.5489  1.5475
  184SLPC   H4S21128   3.965   5.126   9.931  0.2008 -0.1002  0.7700
  184SLPC   C2521129   4.118   5.025   9.802  0.0294  0.1965  0.4848
  184SLPC   H5R21130   4.043   4.949   9.772  0.9449 -1.0292  1.2313
  184SLPC   H5S21131   4.215   4.980   9.832  0.7133  0.7106 -0.9379
  184SLPC   C2621132   4.114   5.126   9.682 -0.5260  0.5871  0.3858
  184SLPC   H6R21133   4.168   5.219   9.710  0.1686  0.6959 -1.2374
  184SLPC   H6S21134   4.012   5.165   9.660 -0.5362  0.8985  0.9617
  184SLPC   C2721135   4.187   5.075   9.564 -0.1607 -0.0728 -0.0481
  184SLPC   H7R21136   4.279   5.021   9.596 -0.2968 -0.0833  0.3165
  184SLPC   H7S21137   4.231   5.166   9.518 -1.3513  0.5680  0.0831
  184SLPC   C2821138   4.103   4.988   9.466 -0.0098  1.0333 -0.5010
  184SLPC   H8R21139   4.014   5.048   9.435 -1.1044 -1.6028 -2.6780
  184SLPC   H8S21140   4.061   4.903   9.523  1.2604  0.9737  0.3585
  184SLPC   C2921141   4.180   4.944   9.343 -0.2942  0.4719 -0.4749
  184SLPC   H9R21142   4.234   4.850   9.361  2.1141  2.2202  1.7696
  184SLPC  C21021143   4.183   5.005   9.228 -1.1260  0.6952 -0.1607
  184SLPC  H10R21144   4.245   4.951   9.156 -1.6095  2.2406 -1.7575
  184SLPC  C21121145   4.111   5.128   9.181 -0.1106  0.1664 -0.1607
  184SLPC  H11R21146   4.179   5.216   9.188  0.1455  0.0066 -0.6309
  184SLPC  H11S21147   4.029   5.159   9.249  0.9309 -0.3847  1.3887
  184SLPC  C21221148   4.075   5.111   9.035 -0.0232  0.3515 -0.1398
  184SLPC  H12R21149   3.972   5.076   9.019 -1.0278  2.3651  1.6582
  184SLPC  C21321150   4.148   5.152   8.935 -0.7972  0.7166 -0.2934
  184SLPC  H13R21151   4.113   5.125   8.835  0.5759  1.1659 -0.9147
  184SLPC  C21421152   4.286   5.216   8.947 -0.2091 -0.5626 -0.1915
  184SLPC  H14R21153   4.354   5.142   8.993 -1.3236 -1.2207  0.4089
  184SLPC  H14S21154   4.291   5.309   9.008  3.4915 -0.6146 -0.2542
  184SLPC  C21521155   4.375   5.255   8.819 -0.0570  0.3548 -0.3448
  184SLPC  H15R21156   4.405   5.163   8.764 -0.1303  0.1392 -0.0223
  184SLPC  H15S21157   4.460   5.319   8.852 -1.5163  1.0836  2.1249
  184SLPC  C21621158   4.295   5.335   8.717  0.5419 -0.2285  0.6499
  184SLPC  H16R21159   4.219   5.397   8.769  1.4647  1.0648  0.4896
  184SLPC  H16S21160   4.222   5.267   8.670 -0.1393 -0.6362  2.2714
  184SLPC  C21721161   4.367   5.400   8.604 -0.4021 -0.1988 -0.1871
  184SLPC  H17R21162   4.418   5.324   8.540  0.2915 -0.4584  0.6638
  184SLPC  H17S21163   4.450   5.467   8.635 -1.3317  0.4194  0.9914
  184SLPC  C21821164   4.276   5.477   8.511 -0.4528  0.4861 -0.2726
  184SLPC  H18R21165   4.330   5.486   8.414 -1.9627  0.1045 -1.1588
  184SLPC  H18S21166   4.251   5.577   8.553 -1.4722 -0.7618  2.1683
  184SLPC  H18T21167   4.180   5.426   8.493 -0.0839 -0.5402  0.6491
  184SLPC   C3321168   3.639   4.999   9.900  0.4054 -0.4327 -0.5773
  184SLPC   H3X21169   3.608   4.950   9.994  0.7214  1.0328  0.3190
  184SLPC   H3Y21170   3.749   5.012   9.907  0.3059 -0.7033  1.7073
  184SLPC   C3421171   3.615   4.900   9.781  0.1623  0.1027  0.3149
  184SLPC   H4X21172   3.505   4.886   9.776  0.2190  0.6574 -3.2011
  184SLPC   H4Y21173   3.659   4.806   9.822 -0.0936  0.1909  0.7978
  184SLPC   C3521174   3.694   4.926   9.654 -1.1893 -0.1535  0.2315
  184SLPC   H5X21175   3.804   4.928   9.670 -0.8607  0.2056 -1.8818
  184SLPC   H5Y21176   3.673   5.028   9.618 -1.7408 -0.6811 -0.9587
  184SLPC   C3621177   3.686   4.817   9.540  0.4586 -0.8103  0.4172
  184SLPC   H6X21178   3.577   4.803   9.522  0.5553  0.8514 -1.6743
  184SLPC   H6Y21179   3.725   4.725   9.588 -0.5974 -0.5881  1.7272
  184SLPC   C3721180   3.760   4.848   9.412  0.3316 -0.4971 -0.9039
  184SLPC   H7X21181   3.867   4.845   9.440  0.1759 -0.4445 -0.2947
  184SLPC   H7Y21182   3.736   4.949   9.371  0.7226 -0.5253 -1.2045
  184SLPC   C3821183   3.747   4.744   9.306  0.2923  0.8816  0.6878
  184SLPC   H8X21184   3.653   4.748   9.247  0.2312 -0.1575  0.7136
  184SLPC   H8Y21185   3.764   4.643   9.348 -3.4888 -0.6706 -1.3351
  184SLPC   C3921186   3.856   4.759   9.194 -0.4365  0.3546 -0.1268
  184SLPC   H9X21187   3.949   4.765   9.255  0.3232  1.5587 -1.3811
  184SLPC   H9Y21188   3.850   4.844   9.123  1.4394 -2.0929 -3.3496
  184SLPC  C31021189   3.871   4.643   9.096 -0.0740  0.2648  0.0624
  184SLPC  H10X21190   3.778   4.634   9.035  0.7104 -1.8076 -0.8997
  184SLPC  H10Y21191   3.895   4.554   9.158 -2.1741  2.1741  3.7397
  184SLPC  C31121192   3.989   4.658   8.992  0.2153 -0.0018  0.0996
  184SLPC  H11X21193   4.074   4.683   9.059 -0.3163 -1.0426  1.1698
  184SLPC  H11Y21194   3.969   4.748   8.930  0.1280  0.0612  0.2184
  184SLPC  C31221195   4.014   4.529   8.917  0.2217 -0.4063  0.4197
  184SLPC  H12X21196   4.025   4.448   8.993  2.7555 -0.8069 -0.3259
  184SLPC  H12Y21197   4.107   4.538   8.858 -0.5754 -1.0806 -0.9868
  184SLPC  C31321198   3.899   4.494   8.818 -1.2841 -0.2440 -0.3413
  184SLPC  H13X21199   3.803   4.477   8.870 -0.7697 -0.4595  0.5487
  184SLPC  H13Y21200   3.916   4.395   8.770  1.0352 -1.5331  2.9316
  184SLPC  C31421201   3.861   4.610   8.724  0.0538 -0.2882  0.4274
  184SLPC  H14X21202   3.947   4.636   8.659 -1.9860 -0.1687 -2.3109
  184SLPC  H14Y21203   3.841   4.701   8.783  0.7129 -1.3617  2.3511
  184SLPC  C31521204   3.750   4.574   8.630  0.1772  0.3152 -0.3222
  184SLPC  H15X21205   3.663   4.541   8.690 -0.6752  2.4598 -0.3485
  184SLPC  H15Y21206   3.790   4.486   8.576  0.8115 -0.0608  0.7515
  184SLPC  C31621207   3.720   4.688   8.534 -0.2019 -0.4446  0.8435
  184SLPC  H16X21208   3.816   4.711   8.483  0.7161 -1.5176  2.0624
  184SLPC  H16Y21209   3.689   4.782   8.585  1.0916  0.6634 -0.3541
  184SLPC  C31721210   3.616   4.644   8.431 -0.5018 -0.1607 -0.1874
  184SLPC  H17X21211   3.524   4.632   8.492 -1.5497 -0.2386 -1.7620
  184SLPC  H17Y21212   3.644   4.543   8.394  0.7371  1.0077 -2.5354
  184SLPC  C31821213   3.597   4.753   8.323 -0.0755 -0.5559 -0.5598
  184SLPC  H18X21214   3.696   4.780   8.279  0.9072 -0.2367  1.7619
  184SLPC  H18Y21215   3.568   4.847   8.374  0.5583 -0.5335 -0.2250
  184SLPC  H18Z21216   3.527   4.718   8.245  1.1861  0.5762 -2.2327
  185SLPC     N21217   1.627   0.669   6.342  0.0938 -0.3094  0.6504
  185SLPC   C1321218   1.602   0.734   6.475 -0.1832 -0.0919  0.3399
  185SLPC  H13A21219   1.635   0.836   6.472 -0.6739  0.0297 -1.0653
  185SLPC  H13B21220   1.501   0.723   6.513 -1.0465  1.4816 -1.4267
  185SLPC  H13C21221   1.675   0.693   6.544  1.6150  0.1539 -1.3797
  185SLPC   C1421222   1.544   0.730   6.231  0.1296 -0.3646  0.0668
  185SLPC  H14A21223   1.561   0.833   6.205 -0.7973 -0.3250 -0.4350
  185SLPC  H14B21224   1.558   0.670   6.142 -1.9558  0.7684 -1.0622
  185SLPC  H14C21225   1.437   0.721   6.242  0.2241 -0.8631  0.6515
  185SLPC   C1521226   1.601   0.524   6.360 -0.4096  0.2731 -0.9151
  185SLPC  H15A21227   1.627   0.470   6.271  0.0966 -1.7808  0.4565
  185SLPC  H15B21228   1.655   0.480   6.443  0.2985  2.4912 -0.1330
  185SLPC  H15C21229   1.498   0.503   6.387 -0.0031 -0.2631  0.2613
  185SLPC   C1221230   1.771   0.702   6.311  0.3812 -0.4058 -0.1749
  185SLPC  H12A21231   1.793   0.807   6.312  2.2222 -0.7826  0.2951
  185SLPC  H12B21232   1.794   0.669   6.210  0.6847 -0.4309 -0.0961
  185SLPC   C1121233   1.879   0.636   6.408  0.3908  0.4413 -0.3721
  185SLPC  H11A21234   1.978   0.631   6.356 -0.0165  0.9043 -1.2089
  185SLPC  H11B21235   1.856   0.528   6.425  1.3850  0.2378 -0.2335
  185SLPC     P21236   1.983   0.824   6.559  0.2920  0.4586 -0.2563
  185SLPC   O1321237   2.124   0.778   6.535 -0.9293  0.8931  0.2342
  185SLPC   O1421238   1.945   0.937   6.475  0.3786  0.1233 -0.0499
  185SLPC   O1221239   1.879   0.706   6.528  0.3345 -1.2172  0.7903
  185SLPC   O1121240   1.969   0.863   6.714  0.4877  0.3614 -0.3234
  185SLPC    C121241   1.886   0.960   6.769 -0.1374 -0.6084 -0.3782
  185SLPC    HA21242   1.909   1.065   6.740  1.5321 -0.1998  2.2421
  185SLPC    HB21243   1.780   0.936   6.751 -0.5395  0.7046  0.1521
  185SLPC    C221244   1.905   0.966   6.929 -0.2723 -0.8978 -0.4617
  185SLPC    HS21245   2.013   0.979   6.953 -0.1876 -1.3881 -0.5718
  185SLPC   O2121246   1.845   0.858   6.994  0.3082 -0.1060 -0.1351
  185SLPC   C2121247   1.910   0.745   6.999  0.0080 -0.0834  0.2887
  185SLPC   O2221248   2.025   0.730   6.960  0.2927 -0.1254  0.0765
  185SLPC   C2221249   1.815   0.629   7.054 -0.9336  0.2784 -0.3240
  185SLPC   H2R21250   1.713   0.669   7.073 -0.9916  0.0594 -0.1666
  185SLPC   H2S21251   1.826   0.550   6.977  0.4995 -0.2228  0.3738
  185SLPC    C321252   1.826   1.092   6.997  0.4255 -0.5467  0.0154
  185SLPC    HX21253   1.717   1.086   6.974  0.9138  1.4595 -3.2514
  185SLPC    HY21254   1.850   1.187   6.944  2.0504 -1.8487 -1.6557
  185SLPC   O3121255   1.836   1.101   7.139  0.2055  0.0553 -0.3638
  185SLPC   C3121256   1.954   1.134   7.186 -0.4406 -0.3541 -0.4587
  185SLPC   O3221257   2.046   1.175   7.119 -0.4772  0.2909 -0.3259
  185SLPC   C3221258   1.966   1.101   7.341  0.1975 -0.8122  0.3168
  185SLPC   H2X21259   1.909   1.007   7.356  0.6158 -1.0587  0.3612
  185SLPC   H2Y21260   1.924   1.192   7.388 -1.8729  0.0827 -3.1243
  185SLPC   C2321261   1.879   0.573   7.183 -0.4317  0.1460 -0.1298
  185SLPC   H3R21262   1.983   0.545   7.157  0.3759  1.2928  1.7263
  185SLPC   H3S21263   1.822   0.483   7.213  0.9433 -1.0857 -1.1821
  185SLPC   C2421264   1.872   0.664   7.305  0.6177  0.0583 -0.1520
  185SLPC   H4R21265   1.788   0.737   7.301 -1.0808 -1.9150 -1.7027
  185SLPC   H4S21266   1.964   0.725   7.315  0.0240  0.9003  0.1879
  185SLPC   C2521267   1.857   0.582   7.428 -0.1681  0.1481 -0.7723
  185SLPC   H5R21268   1.930   0.499   7.442  0.6846  1.0107 -0.0502
  185SLPC   H5S21269   1.752   0.545   7.426 -0.0036 -0.2700 -2.0069
  185SLPC   C2621270   1.878   0.662   7.555  0.4586  0.4560 -0.6077
  185SLPC   H6R21271   1.793   0.733   7.564  0.4094  0.1851  1.3693
  185SLPC   H6S21272   1.969   0.723   7.543 -0.0673  0.9739 -1.9985
  185SLPC   C2721273   1.887   0.575   7.684  0.0543  0.0089  0.6755
  185SLPC   H7R21274   1.970   0.504   7.665  0.9952  0.5538  2.5821
  185SLPC   H7S21275   1.788   0.527   7.694 -0.0986  0.0416 -0.5526
  185SLPC   C2821276   1.905   0.658   7.806 -0.7184  0.0351  0.3126
  185SLPC   H8R21277   1.819   0.728   7.816 -1.6577 -1.2967  1.7017
  185SLPC   H8S21278   1.995   0.722   7.793  0.1534 -1.3626 -0.6232
  185SLPC   C2921279   1.913   0.580   7.930  0.1577  0.4187 -0.2408
  185SLPC   H9R21280   1.865   0.481   7.922 -0.6138  0.7038  0.7863
  185SLPC  C21021281   1.962   0.630   8.045  0.3607  1.0508  0.1029
  185SLPC  H10R21282   1.972   0.573   8.139 -1.1063  1.4983  0.5619
  185SLPC  C21121283   2.004   0.773   8.066  0.2638 -0.7312  0.1973
  185SLPC  H11R21284   1.942   0.846   8.010 -0.2892  0.7489  2.6715
  185SLPC  H11S21285   2.107   0.766   8.026 -0.4804 -2.3323 -1.5682
  185SLPC  C21221286   2.000   0.800   8.208  0.2621  0.1093 -0.9235
  185SLPC  H12R21287   1.907   0.782   8.264  0.4963 -0.0079 -0.5638
  185SLPC  C21321288   2.098   0.849   8.283  0.2816  0.5534 -0.3265
  185SLPC  H13R21289   2.071   0.865   8.388  0.0088 -2.9595  0.1918
  185SLPC  C21421290   2.236   0.896   8.253 -0.2045 -0.1141  0.4981
  185SLPC  H14R21291   2.268   0.889   8.147  0.8684 -1.4532  0.8869
  185SLPC  H14S21292   2.302   0.827   8.310  0.5392  0.4895  0.3739
  185SLPC  C21521293   2.262   1.045   8.302 -0.5218 -0.7365 -0.2623
  185SLPC  H15R21294   2.193   1.110   8.243 -0.5093 -2.5943 -2.3918
  185SLPC  H15S21295   2.365   1.077   8.272 -0.8649 -0.1578 -0.8541
  185SLPC  C21621296   2.241   1.064   8.460 -0.2836 -0.0194  0.3942
  185SLPC  H16R21297   2.132   1.054   8.482  0.0480 -1.4650  1.4151
  185SLPC  H16S21298   2.278   1.167   8.482  0.8548 -0.8972  2.6645
  185SLPC  C21721299   2.334   0.974   8.546 -0.8297  0.1167 -0.3023
  185SLPC  H17R21300   2.285   0.875   8.553  0.4397 -0.5268 -0.3140
  185SLPC  H17S21301   2.335   1.023   8.646  0.1913 -1.0564  0.2769
  185SLPC  C21821302   2.487   0.975   8.507  0.5497  0.2688 -0.5303
  185SLPC  H18R21303   2.523   1.079   8.499  0.2320  0.2712 -1.9254
  185SLPC  H18S21304   2.496   0.920   8.411 -2.5654 -0.6721 -0.3703
  185SLPC  H18T21305   2.547   0.923   8.585  0.0685  0.1661 -0.2221
  185SLPC   C3321306   2.111   1.085   7.381 -0.4618  0.4931 -0.0170
  185SLPC   H3X21307   2.182   1.163   7.349 -0.1017  0.6254  1.0931
  185SLPC   H3Y21308   2.146   0.991   7.333 -3.3013 -0.8324  0.3998
  185SLPC   C3421309   2.142   1.059   7.530 -0.1511  0.4189 -0.3348
  185SLPC   H4X21310   2.253   1.050   7.540 -0.3596 -5.4068 -1.8325
  185SLPC   H4Y21311   2.100   0.958   7.545  0.6010  0.3264  1.3247
  185SLPC   C3521312   2.069   1.151   7.630 -0.2113  0.4925  0.7469
  185SLPC   H5X21313   1.959   1.148   7.614 -0.0609 -0.6593 -0.1665
  185SLPC   H5Y21314   2.105   1.256   7.636 -1.0086  0.8220 -0.0822
  185SLPC   C3621315   2.078   1.100   7.781 -0.4266 -0.2375  0.5540
  185SLPC   H6X21316   2.166   1.035   7.799 -0.0007  0.1754 -0.0029
  185SLPC   H6Y21317   2.000   1.022   7.787 -1.4505  0.6310 -0.9476
  185SLPC   C3721318   2.065   1.205   7.885 -0.4037 -0.4652 -0.3835
  185SLPC   H7X21319   1.991   1.285   7.861 -2.5251 -2.1301  0.4511
  185SLPC   H7Y21320   2.155   1.269   7.897  0.2026 -1.4250  0.1978
  185SLPC   C3821321   1.997   1.143   8.009 -0.0098  0.3161 -0.2682
  185SLPC   H8X21322   2.059   1.075   8.072 -0.3088 -1.1792 -1.5550
  185SLPC   H8Y21323   1.910   1.076   7.992 -0.4442  0.9635 -0.6309
  185SLPC   C3921324   1.954   1.255   8.112 -0.1005  0.3999  0.0337
  185SLPC   H9X21325   1.913   1.344   8.061  0.8200  0.1537 -1.1496
  185SLPC   H9Y21326   2.054   1.287   8.149  0.8612 -0.0656 -2.0731
  185SLPC  C31021327   1.859   1.218   8.222 -0.4474 -0.7736  0.0180
  185SLPC  H10X21328   1.903   1.130   8.273  0.0193 -1.0896 -0.9143
  185SLPC  H10Y21329   1.762   1.202   8.171 -0.0966 -0.0219 -0.8875
  185SLPC  C31121330   1.829   1.328   8.324  0.4628 -0.4542 -0.5105
  185SLPC  H11X21331   1.761   1.294   8.405 -1.0732 -3.1054 -2.8208
  185SLPC  H11Y21332   1.790   1.416   8.268 -0.4275 -0.7303 -0.3300
  185SLPC  C31221333   1.955   1.371   8.407 -0.5837  0.1886  0.1485
  185SLPC  H12X21334   2.044   1.388   8.343 -0.9233 -0.1093 -0.4051
  185SLPC  H12Y21335   1.970   1.295   8.487 -3.1842  1.9157  2.3981
  185SLPC  C31321336   1.924   1.507   8.482 -0.5989  0.1413 -0.3489
  185SLPC  H13X21337   2.003   1.528   8.556 -0.2075 -0.2080 -0.6689
  185SLPC  H13Y21338   1.830   1.503   8.541 -0.4648  2.6336  0.0946
  185SLPC  C31421339   1.928   1.627   8.385  0.6443 -0.7482  0.4918
  185SLPC  H14X21340   1.851   1.617   8.306  1.7456 -1.5804 -0.4873
  185SLPC  H14Y21341   2.024   1.635   8.332 -0.3990  0.4742 -1.2563
  185SLPC  C31521342   1.903   1.759   8.453 -0.6488 -0.3515 -0.3869
  185SLPC  H15X21343   1.982   1.782   8.527  0.5918  0.0186 -1.8111
  185SLPC  H15Y21344   1.811   1.751   8.515 -0.9109  0.8169 -0.6085
  185SLPC  C31621345   1.883   1.868   8.350 -0.4209  0.0668 -0.5111
  185SLPC  H16X21346   1.798   1.835   8.287 -2.6412  0.5853  2.1612
  185SLPC  H16Y21347   1.972   1.896   8.288 -0.4960  1.9056  0.1886
  185SLPC  C31721348   1.840   2.007   8.401  0.3669  0.4989  0.5432
  185SLPC  H17X21349   1.753   1.984   8.467 -2.5937  3.1756 -2.2535
  185SLPC  H17Y21350   1.798   2.070   8.319  0.9523  0.9007  0.5529
  185SLPC  C31821351   1.945   2.092   8.467  0.4783 -0.1738 -0.4749
  185SLPC  H18X21352   1.958   2.043   8.566 -1.2662  0.6876  0.2037
  185SLPC  H18Y21353   1.900   2.192   8.485 -0.8867 -1.2218  2.2846
  185SLPC  H18Z21354   2.038   2.092   8.407  1.5851  3.4520  1.1369
  186SLPC     N21355   2.750   3.582   6.221  0.2896  0.1763 -0.5724
  186SLPC   C1321356   2.776   3.563   6.079  0.3009  0.1998 -0.8496
  186SLPC  H13A21357   2.798   3.655   6.027 -0.3198  0.2362 -1.0460
  186SLPC  H13B21358   2.868   3.509   6.066  0.1534  0.2581 -2.1805
  186SLPC  H13C21359   2.694   3.506   6.038 -0.2258 -1.9519  2.8880
  186SLPC   C1421360   2.859   3.662   6.281  0.2468  0.0997  0.2892
  186SLPC  H14A21361   2.952   3.607   6.281  1.8709  2.7422  0.8847
  186SLPC  H14B21362   2.877   3.758   6.234 -2.8873  0.5722 -0.0350
  186SLPC  H14C21363   2.828   3.685   6.382 -0.2638 -2.0527  0.6393
  186SLPC   C1521364   2.749   3.445   6.285  0.6535 -0.1099 -0.0792
  186SLPC  H15A21365   2.844   3.393   6.283 -0.0199 -1.3441 -0.3533
  186SLPC  H15B21366   2.701   3.452   6.381 -1.7664 -0.0314 -1.2405
  186SLPC  H15C21367   2.686   3.378   6.228  0.7649 -0.8601  0.6838
  186SLPC   C1221368   2.611   3.646   6.232 -0.5295 -0.0099  0.3136
  186SLPC  H12A21369   2.540   3.572   6.198  0.8387 -1.0826 -0.2488
  186SLPC  H12B21370   2.608   3.743   6.185 -2.4903  0.0614  0.5566
  186SLPC   C1121371   2.561   3.662   6.375  0.0470 -0.1377  0.8738
  186SLPC  H11A21372   2.479   3.736   6.385 -0.7983 -0.2560 -4.2305
  186SLPC  H11B21373   2.640   3.698   6.445  1.1696  1.8832 -1.3404
  186SLPC     P21374   2.359   3.494   6.445 -0.2511  0.0539 -0.4168
  186SLPC   O1321375   2.274   3.616   6.457 -0.2964 -0.1648  0.0237
  186SLPC   O1421376   2.319   3.402   6.336  0.6814 -0.1867 -0.2024
  186SLPC   O1221377   2.519   3.540   6.418  0.1023  0.0332  0.1447
  186SLPC   O1121378   2.362   3.411   6.583  0.4885  0.3243 -0.0094
  186SLPC    C121379   2.317   3.477   6.707 -0.0253  0.4240  0.3150
  186SLPC    HA21380   2.220   3.526   6.685 -1.1150 -0.9999  1.8905
  186SLPC    HB21381   2.305   3.400   6.786  0.9726  0.6289  0.6779
  186SLPC    C221382   2.430   3.582   6.755  0.3698  0.2169 -0.6324
  186SLPC    HS21383   2.419   3.673   6.692  2.5723  2.1045  1.6079
  186SLPC   O2121384   2.562   3.526   6.739  0.3574 -0.2847 -0.7181
  186SLPC   C2121385   2.663   3.615   6.734  0.0667 -0.0454 -0.6203
  186SLPC   O2221386   2.655   3.733   6.767 -0.4619 -0.3528 -0.9906
  186SLPC   C2221387   2.783   3.540   6.680  0.5543 -0.0774  0.4294
  186SLPC   H2R21388   2.785   3.430   6.701  1.3525 -0.2835 -0.7169
  186SLPC   H2S21389   2.772   3.540   6.570  1.8513 -1.4732  0.2779
  186SLPC    C321390   2.400   3.620   6.898  0.3328 -0.3979 -0.9474
  186SLPC    HX21391   2.482   3.667   6.955 -0.2770 -0.0490 -0.3500
  186SLPC    HY21392   2.401   3.520   6.946 -1.5907  0.7567  1.6045
  186SLPC   O3121393   2.267   3.683   6.926  0.1586  0.3404 -0.0506
  186SLPC   C3121394   2.278   3.813   6.900  0.1677 -0.7721 -0.0667
  186SLPC   O3221395   2.379   3.877   6.886  0.8029 -0.1939  0.1903
  186SLPC   C3221396   2.134   3.863   6.885 -0.0213 -0.3649  0.2931
  186SLPC   H2X21397   2.060   3.789   6.923 -0.7070  1.2051  2.0904
  186SLPC   H2Y21398   2.110   3.868   6.777 -1.9002 -0.8904  0.6616
  186SLPC   C2321399   2.925   3.598   6.724  0.4023 -0.3267 -0.0907
  186SLPC   H3R21400   2.937   3.586   6.834 -1.8559 -0.7843  0.1320
  186SLPC   H3S21401   2.911   3.706   6.704 -0.7735 -0.7415 -1.5750
  186SLPC   C2421402   3.047   3.541   6.644  0.3782 -0.1581 -0.2484
  186SLPC   H4R21403   3.134   3.603   6.615  1.0778 -0.1002  1.9063
  186SLPC   H4S21404   2.999   3.530   6.544 -4.5754  1.6406  1.7805
  186SLPC   C2521405   3.073   3.394   6.681 -0.3555  0.0946 -0.1930
  186SLPC   H5R21406   2.975   3.342   6.688 -1.0886  1.3175 -1.1571
  186SLPC   H5S21407   3.115   3.401   6.784 -2.6000  2.2707  0.6392
  186SLPC   C2621408   3.180   3.331   6.590 -0.0702  0.1168  0.5703
  186SLPC   H6R21409   3.282   3.365   6.615  0.3660 -0.4453 -0.4385
  186SLPC   H6S21410   3.153   3.360   6.487 -0.9267 -0.4187  0.6349
  186SLPC   C2721411   3.199   3.179   6.572  0.0405  0.2376  0.7593
  186SLPC   H7R21412   3.264   3.168   6.482  0.2163  0.0299  0.9097
  186SLPC   H7S21413   3.102   3.128   6.552 -0.0796  0.8475 -0.2257
  186SLPC   C2821414   3.260   3.130   6.702  0.7217  0.1748  0.3873
  186SLPC   H8R21415   3.181   3.138   6.780  1.1831 -1.5498  1.0351
  186SLPC   H8S21416   3.356   3.180   6.728  1.5701 -1.4400  0.3663
  186SLPC   C2921417   3.304   2.989   6.683  0.3704 -0.2200 -0.8705
  186SLPC   H9R21418   3.391   2.982   6.616  1.1376  0.6991  0.0017
  186SLPC  C21021419   3.270   2.887   6.760 -0.3098  0.0881 -0.3606
  186SLPC  H10R21420   3.327   2.795   6.743  1.9886  1.6013 -1.0293
  186SLPC  C21121421   3.178   2.887   6.875 -0.0970 -0.5171 -0.3231
  186SLPC  H11R21422   3.185   2.982   6.933 -1.9443 -0.0314 -0.8608
  186SLPC  H11S21423   3.208   2.807   6.947 -0.4425  0.3706  0.8301
  186SLPC  C21221424   3.034   2.880   6.846  0.2640 -0.1619  0.0209
  186SLPC  H12R21425   2.998   2.927   6.753  0.8608 -0.8430 -0.5605
  186SLPC  C21321426   2.939   2.862   6.943  0.5420  0.1006 -0.3027
  186SLPC  H13R21427   2.837   2.839   6.908 -0.9942  1.5218  3.0331
  186SLPC  C21421428   2.974   2.835   7.084  0.4241  0.4624  0.4478
  186SLPC  H14R21429   2.967   2.934   7.135 -2.0528  1.8617 -2.4530
  186SLPC  H14S21430   3.071   2.782   7.095 -0.8672 -2.0995 -0.3497
  186SLPC  C21521431   2.866   2.734   7.135  0.4074  0.2202 -0.7856
  186SLPC  H15R21432   2.767   2.779   7.115 -0.8284 -1.7541  0.7202
  186SLPC  H15S21433   2.884   2.716   7.243 -0.7028 -0.6465 -0.7310
  186SLPC  C21621434   2.864   2.595   7.076 -0.1130 -0.8604  0.9946
  186SLPC  H16R21435   2.960   2.542   7.095  1.6212  1.8109 -0.0270
  186SLPC  H16S21436   2.852   2.594   6.966 -1.5259  1.8375  1.0709
  186SLPC  C21721437   2.758   2.505   7.125 -0.8879  0.3170 -0.0936
  186SLPC  H17R21438   2.655   2.544   7.117 -0.1420  2.1489 -0.8872
  186SLPC  H17S21439   2.776   2.485   7.233  0.7342 -1.1452 -0.5960
  186SLPC  C21821440   2.756   2.374   7.046  1.0093 -0.0557  0.0839
  186SLPC  H18R21441   2.730   2.301   7.127 -1.5303 -0.4645 -1.0503
  186SLPC  H18S21442   2.856   2.349   7.004  0.6759 -3.4902  1.1440
  186SLPC  H18T21443   2.678   2.378   6.967  1.0726  2.3958  0.1173
  186SLPC   C3321444   2.106   3.996   6.952 -0.5956 -1.2305  0.3888
  186SLPC   H3X21445   2.001   4.027   6.931 -0.4217 -0.0554  1.1585
  186SLPC   H3Y21446   2.161   4.082   6.907 -0.2972 -0.9992  1.1888
  186SLPC   C3421447   2.120   3.993   7.107 -0.3549  0.0705 -0.6805
  186SLPC   H4X21448   2.077   4.089   7.142  0.3161 -0.2216  1.0032
  186SLPC   H4Y21449   2.228   3.983   7.132 -0.3502  1.1530 -0.2689
  186SLPC   C3521450   2.056   3.875   7.179 -0.4870 -0.5241  0.2149
  186SLPC   H5X21451   2.092   3.776   7.142 -0.4744 -1.0965  1.7357
  186SLPC   H5Y21452   1.947   3.885   7.161 -0.6757  0.1839  1.7306
  186SLPC   C3621453   2.096   3.869   7.324  0.1204 -0.1854  0.0282
  186SLPC   H6X21454   2.047   3.956   7.373  0.7890  0.0504  0.2944
  186SLPC   H6Y21455   2.205   3.890   7.332  0.1432  0.4258 -1.6836
  186SLPC   C3721456   2.047   3.744   7.396  0.1316  0.4565  0.2382
  186SLPC   H7X21457   2.099   3.654   7.357  1.0504  0.6756  0.9372
  186SLPC   H7Y21458   1.938   3.737   7.377  0.1054  0.3768  0.4116
  186SLPC   C3821459   2.063   3.733   7.548 -0.7677  0.0947 -0.1941
  186SLPC   H8X21460   2.014   3.640   7.585 -0.2837  0.4315  1.3390
  186SLPC   H8Y21461   2.000   3.809   7.598  2.7266 -0.0700  4.9220
  186SLPC   C3921462   2.210   3.737   7.594 -0.4148 -0.4202  0.2339
  186SLPC   H9X21463   2.233   3.845   7.581 -1.3119 -0.3103 -0.4752
  186SLPC   H9Y21464   2.276   3.673   7.532  0.2425 -0.5025  1.0128
  186SLPC  C31021465   2.221   3.700   7.746  0.1529 -0.0651  0.3385
  186SLPC  H10X21466   2.216   3.591   7.767 -1.5624  0.0221  0.3954
  186SLPC  H10Y21467   2.125   3.745   7.779  0.5037  2.9467 -2.4727
  186SLPC  C31121468   2.332   3.777   7.815  0.1814 -0.2768 -0.4780
  186SLPC  H11X21469   2.306   3.885   7.827  0.9231 -0.2112  0.6211
  186SLPC  H11Y21470   2.423   3.770   7.752  1.0910  2.0859  0.5104
  186SLPC  C31221471   2.342   3.734   7.956 -0.1354 -0.5257 -0.0802
  186SLPC  H12X21472   2.354   3.623   7.963 -0.1018 -0.5151  0.0291
  186SLPC  H12Y21473   2.251   3.751   8.017  0.0303 -0.9051  0.2720
  186SLPC  C31321474   2.457   3.791   8.030  0.3911  0.0675 -0.4174
  186SLPC  H13X21475   2.446   3.901   8.031  4.1745  0.4881  0.8905
  186SLPC  H13Y21476   2.559   3.786   7.986  0.0556  1.9607 -1.4808
  186SLPC  C31421477   2.469   3.729   8.171  1.0614 -0.1233  0.2338
  186SLPC  H14X21478   2.498   3.623   8.159  1.5087 -0.1993  1.9070
  186SLPC  H14Y21479   2.366   3.731   8.212  0.5845 -0.1272 -0.9169
  186SLPC  C31521480   2.555   3.815   8.265  0.3728 -0.5283  0.5117
  186SLPC  H15X21481   2.506   3.915   8.262  0.7803 -0.3254  0.4662
  186SLPC  H15Y21482   2.663   3.827   8.242  0.0192 -0.1293 -0.9630
  186SLPC  C31621483   2.539   3.776   8.414  0.1674 -0.0022  0.6577
  186SLPC  H16X21484   2.560   3.667   8.430  1.1861  0.1076  0.1648
  186SLPC  H16Y21485   2.437   3.793   8.454  0.3727  1.7326  0.4716
  186SLPC  C31721486   2.626   3.870   8.486 -0.5553  1.0660 -0.4155
  186SLPC  H17X21487   2.601   3.976   8.463 -2.5332  0.4035 -1.3657
  186SLPC  H17Y21488   2.732   3.868   8.454 -0.4165 -2.5654  0.0203
  186SLPC  C31821489   2.606   3.850   8.631 -0.4274 -0.0730 -0.6126
  186SLPC  H18X21490   2.585   3.743   8.654  0.6326 -0.5469 -1.7990
  186SLPC  H18Y21491   2.515   3.904   8.663 -0.1092  1.7166 -2.6576
  186SLPC  H18Z21492   2.678   3.895   8.703  0.7440 -1.5142 -0.8434
  187SLPC     N21493   3.480   0.058   6.119 -0.0930  0.3607  0.0176
  187SLPC   C1321494   3.557   0.010   6.004 -0.6443  0.0047  0.0502
  187SLPC  H13A21495   3.524  -0.088   5.972  0.0102 -0.1876 -0.0535
  187SLPC  H13B21496   3.550   0.067   5.912  0.9566  1.1075  0.5816
  187SLPC  H13C21497   3.662  -0.007   6.023 -0.7835  0.0174  0.8491
  187SLPC   C1421498   3.356   0.123   6.062  0.5092  0.1036 -0.6587
  187SLPC  H14A21499   3.387   0.211   6.008  2.2913 -1.0724 -1.5982
  187SLPC  H14B21500   3.301   0.058   5.996 -1.0083 -0.0911  0.7671
  187SLPC  H14C21501   3.282   0.138   6.139 -1.0201 -3.6378 -1.2636
  187SLPC   C1521502   3.555   0.172   6.177 -0.1722 -0.0408 -0.5291
  187SLPC  H15A21503   3.638   0.132   6.233  0.6466  0.2989 -1.4812
  187SLPC  H15B21504   3.585   0.241   6.100  0.6378  0.2860  0.0800
  187SLPC  H15C21505   3.508   0.230   6.254  1.3576  0.2720  0.1745
  187SLPC   C1221506   3.459  -0.047   6.228  0.1868 -0.0347  0.2644
  187SLPC  H12A21507   3.553  -0.100   6.235 -0.3291 -1.0574 -0.4789
  187SLPC  H12B21508   3.387  -0.121   6.199 -1.7753  1.6146  0.7992
  187SLPC   C1121509   3.425   0.006   6.371  0.2524 -0.1245 -0.0098
  187SLPC  H11A21510   3.515   0.046   6.422 -1.2400  1.6773  1.2707
  187SLPC  H11B21511   3.384  -0.073   6.437  1.3048 -1.3377 -0.7771
  187SLPC     P21512   3.304   0.215   6.451  0.1767  0.4612 -0.4486
  187SLPC   O1321513   3.428   0.289   6.464 -0.0899 -0.4409  0.2421
  187SLPC   O1421514   3.187   0.296   6.406 -0.4501  0.1760 -0.3363
  187SLPC   O1221515   3.316   0.092   6.360  0.6894 -0.5931  0.0444
  187SLPC   O1121516   3.270   0.148   6.591 -0.2679 -0.1503  0.1571
  187SLPC    C121517   3.132   0.127   6.634 -0.2189 -0.4995 -0.0509
  187SLPC    HA21518   3.098   0.217   6.688  1.4957  0.1199  0.0131
  187SLPC    HB21519   3.061   0.101   6.552  0.3184 -1.9671 -0.0717
  187SLPC    C221520   3.137   0.014   6.737  0.2910 -0.0563  0.1612
  187SLPC    HS21521   3.032  -0.015   6.757 -0.0840  1.1592  0.0057
  187SLPC   O2121522   3.203   0.052   6.865  0.1637 -0.9049  0.4501
  187SLPC   C2121523   3.125   0.140   6.937  0.3691 -1.4965 -0.1043
  187SLPC   O2221524   3.017   0.178   6.903  0.1004  0.2180  0.2520
  187SLPC   C2221525   3.195   0.186   7.062  0.5380 -0.3838 -0.8654
  187SLPC   H2R21526   3.275   0.111   7.080  1.1087  0.3723 -0.2097
  187SLPC   H2S21527   3.229   0.289   7.035  0.6287 -0.4883 -1.1493
  187SLPC    C321528   3.215  -0.104   6.672  0.4265  0.0410  0.2610
  187SLPC    HX21529   3.320  -0.074   6.649  0.3937  0.3083  0.4590
  187SLPC    HY21530   3.167  -0.134   6.577 -0.5825  1.9892  0.1255
  187SLPC   O3121531   3.235  -0.216   6.766 -0.1207  0.4450  0.3627
  187SLPC   C3121532   3.149  -0.321   6.758 -0.0469 -0.4343 -0.1955
  187SLPC   O3221533   3.051  -0.319   6.691 -0.5549  0.3538 -0.3857
  187SLPC   C3221534   3.186  -0.445   6.838  0.0408  0.4854  0.1237
  187SLPC   H2X21535   3.153  -0.523   6.766  0.6682  0.8498 -0.5799
  187SLPC   H2Y21536   3.124  -0.443   6.930 -2.9478  4.7728 -1.7930
  187SLPC   C2321537   3.078   0.209   7.169  0.9226 -0.5115 -0.0203
  187SLPC   H3R21538   3.007   0.124   7.178  1.1291 -0.8030 -1.1352
  187SLPC   H3S21539   3.018   0.296   7.135  0.8597  0.6690  2.9354
  187SLPC   C2421540   3.131   0.250   7.307 -0.0094  0.0857 -0.5179
  187SLPC   H4R21541   3.189   0.344   7.291 -0.1662  0.2795  0.0592
  187SLPC   H4S21542   3.206   0.171   7.326  0.3236  0.7074  0.8442
  187SLPC   C2521543   3.019   0.255   7.408  0.4945 -0.3690 -0.0907
  187SLPC   H5R21544   2.965   0.159   7.396  0.8611 -0.4643 -1.0460
  187SLPC   H5S21545   2.953   0.343   7.388  0.6119 -0.8482 -2.7286
  187SLPC   C2621546   3.072   0.260   7.553  0.3144  0.2443  0.0280
  187SLPC   H6R21547   3.140   0.346   7.574  0.2485  0.2979  0.0204
  187SLPC   H6S21548   3.137   0.171   7.568  0.0719  0.2413  1.1795
  187SLPC   C2721549   2.964   0.228   7.660  0.1976  0.2778  0.5983
  187SLPC   H7R21550   2.952   0.118   7.664  1.7891  0.1042  0.8672
  187SLPC   H7S21551   2.870   0.268   7.615 -0.2251 -2.0900 -0.6854
  187SLPC   C2821552   2.989   0.305   7.797 -0.6845 -0.0125 -0.5780
  187SLPC   H8R21553   2.896   0.297   7.858 -1.0807  0.7050 -1.0884
  187SLPC   H8S21554   2.993   0.414   7.779 -1.3007  0.0108 -0.5758
  187SLPC   C2921555   3.114   0.264   7.865 -0.1301  0.2025  0.1403
  187SLPC   H9R21556   3.206   0.314   7.832  0.0659  1.6877  2.8317
  187SLPC  C21021557   3.128   0.185   7.977  0.1378 -0.2128 -0.7139
  187SLPC  H10R21558   3.232   0.167   8.006 -0.1759  0.9863  1.2545
  187SLPC  C21121559   3.018   0.116   8.048 -0.1792  0.5874 -0.7289
  187SLPC  H11R21560   2.916   0.153   8.024  0.1025 -0.0112 -2.9799
  187SLPC  H11S21561   3.033   0.131   8.157  0.5414 -1.5494 -0.5005
  187SLPC  C21221562   3.013  -0.030   8.012 -0.0032 -0.3676 -0.3115
  187SLPC  H12R21563   3.006  -0.056   7.906 -3.2739  1.2650 -0.5944
  187SLPC  C21321564   2.991  -0.131   8.097  0.1867 -0.3841  0.4980
  187SLPC  H13R21565   3.000  -0.230   8.050 -0.7591 -0.5054  0.5632
  187SLPC  C21421566   2.966  -0.139   8.244 -0.1254  0.0897 -0.6114
  187SLPC  H14R21567   2.967  -0.036   8.285 -0.2947  0.7558 -2.2499
  187SLPC  H14S21568   3.041  -0.205   8.293  1.5887  1.6183 -1.0995
  187SLPC  C21521569   2.824  -0.204   8.257 -0.5034 -0.0589 -0.4018
  187SLPC  H15R21570   2.827  -0.314   8.250  0.7742 -0.0333 -0.3487
  187SLPC  H15S21571   2.757  -0.171   8.175 -1.8842 -3.2338 -0.5956
  187SLPC  C21621572   2.769  -0.181   8.402  0.2255 -0.1507  0.1085
  187SLPC  H16R21573   2.783  -0.072   8.422 -2.0402  0.3628 -0.9066
  187SLPC  H16S21574   2.847  -0.231   8.463 -0.0203 -0.8407 -0.1500
  187SLPC  C21721575   2.628  -0.227   8.420  0.3510 -0.2262 -0.0687
  187SLPC  H17R21576   2.635  -0.337   8.434 -0.1457 -0.3419 -0.7062
  187SLPC  H17S21577   2.556  -0.209   8.337 -1.3087  1.2718  1.6412
  187SLPC  C21821578   2.570  -0.159   8.541  0.8805 -0.3499 -0.3022
  187SLPC  H18R21579   2.554  -0.050   8.529  0.8436 -0.1976  1.0357
  187SLPC  H18S21580   2.634  -0.175   8.630 -0.3531 -1.1204  0.4570
  187SLPC  H18T21581   2.466  -0.188   8.569  1.7106 -3.4328 -0.2349
  187SLPC   C3321582   3.344  -0.453   6.856 -0.1692  0.0601  0.0566
  187SLPC   H3X21583   3.398  -0.363   6.892 -0.1253  0.7684 -1.7457
  187SLPC   H3Y21584   3.387  -0.474   6.756 -2.4565  1.4458 -1.2548
  187SLPC   C3421585   3.376  -0.560   6.956 -1.2188  0.1157 -0.5581
  187SLPC   H4X21586   3.485  -0.583   6.945 -1.2453  0.0794 -0.7649
  187SLPC   H4Y21587   3.321  -0.654   6.931 -0.2849 -0.5069 -0.3072
  187SLPC   C3521588   3.355  -0.529   7.096 -0.4665  0.2680 -0.4996
  187SLPC   H5X21589   3.246  -0.510   7.111 -0.5011 -0.8730  0.7328
  187SLPC   H5Y21590   3.417  -0.439   7.117  1.6846 -1.5705  1.2996
  187SLPC   C3621591   3.397  -0.627   7.207 -0.3392 -0.4341 -0.5161
  187SLPC   H6X21592   3.505  -0.639   7.188 -0.4118  1.3702 -2.1645
  187SLPC   H6Y21593   3.350  -0.724   7.180 -0.0745 -0.5012 -0.7308
  187SLPC   C3721594   3.370  -0.593   7.354 -0.3497  0.6248 -0.0663
  187SLPC   H7X21595   3.420  -0.496   7.373 -1.4926  1.4967 -1.3890
  187SLPC   H7Y21596   3.260  -0.575   7.355 -0.3512  0.6097  0.0684
  187SLPC   C3821597   3.419  -0.704   7.457  0.1664 -0.2859  0.6499
  187SLPC   H8X21598   3.530  -0.700   7.451  0.1013 -0.0888 -0.5192
  187SLPC   H8Y21599   3.394  -0.801   7.408 -1.5609  1.0046 -1.1162
  187SLPC   C3921600   3.352  -0.702   7.592 -0.6731  0.3012 -0.9665
  187SLPC   H9X21601   3.241  -0.712   7.583 -0.7754  0.4638  0.1175
  187SLPC   H9Y21602   3.378  -0.605   7.638  0.7199 -0.8171  0.6606
  187SLPC  C31021603   3.395  -0.814   7.681  0.3533 -0.0382 -0.1783
  187SLPC  H10X21604   3.501  -0.784   7.695 -0.1257  0.7117  2.2322
  187SLPC  H10Y21605   3.388  -0.909   7.625 -0.4131  0.0099 -0.1718
  187SLPC  C31121606   3.328  -0.818   7.820 -0.2164  0.0537  0.1312
  187SLPC  H11X21607   3.220  -0.841   7.809  0.1632 -2.4603  1.3102
  187SLPC  H11Y21608   3.325  -0.717   7.866 -1.4790 -0.5113  1.3307
  187SLPC  C31221609   3.408  -0.908   7.926  0.1202  0.1906  0.1192
  187SLPC  H12X21610   3.506  -0.855   7.921  0.8214 -1.1521 -0.3297
  187SLPC  H12Y21611   3.420  -1.011   7.889 -0.4347  0.4225 -0.7228
  187SLPC  C31321612   3.340  -0.906   8.067 -0.6623 -0.3958 -0.5237
  187SLPC  H13X21613   3.243  -0.959   8.060 -0.9523 -0.0831  0.9758
  187SLPC  H13Y21614   3.314  -0.802   8.098  2.1446  0.0471  0.5875
  187SLPC  C31421615   3.407  -0.971   8.190  0.5751 -0.5759  0.7695
  187SLPC  H14X21616   3.517  -0.955   8.186  0.7351 -1.6388  0.6079
  187SLPC  H14Y21617   3.386  -1.080   8.197  0.4673 -0.6877 -1.0751
  187SLPC  C31521618   3.373  -0.909   8.329  0.0846 -0.2472 -0.4505
  187SLPC  H15X21619   3.269  -0.945   8.340 -0.2248  0.8036  0.1499
  187SLPC  H15Y21620   3.372  -0.798   8.325 -3.7281 -0.1960  0.4206
  187SLPC  C31621621   3.455  -0.972   8.442  0.0696  0.3556  0.1484
  187SLPC  H16X21622   3.562  -0.961   8.416  0.5309 -1.5633  1.1424
  187SLPC  H16Y21623   3.435  -1.080   8.458 -0.1334  0.6517  2.0424
  187SLPC  C31721624   3.456  -0.908   8.583  0.3850 -0.7189  0.0387
  187SLPC  H17X21625   3.354  -0.924   8.626 -0.4277 -0.4122 -1.7318
  187SLPC  H17Y21626   3.469  -0.799   8.565 -0.6858 -0.4202  1.0324
  187SLPC  C31821627   3.567  -0.948   8.677 -0.0716 -0.2922  0.3350
  187SLPC  H18X21628   3.565  -0.900   8.777  0.1720  3.5895 -1.4382
  187SLPC  H18Y21629   3.666  -0.926   8.631  0.6384 -1.6299  1.2039
  187SLPC  H18Z21630   3.563  -1.058   8.696 -2.6769 -0.0228  1.5968
  188SLPC     N21631   4.809   1.820   6.494 -0.1943  0.9495 -0.2125
  188SLPC   C1321632   4.881   1.715   6.416 -0.1714 -0.3893  1.4921
  188SLPC  H13A21633   4.985   1.741   6.400 -0.3277  0.1443  1.3534
  188SLPC  H13B21634   4.877   1.620   6.467 -1.6887 -1.4054 -0.4522
  188SLPC  H13C21635   4.834   1.711   6.319  0.8345 -0.8667  1.0082
  188SLPC   C1421636   4.810   1.948   6.414  0.2436 -0.5064 -0.0863
  188SLPC  H14A21637   4.787   1.925   6.311 -3.1495 -1.9112  0.9221
  188SLPC  H14B21638   4.731   2.011   6.452 -1.1199 -2.0763 -0.2287
  188SLPC  H14C21639   4.904   2.001   6.414 -0.3240  0.5236  0.7974
  188SLPC   C1521640   4.878   1.834   6.625 -0.4643  0.1399 -0.3858
  188SLPC  H15A21641   4.983   1.856   6.627 -0.4996  0.2930 -0.1383
  188SLPC  H15B21642   4.829   1.908   6.687  2.1438  0.4232  1.4190
  188SLPC  H15C21643   4.868   1.743   6.683 -1.1063  0.8195  0.5986
  188SLPC   C1221644   4.666   1.768   6.512 -1.2550 -0.2157 -0.0852
  188SLPC  H12A21645   4.660   1.678   6.570  2.0327 -0.9919 -0.8174
  188SLPC  H12B21646   4.629   1.740   6.414  0.1398 -0.0986 -0.6642
  188SLPC   C1121647   4.561   1.866   6.580  0.3805  0.4846 -0.0598
  188SLPC  H11A21648   4.600   1.899   6.678 -1.9615  2.3198  0.2861
  188SLPC  H11B21649   4.473   1.803   6.603  2.1008 -2.1236 -0.2597
  188SLPC     P21650   4.436   1.974   6.379 -0.0667 -0.3590 -0.0010
  188SLPC   O1321651   4.475   2.074   6.282 -0.0765 -0.2016 -0.1102
  188SLPC   O1421652   4.440   1.834   6.326  0.5521  0.9027  0.8549
  188SLPC   O1221653   4.540   1.984   6.500  0.2950  0.8204 -0.1546
  188SLPC   O1121654   4.292   2.008   6.446 -0.6271  0.3065 -0.0568
  188SLPC    C121655   4.262   2.122   6.511  0.0009 -0.0892  0.5246
  188SLPC    HA21656   4.329   2.204   6.478 -0.3749  1.2361  2.9724
  188SLPC    HB21657   4.154   2.147   6.500  0.2659 -0.1336 -2.7975
  188SLPC    C221658   4.305   2.116   6.662 -0.3525  0.6195 -1.2100
  188SLPC    HS21659   4.414   2.138   6.664 -0.5090  1.3553  0.2951
  188SLPC   O2121660   4.261   1.990   6.721 -0.0769  0.5125  0.4629
  188SLPC   C2121661   4.339   1.939   6.815 -0.3929 -0.5471  0.0890
  188SLPC   O2221662   4.435   2.000   6.863 -0.3250 -0.1303  0.1604
  188SLPC   C2221663   4.285   1.803   6.850 -0.2654  0.1984 -0.4575
  188SLPC   H2R21664   4.178   1.816   6.875 -0.4341  1.1462 -1.6443
  188SLPC   H2S21665   4.290   1.736   6.761 -0.5237  0.7109 -0.8619
  188SLPC    C321666   4.227   2.229   6.730 -0.7657 -0.2382  0.7146
  188SLPC    HX21667   4.123   2.208   6.696 -0.3578 -0.3860 -0.4639
  188SLPC    HY21668   4.250   2.330   6.689  1.0249  0.1133  2.5284
  188SLPC   O3121669   4.219   2.232   6.873 -0.3252  0.5760  0.1153
  188SLPC   C3121670   4.327   2.279   6.928 -0.5965  0.3698 -0.2751
  188SLPC   O3221671   4.420   2.339   6.873 -0.5650 -0.0981 -0.0676
  188SLPC   C3221672   4.312   2.270   7.074 -0.6273  0.1253  0.1403
  188SLPC   H2X21673   4.268   2.175   7.110 -1.0306  1.5392  3.6016
  188SLPC   H2Y21674   4.233   2.345   7.096  0.6140  2.0762 -1.7830
  188SLPC   C2321675   4.372   1.730   6.959  0.0713  0.3665 -0.6185
  188SLPC   H3R21676   4.475   1.713   6.920  0.9292  0.3799  1.5492
  188SLPC   H3S21677   4.332   1.627   6.967  0.5677  0.1664 -0.6942
  188SLPC   C2421678   4.370   1.798   7.094  0.3390  0.3284 -0.3102
  188SLPC   H4R21679   4.270   1.802   7.144 -0.0081 -0.5543 -0.9142
  188SLPC   H4S21680   4.415   1.900   7.090  0.8690  0.2592  2.8644
  188SLPC   C2521681   4.454   1.718   7.192 -0.6410  0.7050  0.2822
  188SLPC   H5R21682   4.539   1.678   7.133 -0.4033  1.6343 -0.0300
  188SLPC   H5S21683   4.397   1.635   7.237  0.2843  1.3114  2.6205
  188SLPC   C2621684   4.512   1.795   7.307 -0.2238  0.4570 -0.2612
  188SLPC   H6R21685   4.587   1.866   7.268  1.4700 -1.2467 -0.1984
  188SLPC   H6S21686   4.573   1.731   7.375  0.3489  2.5315  1.2215
  188SLPC   C2721687   4.399   1.857   7.381  0.0922 -0.6154  0.8477
  188SLPC   H7R21688   4.306   1.798   7.370  1.2781 -2.4188  0.2380
  188SLPC   H7S21689   4.380   1.958   7.338 -2.6246 -1.3292  0.2869
  188SLPC   C2821690   4.425   1.863   7.528  0.1849 -0.5188  0.5809
  188SLPC   H8R21691   4.359   1.943   7.568  2.0096  2.2899 -1.8054
  188SLPC   H8S21692   4.530   1.900   7.534  0.9835 -2.1247 -2.7008
  188SLPC   C2921693   4.412   1.737   7.611 -1.0210 -0.3699  0.1695
  188SLPC   H9R21694   4.364   1.655   7.556  1.7224 -1.2748 -0.9613
  188SLPC  C21021695   4.446   1.716   7.740 -0.2386  0.4208  0.2586
  188SLPC  H10R21696   4.440   1.614   7.780  4.0835  0.3116  0.9075
  188SLPC  C21121697   4.495   1.826   7.839 -0.1255  0.0487 -0.0718
  188SLPC  H11R21698   4.411   1.850   7.908  1.9782 -0.5916  2.7959
  188SLPC  H11S21699   4.517   1.919   7.783 -0.5171  1.1108  1.5117
  188SLPC  C21221700   4.611   1.795   7.930  0.2512 -0.0674  0.4257
  188SLPC  H12R21701   4.704   1.758   7.883  0.2988 -1.6146  1.6881
  188SLPC  C21321702   4.626   1.794   8.065  0.4475  0.3987  0.4334
  188SLPC  H13R21703   4.730   1.775   8.097 -0.1806  0.4870  2.6514
  188SLPC  C21421704   4.531   1.820   8.178  0.1501  0.5904  0.4361
  188SLPC  H14R21705   4.470   1.736   8.217 -0.3750  1.5591  1.7400
  188SLPC  H14S21706   4.463   1.901   8.143 -1.4144 -0.3493  1.2333
  188SLPC  C21521707   4.602   1.889   8.294 -0.2152 -0.1971 -0.0107
  188SLPC  H15R21708   4.646   1.979   8.244  0.2713 -1.3659 -1.7353
  188SLPC  H15S21709   4.693   1.832   8.324 -0.7809 -1.0297  0.1004
  188SLPC  C21621710   4.499   1.929   8.393  0.0570 -0.0963 -0.6181
  188SLPC  H16R21711   4.395   1.926   8.354 -1.0734 -1.9593  2.4071
  188SLPC  H16S21712   4.516   2.034   8.425 -1.2250 -0.4781  1.3590
  188SLPC  C21721713   4.492   1.852   8.520  0.3500  0.7994  0.2342
  188SLPC  H17R21714   4.592   1.855   8.569  1.6626  0.1692 -2.2854
  188SLPC  H17S21715   4.472   1.747   8.490  0.6285  0.8488 -0.1348
  188SLPC  C21821716   4.374   1.896   8.610 -0.7663 -0.7095 -0.2958
  188SLPC  H18R21717   4.277   1.883   8.558 -0.3105 -2.9054 -0.6801
  188SLPC  H18S21718   4.405   2.000   8.632  3.0744 -1.4004 -2.0284
  188SLPC  H18T21719   4.360   1.837   8.704 -0.7951 -0.7967 -0.3548
  188SLPC   C3321720   4.447   2.295   7.147  0.2265  0.5115 -0.3269
  188SLPC   H3X21721   4.468   2.405   7.148 -0.2421  0.5984  1.1978
  188SLPC   H3Y21722   4.536   2.243   7.106  2.0176  1.0578  2.7257
  188SLPC   C3421723   4.441   2.239   7.290  0.9345 -0.5933 -0.2479
  188SLPC   H4X21724   4.459   2.129   7.292 -3.3700 -1.4225 -1.0011
  188SLPC   H4Y21725   4.336   2.260   7.320  1.9452  2.8560  1.0707
  188SLPC   C3521726   4.545   2.302   7.370  0.0709  0.1187  0.4864
  188SLPC   H5X21727   4.529   2.412   7.371 -0.9864 -0.0321  1.8972
  188SLPC   H5Y21728   4.650   2.270   7.357  0.6257  2.0505  0.0579
  188SLPC   C3621729   4.516   2.264   7.516  0.4139 -0.7240  0.7172
  188SLPC   H6X21730   4.600   2.202   7.554  0.6283  0.4991  2.2975
  188SLPC   H6Y21731   4.418   2.211   7.518 -1.2136  2.0747 -1.7541
  188SLPC   C3721732   4.502   2.386   7.606 -0.0309 -0.6280 -0.5626
  188SLPC   H7X21733   4.431   2.448   7.546 -1.4283 -0.8477  0.8212
  188SLPC   H7Y21734   4.598   2.442   7.615  0.6206 -2.0573  1.7413
  188SLPC   C3821735   4.428   2.372   7.738 -0.3159 -0.1288  0.6525
  188SLPC   H8X21736   4.343   2.302   7.725 -0.7791  0.8039 -1.4959
  188SLPC   H8Y21737   4.376   2.464   7.771 -1.6599 -0.6337 -0.0066
  188SLPC   C3921738   4.518   2.319   7.856  0.0738  0.4708  0.0394
  188SLPC   H9X21739   4.621   2.358   7.849  0.2850 -0.0637  0.1580
  188SLPC   H9Y21740   4.516   2.209   7.841  0.2310  0.6619 -1.4365
  188SLPC  C31021741   4.450   2.347   7.995  0.0323  0.2042 -0.8173
  188SLPC  H10X21742   4.365   2.275   7.989  1.5488 -1.5602 -2.0178
  188SLPC  H10Y21743   4.425   2.454   8.007 -0.9216 -0.3255  2.2576
  188SLPC  C31121744   4.537   2.299   8.111 -0.4708  0.1185  0.4233
  188SLPC  H11X21745   4.610   2.382   8.114 -0.3258 -0.0147  0.5913
  188SLPC  H11Y21746   4.592   2.207   8.081 -0.5083 -0.0430  0.8456
  188SLPC  C31221747   4.462   2.278   8.242  0.1612 -0.1464  0.3179
  188SLPC  H12X21748   4.543   2.248   8.311  0.4840 -1.3949 -0.5808
  188SLPC  H12Y21749   4.373   2.212   8.236  0.4086 -0.2510 -3.5431
  188SLPC  C31321750   4.412   2.411   8.304  0.0692 -0.1343 -0.4145
  188SLPC  H13X21751   4.354   2.460   8.223 -1.3755  1.1248  1.3527
  188SLPC  H13Y21752   4.506   2.470   8.318  0.5605 -1.5827  2.7091
  188SLPC  C31421753   4.333   2.395   8.428  0.8095  0.8052  0.3614
  188SLPC  H14X21754   4.248   2.329   8.399  1.4076  0.3345 -0.3543
  188SLPC  H14Y21755   4.299   2.492   8.471 -0.6473  0.9110 -0.9734
  188SLPC  C31521756   4.404   2.314   8.535  0.0037 -0.4671 -0.0204
  188SLPC  H15X21757   4.406   2.205   8.512 -0.9710 -0.2579 -1.1828
  188SLPC  H15Y21758   4.338   2.327   8.624  0.3547 -0.8599  0.2954
  188SLPC  C31621759   4.548   2.349   8.565  0.5253  0.4996  0.0498
  188SLPC  H16X21760   4.541   2.457   8.590 -1.2478  0.1964  0.9729
  188SLPC  H16Y21761   4.612   2.354   8.475  1.4265 -1.2141  0.5699
  188SLPC  C31721762   4.616   2.270   8.681 -0.0027 -0.2550 -0.2105
  188SLPC  H17X21763   4.592   2.163   8.662  0.0546 -0.2780 -0.1511
  188SLPC  H17Y21764   4.589   2.315   8.778  0.4543 -0.2270 -0.0911
  188SLPC  C31821765   4.772   2.272   8.686 -0.7513  0.0240  0.3360
  188SLPC  H18X21766   4.820   2.193   8.749  0.1529 -2.3317 -3.1703
  188SLPC  H18Y21767   4.799   2.370   8.732 -0.1990 -0.2428  0.5869
  188SLPC  H18Z21768   4.803   2.262   8.580  0.0993 -1.9898  0.7513
  189SLPC     N21769   6.691   3.692   6.083 -0.4603  0.6023 -0.0310
  189SLPC   C1321770   6.785   3.785   6.014 -0.5029 -0.7494 -0.3174
  189SLPC  H13A21771   6.845   3.840   6.084  1.5777 -3.8419  0.4486
  189SLPC  H13B21772   6.850   3.737   5.942  1.4871  3.1449 -1.2634
  189SLPC  H13C21773   6.726   3.854   5.955 -2.0513 -2.1200 -0.4234
  189SLPC   C1421774   6.764   3.583   6.141  0.8501  0.3800  0.1559
  189SLPC  H14A21775   6.696   3.513   6.188  0.8165  0.5294  0.3306
  189SLPC  H14B21776   6.831   3.537   6.070 -0.7220 -0.6784 -0.6660
  189SLPC  H14C21777   6.828   3.624   6.218  0.4462  1.1368  0.0885
  189SLPC   C1521778   6.605   3.627   5.980 -0.1677 -0.3096  0.4585
  189SLPC  H15A21779   6.649   3.539   5.935 -1.0353 -0.3019 -0.4196
  189SLPC  H15B21780   6.518   3.584   6.027  0.4418 -1.5286  0.5209
  189SLPC  H15C21781   6.576   3.692   5.899  1.7377 -1.9401 -1.6214
  189SLPC   C1221782   6.617   3.769   6.186 -0.7523  0.2998 -0.1511
  189SLPC  H12A21783   6.574   3.852   6.131  1.2921  0.6539 -1.2555
  189SLPC  H12B21784   6.691   3.816   6.250 -0.3024  1.1856 -1.3145
  189SLPC   C1121785   6.501   3.703   6.268  0.0240 -0.1684  0.0923
  189SLPC  H11A21786   6.486   3.768   6.357  0.9609  1.2842 -0.7868
  189SLPC  H11B21787   6.540   3.606   6.305  0.6511 -1.4337 -3.6566
  189SLPC     P21788   6.279   3.574   6.214  0.1504  0.0958 -0.1097
  189SLPC   O1321789   6.162   3.596   6.124  0.2933 -0.1622 -0.3578
  189SLPC   O1421790   6.346   3.441   6.200  0.3493  0.2955 -0.2810
  189SLPC   O1221791   6.382   3.695   6.191 -0.1982  0.2214  0.2636
  189SLPC   O1121792   6.231   3.600   6.361 -0.4043 -0.1260 -0.1643
  189SLPC    C121793   6.094   3.644   6.380  0.1248  0.2747  0.2107
  189SLPC    HA21794   6.085   3.747   6.342 -0.0611 -0.6349 -2.2930
  189SLPC    HB21795   6.029   3.570   6.329  1.4545 -0.8850  0.1681
  189SLPC    C221796   6.065   3.647   6.534  0.3107 -0.1504  0.3594
  189SLPC    HS21797   5.977   3.715   6.542 -0.7037 -1.4809  0.6414
  189SLPC   O2121798   6.170   3.689   6.609  0.2164 -0.2836 -0.2225
  189SLPC   C2121799   6.191   3.825   6.596  0.4659  0.0686 -0.0596
  189SLPC   O2221800   6.125   3.901   6.528 -0.1562 -0.2549 -0.5854
  189SLPC   C2221801   6.315   3.865   6.676  0.3778 -0.3544 -0.0605
  189SLPC   H2R21802   6.361   3.772   6.715  0.1834 -0.3448  0.1922
  189SLPC   H2S21803   6.385   3.922   6.612  0.1267  0.4517  0.3738
  189SLPC    C321804   6.025   3.506   6.581 -0.3759  0.3172  0.3309
  189SLPC    HX21805   6.100   3.429   6.552 -0.7459  0.4460 -1.0132
  189SLPC    HY21806   5.943   3.483   6.510 -1.1795  2.6393  0.4831
  189SLPC   O3121807   5.971   3.510   6.714  0.2070 -0.2857 -0.0240
  189SLPC   C3121808   6.040   3.466   6.809 -0.2654  0.9035 -0.1904
  189SLPC   O3221809   6.150   3.414   6.803  0.2707 -0.1088  0.4335
  189SLPC   C3221810   5.950   3.488   6.932  0.7098  0.1029 -0.3949
  189SLPC   H2X21811   5.872   3.409   6.932  0.6712  0.1275  1.0585
  189SLPC   H2Y21812   5.907   3.590   6.921 -0.1498 -0.2593 -0.4244
  189SLPC   C2321813   6.277   3.959   6.800 -0.3551  0.9575 -0.0263
  189SLPC   H3R21814   6.205   4.041   6.776 -1.8943 -0.1700  0.6448
  189SLPC   H3S21815   6.369   4.017   6.820  0.2537  0.5698 -1.6859
  189SLPC   C2421816   6.237   3.867   6.923 -0.8423  0.4218  0.3883
  189SLPC   H4R21817   6.336   3.824   6.950 -0.4766  1.1991  0.3029
  189SLPC   H4S21818   6.159   3.791   6.902 -1.2118  1.3623 -1.8560
  189SLPC   C2521819   6.200   3.955   7.043  0.3805 -0.0034  0.1100
  189SLPC   H5R21820   6.124   4.024   6.999  1.9505  0.7730 -1.4331
  189SLPC   H5S21821   6.277   4.029   7.075  0.2723 -0.1720  0.7713
  189SLPC   C2621822   6.175   3.874   7.171 -0.0809 -0.3921  0.4394
  189SLPC   H6R21823   6.272   3.832   7.206 -0.8579 -0.1859  2.9083
  189SLPC   H6S21824   6.112   3.786   7.147 -0.9983  0.5168 -0.5124
  189SLPC   C2721825   6.099   3.951   7.294 -0.2556 -0.0731  0.4993
  189SLPC   H7R21826   6.000   3.990   7.261  0.1708  1.0093  0.4882
  189SLPC   H7S21827   6.159   4.040   7.319 -0.5978  0.0290  0.9531
  189SLPC   C2821828   6.084   3.875   7.425 -0.2019 -0.0758  0.2200
  189SLPC   H8R21829   5.994   3.812   7.412 -0.6726  0.3484  1.3638
  189SLPC   H8S21830   6.048   3.948   7.500 -1.0302 -1.0007  0.7272
  189SLPC   C2921831   6.203   3.783   7.457  0.5597 -0.2748  0.1088
  189SLPC   H9R21832   6.248   3.726   7.375 -0.4104  1.5091 -1.7207
  189SLPC  C21021833   6.266   3.775   7.570  0.6565 -0.0998 -0.7483
  189SLPC  H10R21834   6.351   3.706   7.577  2.0514  1.8102  2.1636
  189SLPC  C21121835   6.230   3.848   7.698 -0.0849  0.0576 -0.6321
  189SLPC  H11R21836   6.219   3.952   7.661  1.3235 -0.6521 -3.1375
  189SLPC  H11S21837   6.310   3.856   7.775 -1.0604 -0.2445  0.4247
  189SLPC  C21221838   6.111   3.799   7.773  0.1278 -0.5555 -0.2704
  189SLPC  H12R21839   6.048   3.736   7.709 -1.0611  0.3575 -0.0219
  189SLPC  C21321840   6.076   3.823   7.903 -0.5050  0.4197 -0.0704
  189SLPC  H13R21841   5.976   3.796   7.941 -0.6389  1.5747  0.4239
  189SLPC  C21421842   6.163   3.894   8.004  0.3629 -0.2231  0.5835
  189SLPC  H14R21843   6.103   3.974   8.051 -0.4658  0.3999 -1.4515
  189SLPC  H14S21844   6.257   3.933   7.958 -0.5559  1.3585  0.0094
  189SLPC  C21521845   6.203   3.788   8.109  0.3155 -0.3910 -0.3633
  189SLPC  H15R21846   6.241   3.696   8.060  0.8953 -1.6334  2.3718
  189SLPC  H15S21847   6.116   3.762   8.174  0.1326 -0.1713 -0.5156
  189SLPC  C21621848   6.317   3.846   8.201  0.1119  0.2425 -0.1060
  189SLPC  H16R21849   6.292   3.949   8.234  0.6096  0.2573  0.2334
  189SLPC  H16S21850   6.406   3.862   8.138 -0.2518 -0.6391 -0.8530
  189SLPC  C21721851   6.362   3.766   8.324  0.3209 -0.1778 -0.4777
  189SLPC  H17R21852   6.442   3.826   8.373 -0.6282  1.9844 -1.5282
  189SLPC  H17S21853   6.415   3.675   8.291  1.1703 -1.2270  3.4839
  189SLPC  C21821854   6.257   3.721   8.429  0.0125 -0.1908  0.5839
  189SLPC  H18R21855   6.203   3.816   8.449  2.9685  1.9346 -1.1051
  189SLPC  H18S21856   6.311   3.690   8.522  1.0690  2.9688  1.0684
  189SLPC  H18T21857   6.197   3.640   8.382 -0.4632 -1.0065  2.5104
  189SLPC   C3321858   6.022   3.486   7.066 -0.7460  0.7606  0.2306
  189SLPC   H3X21859   6.102   3.563   7.072 -0.2108  0.3252 -1.1165
  189SLPC   H3Y21860   6.070   3.389   7.087  0.9944  1.2058 -1.6121
  189SLPC   C3421861   5.922   3.510   7.179 -0.5465  0.2743  0.0583
  189SLPC   H4X21862   5.835   3.444   7.160 -0.2263 -0.1978  0.2332
  189SLPC   H4Y21863   5.881   3.613   7.168 -0.2234  0.5870  1.5673
  189SLPC   C3521864   5.989   3.485   7.316 -0.2515 -0.4666 -0.7264
  189SLPC   H5X21865   6.060   3.564   7.349  0.4667 -1.4594  0.1471
  189SLPC   H5Y21866   6.041   3.387   7.324 -0.7999 -0.6932  0.1841
  189SLPC   C3621867   5.875   3.497   7.425 -0.4259  0.1305  0.1471
  189SLPC   H6X21868   5.801   3.417   7.403  1.3140 -1.8773  1.5039
  189SLPC   H6Y21869   5.837   3.602   7.415  2.5667  1.1751 -0.6207
  189SLPC   C3721870   5.925   3.470   7.567 -0.6517 -0.1945 -0.2386
  189SLPC   H7X21871   6.015   3.534   7.585 -0.3513 -1.0582  1.3926
  189SLPC   H7Y21872   5.958   3.365   7.553 -0.8861 -0.3557  0.4103
  189SLPC   C3821873   5.825   3.489   7.672 -0.6275 -0.2586  0.4372
  189SLPC   H8X21874   5.734   3.442   7.630  0.2152 -0.9125 -0.7145
  189SLPC   H8Y21875   5.797   3.594   7.694  0.4556 -0.0817  0.9824
  189SLPC   C3921876   5.860   3.414   7.799  0.1760  0.2526  0.6632
  189SLPC   H9X21877   5.863   3.305   7.779  1.6179  0.5988 -1.2119
  189SLPC   H9Y21878   5.790   3.439   7.881 -1.8607 -0.7962 -0.7310
  189SLPC  C31021879   5.997   3.455   7.857  0.2599  0.0668  0.6844
  189SLPC  H10X21880   6.014   3.565   7.858 -0.2403  0.1397  1.8248
  189SLPC  H10Y21881   6.081   3.410   7.800  0.5284  0.8766  0.4485
  189SLPC  C31121882   6.019   3.425   8.011 -0.0572 -0.3071  0.1425
  189SLPC  H11X21883   6.125   3.418   8.042 -0.3597 -0.3608  1.1698
  189SLPC  H11Y21884   5.982   3.322   8.031  0.4079 -0.2327  1.4488
  189SLPC  C31221885   5.940   3.517   8.095  0.2035 -0.4979 -0.0922
  189SLPC  H12X21886   5.836   3.507   8.057  0.4701  0.8846 -1.2476
  189SLPC  H12Y21887   5.969   3.624   8.080  1.2518 -0.7761 -0.0675
  189SLPC  C31321888   5.942   3.479   8.245  0.2287  0.0253 -0.1138
  189SLPC  H13X21889   6.046   3.473   8.283  0.2279  1.2454  0.1068
  189SLPC  H13Y21890   5.890   3.381   8.254  0.1066  0.1069  0.0832
  189SLPC  C31421891   5.866   3.583   8.339 -0.4075  0.1357  0.5349
  189SLPC  H14X21892   5.774   3.615   8.287 -1.3861 -0.5073  1.8549
  189SLPC  H14Y21893   5.933   3.671   8.343  0.0469 -0.1381 -0.6844
  189SLPC  C31521894   5.844   3.536   8.480 -0.0682  0.0673  0.6419
  189SLPC  H15X21895   5.930   3.473   8.513 -0.3175 -0.0467  1.0868
  189SLPC  H15Y21896   5.753   3.473   8.483 -0.6532  0.8242 -0.8929
  189SLPC  C31621897   5.811   3.652   8.571 -0.0235 -0.0191 -0.0787
  189SLPC  H16X21898   5.721   3.703   8.530 -1.0314 -1.6427  0.0598
  189SLPC  H16Y21899   5.901   3.716   8.584  1.9173 -1.6922 -4.3901
  189SLPC  C31721900   5.777   3.596   8.715  1.3733  0.5065  0.6430
  189SLPC  H17X21901   5.860   3.542   8.765  1.2479  0.3971  0.7331
  189SLPC  H17Y21902   5.715   3.508   8.688 -1.0511  2.3437 -0.0207
  189SLPC  C31821903   5.704   3.689   8.812 -0.8332  0.3077  0.1586
  189SLPC  H18X21904   5.662   3.646   8.905  0.1397 -0.5123  0.2265
  189SLPC  H18Y21905   5.624   3.740   8.754 -1.0571  0.6315  0.7553
  189SLPC  H18Z21906   5.782   3.760   8.846 -0.6128 -0.6133  1.6140
  190SLPC     N21907   6.455   3.322   6.551  0.1270  0.2808  0.3309
  190SLPC   C1321908   6.363   3.278   6.434 -0.7080 -0.1606 -0.1537
  190SLPC  H13A21909   6.398   3.323   6.343  1.6711  0.5778  1.0903
  190SLPC  H13B21910   6.370   3.171   6.420  0.7026 -0.1667  0.5552
  190SLPC  H13C21911   6.258   3.295   6.455 -0.6402 -0.9577  0.8739
  190SLPC   C1421912   6.383   3.276   6.672 -0.7264 -0.5659  0.2714
  190SLPC  H14A21913   6.368   3.170   6.677 -1.7490 -0.4117  0.5870
  190SLPC  H14B21914   6.440   3.310   6.758 -1.8937  0.0603  0.7987
  190SLPC  H14C21915   6.285   3.321   6.674 -0.2076  0.5577  3.0388
  190SLPC   C1521916   6.454   3.477   6.554 -0.0119 -0.0002 -0.0697
  190SLPC  H15A21917   6.504   3.513   6.642  0.0939 -0.5566  0.1006
  190SLPC  H15B21918   6.503   3.504   6.461 -0.0470 -0.0762 -0.1101
  190SLPC  H15C21919   6.353   3.515   6.544  0.0050  0.2727  0.7433
  190SLPC   C1221920   6.601   3.270   6.536 -0.8724 -0.0118 -0.3744
  190SLPC  H12A21921   6.599   3.162   6.550  0.6946  0.0121  0.1478
  190SLPC  H12B21922   6.665   3.308   6.614  0.8755  0.4459 -2.0062
  190SLPC   C1121923   6.666   3.285   6.401  0.2468  0.5426  0.9378
  190SLPC  H11A21924   6.692   3.387   6.365  2.1137  0.0366  0.8079
  190SLPC  H11B21925   6.595   3.249   6.324  0.9023  3.5645 -1.1725
  190SLPC     P21926   6.792   3.055   6.407  0.2861  0.1096  0.0715
  190SLPC   O1321927   6.778   3.034   6.264 -0.0473 -0.1221 -0.4372
  190SLPC   O1421928   6.915   3.011   6.473  0.8029  0.3070  0.0527
  190SLPC   O1221929   6.788   3.207   6.426  0.1651 -0.1929  0.2949
  190SLPC   O1121930   6.667   3.005   6.476  0.1567  0.2772 -0.2510
  190SLPC    C121931   6.617   2.871   6.461  0.0035 -0.4742 -0.2557
  190SLPC    HA21932   6.553   2.869   6.370 -1.6150 -3.1156  0.8943
  190SLPC    HB21933   6.700   2.798   6.454 -1.0622 -1.7918  0.6557
  190SLPC    C221934   6.545   2.820   6.584 -0.0789  0.4663  0.1099
  190SLPC    HS21935   6.446   2.870   6.578 -0.5421 -0.6011 -1.4393
  190SLPC   O2121936   6.620   2.837   6.706 -0.4203  0.0670  0.2645
  190SLPC   C2121937   6.544   2.847   6.808 -0.3262 -0.4207  0.0616
  190SLPC   O2221938   6.423   2.857   6.815 -0.3019 -0.4154 -0.0110
  190SLPC   C2221939   6.628   2.868   6.933  0.2936 -0.0124  0.3788
  190SLPC   H2R21940   6.703   2.945   6.904 -0.4572  0.0165 -1.5270
  190SLPC   H2S21941   6.552   2.906   7.006  0.9126 -1.2432  1.6854
  190SLPC    C321942   6.510   2.667   6.565 -0.8643  0.4844  0.5931
  190SLPC    HX21943   6.597   2.601   6.587 -1.3687 -0.4822 -0.2830
  190SLPC    HY21944   6.504   2.646   6.456  1.4886  0.0697  0.5204
  190SLPC   O3121945   6.392   2.630   6.633  0.3194 -0.0080 -0.4765
  190SLPC   C3121946   6.273   2.636   6.566  0.0801 -0.9463  0.1485
  190SLPC   O3221947   6.256   2.678   6.453  0.0232 -0.0895  0.1523
  190SLPC   C3221948   6.163   2.568   6.652  0.1040 -0.0872 -0.1493
  190SLPC   H2X21949   6.162   2.457   6.641  0.3689 -0.2066  0.9315
  190SLPC   H2Y21950   6.067   2.611   6.619  0.6973  1.1545 -0.2652
  190SLPC   C2321951   6.685   2.734   6.994  0.8612 -0.2525  0.3373
  190SLPC   H3R21952   6.763   2.683   6.934  1.0899 -1.6252  1.7860
  190SLPC   H3S21953   6.595   2.670   6.986  0.6500  0.2914 -2.1233
  190SLPC   C2421954   6.727   2.754   7.144 -0.1354  0.2261  0.0745
  190SLPC   H4R21955   6.632   2.773   7.199 -0.6907 -1.2377 -0.3512
  190SLPC   H4S21956   6.791   2.844   7.132  0.4038 -0.3238 -1.2737
  190SLPC   C2521957   6.812   2.636   7.199 -0.4845 -0.8424 -0.4988
  190SLPC   H5R21958   6.917   2.652   7.164 -0.5695  3.5874  0.9946
  190SLPC   H5S21959   6.769   2.550   7.144 -0.2160 -1.1610 -0.2151
  190SLPC   C2621960   6.825   2.625   7.352 -0.0728 -0.0944  0.4037
  190SLPC   H6R21961   6.721   2.613   7.389 -0.2618 -3.5660 -1.0434
  190SLPC   H6S21962   6.872   2.719   7.387 -1.4280  0.5904  0.3976
  190SLPC   C2721963   6.904   2.512   7.411  0.4462 -0.1856  0.5195
  190SLPC   H7R21964   7.008   2.515   7.374  0.6861 -2.3072  0.9647
  190SLPC   H7S21965   6.878   2.410   7.378 -0.7498 -0.0300  0.9406
  190SLPC   C2821966   6.900   2.518   7.568  0.1500  0.6803 -0.4193
  190SLPC   H8R21967   6.795   2.491   7.595 -0.2070  1.0131 -1.4477
  190SLPC   H8S21968   6.922   2.623   7.599 -2.5471  0.8009  1.3312
  190SLPC   C2921969   6.999   2.423   7.627 -0.3376 -0.4228 -0.6278
  190SLPC   H9R21970   7.030   2.338   7.564 -2.4470  0.8301 -3.4723
  190SLPC  C21021971   7.047   2.434   7.752 -0.2900 -0.4393 -0.2985
  190SLPC  H10R21972   7.107   2.353   7.796 -0.0344 -0.5611 -0.8674
  190SLPC  C21121973   7.001   2.546   7.850 -0.0498 -0.2756 -0.5519
  190SLPC  H11R21974   6.900   2.522   7.891  1.3302 -1.4591  2.2464
  190SLPC  H11S21975   6.997   2.645   7.800  0.1065  0.3889  0.7417
  190SLPC  C21221976   7.097   2.557   7.960 -0.7350 -0.2535  0.2254
  190SLPC  H12R21977   7.195   2.593   7.925 -1.3935  1.3243 -0.0469
  190SLPC  C21321978   7.074   2.556   8.091  0.5684 -0.8341  0.1545
  190SLPC  H13R21979   7.163   2.568   8.154 -0.5741  0.3092  1.5878
  190SLPC  C21421980   6.944   2.528   8.169  0.3344  1.2533  0.2268
  190SLPC  H14R21981   6.872   2.489   8.094  0.6077  1.8859 -0.3784
  190SLPC  H14S21982   6.909   2.625   8.212  3.1458  0.4886  4.5500
  190SLPC  C21521983   6.964   2.430   8.287  0.1677 -1.0562 -0.0793
  190SLPC  H15R21984   7.014   2.489   8.367 -0.0053 -0.8000 -0.1582
  190SLPC  H15S21985   7.024   2.348   8.243  1.9898  0.5818 -0.7295
  190SLPC  C21621986   6.832   2.381   8.352 -0.1110  0.0373 -1.2713
  190SLPC  H16R21987   6.789   2.298   8.292  0.0775 -0.4059 -0.7927
  190SLPC  H16S21988   6.766   2.469   8.337  0.7915  0.3472 -3.6816
  190SLPC  C21721989   6.848   2.332   8.494 -0.1306  0.0917 -0.1488
  190SLPC  H17R21990   6.747   2.321   8.539  0.1002  0.6068  0.5202
  190SLPC  H17S21991   6.899   2.411   8.553 -0.7591 -0.6150  1.3824
  190SLPC  C21821992   6.923   2.195   8.523  1.0411 -0.3323  0.0656
  190SLPC  H18R21993   6.891   2.116   8.452  0.5406 -0.5345  0.5081
  190SLPC  H18S21994   6.909   2.173   8.631 -1.6177  3.9424  0.7122
  190SLPC  H18T21995   7.032   2.202   8.503  1.3070 -0.7712  1.3016
  190SLPC   C3321996   6.181   2.598   6.803 -0.5132 -0.3757  0.8904
  190SLPC   H3X21997   6.222   2.699   6.819 -0.6589  0.1166 -1.6130
  190SLPC   H3Y21998   6.261   2.530   6.839 -1.9652 -2.1411  0.8709
  190SLPC   C3421999   6.058   2.578   6.886 -0.3048 -0.4104 -0.5506
  190SLPC   H4X22000   6.029   2.477   6.849  0.5297 -0.5608 -0.7961
  190SLPC   H4Y22001   5.972   2.643   6.860 -0.1730  0.1592  0.4226
  190SLPC   C3522002   6.084   2.589   7.039  0.5540  0.2110  0.4554
  190SLPC   H5X22003   6.114   2.694   7.060  0.3225  0.3989 -0.1434
  190SLPC   H5Y22004   6.171   2.523   7.058 -0.1514 -0.8870 -0.0266
  190SLPC   C3622005   5.960   2.548   7.127 -0.6927 -0.1473  0.3473
  190SLPC   H6X22006   5.944   2.439   7.115 -0.1537 -0.1959  0.0087
  190SLPC   H6Y22007   5.871   2.602   7.089 -0.8792  0.5034  1.6585
  190SLPC   C3722008   5.965   2.581   7.273  0.7470 -1.0947 -0.1337
  190SLPC   H7X22009   5.874   2.547   7.327  2.0678  0.8142  3.4132
  190SLPC   H7Y22010   5.963   2.692   7.284 -2.8834 -1.3214  2.1640
  190SLPC   C3822011   6.080   2.517   7.343  0.7664  0.0652  0.0887
  190SLPC   H8X22012   6.178   2.539   7.296  1.3299  1.7037  1.9211
  190SLPC   H8Y22013   6.075   2.406   7.341 -1.4144  0.1462 -3.8219
  190SLPC   C3922014   6.098   2.560   7.493 -0.6964  0.1842  0.6432
  190SLPC   H9X22015   6.121   2.669   7.496 -1.1656  0.4390 -2.8690
  190SLPC   H9Y22016   6.197   2.518   7.523 -0.8614 -0.7054 -0.0240
  190SLPC  C31022017   5.977   2.512   7.575 -0.0094  0.5008 -0.1150
  190SLPC  H10X22018   5.939   2.414   7.540  3.5922 -0.1422 -2.5309
  190SLPC  H10Y22019   5.899   2.591   7.569 -1.5617 -0.7394  2.6165
  190SLPC  C31122020   5.996   2.511   7.730 -0.0720  0.7351 -0.4133
  190SLPC  H11X22021   5.906   2.472   7.782  1.4531 -1.7662  0.4915
  190SLPC  H11Y22022   5.995   2.621   7.746 -1.4228  0.5228  1.1418
  190SLPC  C31222023   6.113   2.438   7.796 -0.1855 -0.0036  0.1542
  190SLPC  H12X22024   6.206   2.473   7.746 -0.8465  1.9913  0.2756
  190SLPC  H12Y22025   6.102   2.327   7.798 -0.6145  0.0741  3.6015
  190SLPC  C31322026   6.129   2.474   7.940 -0.1930  0.2332 -0.1470
  190SLPC  H13X22027   6.046   2.439   8.004  1.4902 -0.9294  1.4748
  190SLPC  H13Y22028   6.130   2.583   7.962 -1.5742  0.1070  0.5330
  190SLPC  C31422029   6.251   2.410   8.012  0.0664  0.1759 -0.3810
  190SLPC  H14X22030   6.337   2.404   7.943 -1.9174 -1.7654 -2.7938
  190SLPC  H14Y22031   6.228   2.304   8.038  1.6657 -0.3318 -1.0025
  190SLPC  C31522032   6.285   2.489   8.144  0.3379  0.5537  0.1880
  190SLPC  H15X22033   6.280   2.599   8.128 -0.5957  0.5554  0.4635
  190SLPC  H15Y22034   6.390   2.464   8.169  0.2452  1.4639  1.5416
  190SLPC  C31622035   6.193   2.464   8.263  0.6891 -0.5298  0.0818
  190SLPC  H16X22036   6.202   2.360   8.301 -0.3659 -0.4428  0.5661
  190SLPC  H16Y22037   6.093   2.495   8.226 -1.3862 -3.3828  3.0846
  190SLPC  C31722038   6.242   2.563   8.371 -0.6331 -0.1164 -0.3414
  190SLPC  H17X22039   6.352   2.576   8.369 -0.8480  1.8177 -0.7577
  190SLPC  H17Y22040   6.210   2.521   8.469  0.9697 -1.3995 -0.3504
  190SLPC  C31822041   6.177   2.701   8.363  0.0151 -0.0420  0.2264
  190SLPC  H18X22042   6.198   2.762   8.453  2.3241  0.7176 -0.8000
  190SLPC  H18Y22043   6.067   2.695   8.346  0.0847 -0.1517 -0.1917
  190SLPC  H18Z22044   6.217   2.745   8.269  0.6804  1.3714  1.1451
  191SLPC     N22045   5.365   4.961   5.815  0.0502  0.0079  0.1879
  191SLPC   C1322046   5.476   4.937   5.715  0.1579  0.3293 -0.4300
  191SLPC  H13A22047   5.512   4.835   5.726 -2.1342 -0.6524 -1.7698
  191SLPC  H13B22048   5.440   4.947   5.614 -0.9014 -0.3503 -0.1281
  191SLPC  H13C22049   5.552   5.010   5.737  1.1775 -0.5331 -1.0114
  191SLPC   C1422050   5.416   4.938   5.950  0.3927 -0.2633  0.2171
  191SLPC  H14A22051   5.347   4.968   6.028 -1.2986 -0.9942 -0.9770
  191SLPC  H14B22052   5.431   4.831   5.943  0.6093 -0.3692  2.0696
  191SLPC  H14C22053   5.513   4.983   5.965 -0.1026  0.5416  1.0426
  191SLPC   C1522054   5.258   4.856   5.779 -0.2680 -0.2945 -0.3692
  191SLPC  H15A22055   5.235   4.869   5.674  0.4029  1.4918 -0.3136
  191SLPC  H15B22056   5.284   4.759   5.816 -0.4276 -0.9385 -1.9194
  191SLPC  H15C22057   5.173   4.873   5.843  0.0304 -1.3336  0.3022
  191SLPC   C1222058   5.318   5.101   5.795 -0.9991  0.0691  0.7961
  191SLPC  H12A22059   5.225   5.106   5.850 -1.3825  1.4233  0.0488
  191SLPC  H12B22060   5.294   5.123   5.692  1.3690  0.3076  0.2523
  191SLPC   C1122061   5.421   5.218   5.844 -0.5354  0.0001  0.0875
  191SLPC  H11A22062   5.442   5.220   5.953 -0.1639 -1.6704  0.0656
  191SLPC  H11B22063   5.367   5.311   5.817 -1.8894 -0.5035  1.0612
  191SLPC     P22064   5.684   5.202   5.838  0.5767 -0.0927 -0.3220
  191SLPC   O1322065   5.775   5.137   5.740 -0.3000 -0.2295  0.1719
  191SLPC   O1422066   5.719   5.340   5.878 -0.4526 -0.5461 -0.1871
  191SLPC   O1222067   5.543   5.217   5.769  0.5036 -0.0176  0.6973
  191SLPC   O1122068   5.673   5.105   5.957 -0.3438  0.2147  0.4232
  191SLPC    C122069   5.762   4.995   5.987 -0.1542 -0.3569  0.1963
  191SLPC    HA22070   5.742   4.911   5.916 -0.1390  0.6441 -1.0001
  191SLPC    HB22071   5.869   5.026   5.982 -0.4621  0.5788 -0.7284
  191SLPC    C222072   5.734   4.952   6.138 -0.1849 -0.4712 -0.3862
  191SLPC    HS22073   5.636   4.901   6.150  0.0453 -0.5630  1.3196
  191SLPC   O2122074   5.741   5.070   6.220 -0.1267  0.1160  0.3850
  191SLPC   C2122075   5.654   5.075   6.313 -0.7256 -0.6941 -0.0535
  191SLPC   O2222076   5.563   4.993   6.337 -0.5973  0.0829  0.1784
  191SLPC   C2222077   5.673   5.202   6.391  0.0749  0.5413  0.2090
  191SLPC   H2R22078   5.772   5.187   6.439  0.6395  0.2988 -1.0284
  191SLPC   H2S22079   5.685   5.292   6.326  2.9935  0.1697  0.1862
  191SLPC    C322080   5.830   4.842   6.174  0.2151  0.1313  0.1508
  191SLPC    HX22081   5.932   4.887   6.171  0.4731 -0.5173 -0.7327
  191SLPC    HY22082   5.822   4.769   6.092  2.0887 -0.0814  0.1443
  191SLPC   O3122083   5.799   4.785   6.305 -0.1690  0.3074  0.2068
  191SLPC   C3122084   5.871   4.827   6.404 -0.2043  0.1628  0.2222
  191SLPC   O3222085   5.939   4.929   6.407 -0.5270 -0.4476  0.1218
  191SLPC   C3222086   5.865   4.722   6.515 -0.3480  0.0007  0.2553
  191SLPC   H2X22087   5.973   4.719   6.541 -0.3335  0.4895  0.2534
  191SLPC   H2Y22088   5.850   4.617   6.482 -0.2753  0.1320 -0.2030
  191SLPC   C2322089   5.582   5.227   6.511  0.4060 -0.7927  0.2148
  191SLPC   H3R22090   5.478   5.193   6.493 -0.0722 -0.5743  2.4810
  191SLPC   H3S22091   5.585   5.335   6.535 -0.1212  0.1330 -3.5660
  191SLPC   C2422092   5.621   5.152   6.636 -0.5808  0.5962 -0.1257
  191SLPC   H4R22093   5.720   5.181   6.677  0.1044  0.2891 -1.5344
  191SLPC   H4S22094   5.631   5.041   6.631  3.1470  0.7680  1.8797
  191SLPC   C2522095   5.525   5.173   6.758 -0.0715  0.2232  0.0520
  191SLPC   H5R22096   5.432   5.120   6.729  0.2775 -0.3412 -0.0475
  191SLPC   H5S22097   5.507   5.283   6.760  2.1652  0.6222 -0.5416
  191SLPC   C2622098   5.559   5.123   6.893  0.0077 -0.5526  0.4993
  191SLPC   H6R22099   5.660   5.164   6.913  0.0384  0.0329 -0.7993
  191SLPC   H6S22100   5.572   5.012   6.892  1.4178 -0.4009  0.4984
  191SLPC   C2722101   5.459   5.162   7.000 -0.4737  0.3287 -0.3486
  191SLPC   H7R22102   5.358   5.119   6.984 -1.0374  2.2581 -2.2998
  191SLPC   H7S22103   5.452   5.272   6.984 -2.1624  0.3550  0.4914
  191SLPC   C2822104   5.512   5.120   7.141  0.2671 -0.1838  0.3886
  191SLPC   H8R22105   5.616   5.157   7.157  0.4792 -0.3196 -0.6339
  191SLPC   H8S22106   5.512   5.010   7.128 -0.0857 -0.0052 -1.2719
  191SLPC   C2922107   5.412   5.156   7.241  0.0071  0.8178 -0.0891
  191SLPC   H9R22108   5.309   5.167   7.203 -0.8101  0.0494  1.8505
  191SLPC  C21022109   5.433   5.188   7.370  0.0676  0.5340 -0.3922
  191SLPC  H10R22110   5.339   5.217   7.419 -0.1878  0.5796 -0.9065
  191SLPC  C21122111   5.565   5.198   7.446 -0.1567  0.4335  0.5520
  191SLPC  H11R22112   5.641   5.245   7.381 -0.0451  0.6622  0.8491
  191SLPC  H11S22113   5.602   5.096   7.471 -1.3362  0.2848  1.7653
  191SLPC  C21222114   5.548   5.273   7.574 -0.2086 -0.0088 -0.7373
  191SLPC  H12R22115   5.484   5.360   7.553 -1.4210 -0.8962 -0.7548
  191SLPC  C21322116   5.591   5.263   7.700 -0.1828  0.3114 -0.8340
  191SLPC  H13R22117   5.563   5.342   7.771  0.1381  0.3482 -0.7437
  191SLPC  C21422118   5.687   5.153   7.749  0.8766 -0.2390  0.2024
  191SLPC  H14R22119   5.789   5.183   7.716  0.0887  2.2966 -0.0961
  191SLPC  H14S22120   5.661   5.058   7.698  0.9565  0.0404 -0.3658
  191SLPC  C21522121   5.682   5.130   7.900 -0.4292 -0.0281  0.4569
  191SLPC  H15R22122   5.763   5.057   7.918 -2.1314 -2.3937 -1.1658
  191SLPC  H15S22123   5.583   5.092   7.934 -0.1823 -0.7895  0.3321
  191SLPC  C21622124   5.713   5.253   7.982  0.1388 -0.1585  0.6910
  191SLPC  H16R22125   5.627   5.322   7.995 -0.1729 -0.4521  0.1602
  191SLPC  H16S22126   5.796   5.307   7.932  1.2596 -3.1985 -0.8650
  191SLPC  C21722127   5.755   5.221   8.129 -0.6707  0.7396  0.3772
  191SLPC  H17R22128   5.837   5.146   8.130 -2.6665 -1.5068 -0.9420
  191SLPC  H17S22129   5.665   5.180   8.178 -2.0699  4.6541  1.2502
  191SLPC  C21822130   5.814   5.342   8.199  0.4083  0.6468  0.1847
  191SLPC  H18R22131   5.906   5.377   8.146  0.3351  0.3717 -0.1249
  191SLPC  H18S22132   5.844   5.310   8.302 -1.7045 -0.5452  0.4427
  191SLPC  H18T22133   5.745   5.429   8.204 -1.0945 -0.5567  0.4911
  191SLPC   C3322134   5.772   4.763   6.627  0.5964  0.5272 -0.0977
  191SLPC   H3X22135   5.669   4.734   6.597  0.7008 -0.6968  0.7077
  191SLPC   H3Y22136   5.765   4.873   6.640 -1.3987  0.3758  0.2729
  191SLPC   C3422137   5.813   4.721   6.767  0.4699  0.1612  0.3745
  191SLPC   H4X22138   5.837   4.613   6.759 -0.8706 -0.1069 -0.2433
  191SLPC   H4Y22139   5.721   4.729   6.829  0.2513 -1.0864  0.2309
  191SLPC   C3522140   5.918   4.824   6.827  0.4788  0.0205  0.5206
  191SLPC   H5X22141   5.879   4.928   6.832  1.7286  0.6478 -2.0698
  191SLPC   H5Y22142   6.004   4.812   6.758 -1.0000 -2.7623 -0.9037
  191SLPC   C3622143   5.957   4.785   6.965 -0.8013 -0.3591 -0.2627
  191SLPC   H6X22144   6.040   4.854   6.994  1.6120 -2.0033 -3.0488
  191SLPC   H6Y22145   6.008   4.687   6.978  2.5164  1.4975  1.6796
  191SLPC   C3722146   5.846   4.802   7.058 -0.2538  0.8505 -0.4222
  191SLPC   H7X22147   5.765   4.731   7.030 -0.2013  0.2884  0.8350
  191SLPC   H7Y22148   5.806   4.905   7.043 -1.2458  0.5273 -0.0120
  191SLPC   C3822149   5.889   4.778   7.201 -0.2317 -0.8145 -0.1254
  191SLPC   H8X22150   5.965   4.855   7.228 -1.4085  0.0636  0.7343
  191SLPC   H8Y22151   5.941   4.681   7.219  0.3217 -0.3875  0.6194
  191SLPC   C3922152   5.772   4.800   7.303  0.2036 -0.4735  0.1073
  191SLPC   H9X22153   5.677   4.756   7.266 -0.6323  0.9030  0.5800
  191SLPC   H9Y22154   5.760   4.911   7.299 -1.0090 -0.5579  1.1752
  191SLPC  C31022155   5.802   4.765   7.442 -0.0408 -0.4751  0.6938
  191SLPC  H10X22156   5.851   4.666   7.449 -2.6809 -2.1466 -2.7094
  191SLPC  H10Y22157   5.711   4.753   7.504 -1.3840  0.6584 -0.9913
  191SLPC  C31122158   5.910   4.866   7.491  0.4743  0.0595  0.4292
  191SLPC  H11X22159   5.862   4.965   7.501 -0.1405 -0.3800  1.9297
  191SLPC  H11Y22160   5.995   4.880   7.421  0.5228 -0.6439  0.3450
  191SLPC  C31222161   5.969   4.817   7.625  0.5961 -0.1586  0.3092
  191SLPC  H12X22162   6.007   4.715   7.603 -1.8451 -1.1780  0.6502
  191SLPC  H12Y22163   5.893   4.814   7.707  0.6078 -1.1856  0.2838
  191SLPC  C31322164   6.071   4.920   7.665  0.7361  0.1508  0.2088
  191SLPC  H13X22165   6.012   5.014   7.657 -0.9690 -0.9624 -0.6423
  191SLPC  H13Y22166   6.153   4.915   7.590  1.8461  1.1567  1.3425
  191SLPC  C31422167   6.113   4.902   7.809 -0.3728 -0.4958 -0.1396
  191SLPC  H14X22168   6.144   4.795   7.800  0.4976  0.1131 -6.0072
  191SLPC  H14Y22169   6.024   4.906   7.876 -0.3333 -1.4224 -0.0215
  191SLPC  C31522170   6.207   5.005   7.861 -0.1762 -0.8276  1.3966
  191SLPC  H15X22171   6.170   5.109   7.852  1.2748 -0.4995 -1.2214
  191SLPC  H15Y22172   6.308   5.007   7.815 -0.6073  1.6316  0.4694
  191SLPC  C31622173   6.239   4.986   8.012  0.0356  0.0999  0.2549
  191SLPC  H16X22174   6.304   5.066   8.052 -1.1632  1.6571 -0.8567
  191SLPC  H16Y22175   6.284   4.884   8.018  1.1513  0.5337 -0.6730
  191SLPC  C31722176   6.099   4.987   8.092 -0.0288  0.2663 -0.4986
  191SLPC  H17X22177   6.050   4.888   8.084  0.8602 -0.3944  1.7283
  191SLPC  H17Y22178   6.039   5.071   8.052 -0.0257  0.9905  0.9619
  191SLPC  C31822179   6.120   5.026   8.245 -0.1036  0.5056  0.0255
  191SLPC  H18X22180   6.194   4.961   8.297 -0.2902 -1.8172 -2.5007
  191SLPC  H18Y22181   6.019   5.033   8.292 -0.7203  1.0076 -1.3559
  191SLPC  H18Z22182   6.173   5.123   8.241  2.0918 -0.6965 -0.5498
  192SLPC     N22183   0.012   5.948   5.931 -0.1425 -0.0949  0.6371
  192SLPC   C1322184  -0.048   5.942   5.794 -0.1673 -0.1642 -0.2709
  192SLPC  H13A22185   0.030   5.930   5.720 -1.0813  2.4762 -1.7192
  192SLPC  H13B22186  -0.111   5.856   5.781  1.0191 -0.8477 -1.5229
  192SLPC  H13C22187  -0.102   6.033   5.771  2.6108  1.6109 -0.0755
  192SLPC   C1422188   0.114   6.056   5.930 -0.6777 -0.7905  0.2290
  192SLPC  H14A22189   0.161   6.054   6.027  0.9439  1.4880 -0.4783
  192SLPC  H14B22190   0.187   6.041   5.853  0.8930  4.1250  0.6335
  192SLPC  H14C22191   0.090   6.160   5.915 -0.7904 -1.0467 -1.4602
  192SLPC   C1522192   0.079   5.814   5.953 -0.3307 -0.3460  0.0917
  192SLPC  H15A22193   0.098   5.808   6.059  1.8577  0.3584 -0.2449
  192SLPC  H15B22194   0.026   5.727   5.917 -0.3833 -0.2461 -0.0714
  192SLPC  H15C22195   0.177   5.813   5.908 -0.0162 -2.6233  0.7400
  192SLPC   C1222196  -0.098   5.980   6.038  0.1889  0.0352 -0.0317
  192SLPC  H12A22197  -0.173   5.903   6.026 -0.3891  0.7236 -0.8830
  192SLPC  H12B22198  -0.155   6.065   6.005  0.8036  0.1438 -0.8267
  192SLPC   C1122199  -0.051   6.009   6.179  0.6272  0.4244 -0.1839
  192SLPC  H11A22200  -0.146   6.023   6.234  0.4445 -0.7789 -0.1921
  192SLPC  H11B22201   0.005   6.104   6.169  0.6815  0.7444  2.7097
  192SLPC     P22202   0.164   5.932   6.311  0.1383  0.3328 -0.3023
  192SLPC   O1322203   0.215   5.810   6.375 -0.3550  0.7242  0.2805
  192SLPC   O1422204   0.268   5.980   6.219  0.4452  0.2880 -0.0906
  192SLPC   O1222205   0.027   5.904   6.236 -0.4338  0.1787 -0.0539
  192SLPC   O1122206   0.137   6.045   6.421  0.1368  0.3090  0.1443
  192SLPC    C122207   0.040   6.026   6.527 -0.6033 -0.2983 -0.0700
  192SLPC    HA22208   0.004   6.126   6.558  0.5392  0.2032 -0.3121
  192SLPC    HB22209  -0.042   5.961   6.490 -1.4742  0.3700  0.6677
  192SLPC    C222210   0.109   5.969   6.654  0.4993 -0.0464 -0.4473
  192SLPC    HS22211   0.137   5.866   6.624 -0.3832 -0.8876  1.5863
  192SLPC   O2122212   0.017   5.976   6.762 -0.4406 -1.0149  0.2488
  192SLPC   C2122213  -0.064   5.870   6.775  0.2680 -0.0323 -0.0730
  192SLPC   O2222214  -0.072   5.777   6.696  0.2772  0.1164 -0.1655
  192SLPC   C2222215  -0.154   5.879   6.904  0.4348 -0.2305  0.3391
  192SLPC   H2R22216  -0.192   5.981   6.922  0.5797  0.0320 -0.7845
  192SLPC   H2S22217  -0.236   5.805   6.891  0.5606 -0.5558  1.3403
  192SLPC    C322218   0.236   6.051   6.701  0.6370  0.3572 -0.2263
  192SLPC    HX22219   0.201   6.155   6.720  2.1556  0.2498  3.4656
  192SLPC    HY22220   0.309   6.050   6.618  0.5136  0.2984 -0.3345
  192SLPC   O3122221   0.299   6.004   6.822  0.3458 -0.3462  0.2793
  192SLPC   C3122222   0.345   5.885   6.811 -0.0675 -0.6334 -0.1386
  192SLPC   O3222223   0.364   5.826   6.705 -0.8120  0.3000  0.6996
  192SLPC   C3222224   0.372   5.834   6.947 -0.0150  0.6084  0.2528
  192SLPC   H2X22225   0.480   5.810   6.940  0.1374  1.6517 -1.2848
  192SLPC   H2Y22226   0.320   5.738   6.965  1.3764 -0.3088 -0.4915
  192SLPC   C2322227  -0.072   5.831   7.033  0.3253  0.4123 -0.2190
  192SLPC   H3R22228   0.014   5.899   7.053 -0.7307  0.7092  3.7271
  192SLPC   H3S22229  -0.025   5.732   7.016 -1.2807 -0.7332  1.7912
  192SLPC   C2422230  -0.164   5.828   7.159 -0.0039  0.9632 -0.2093
  192SLPC   H4R22231  -0.255   5.766   7.150  0.9684 -0.3812 -0.9630
  192SLPC   H4S22232  -0.200   5.933   7.150 -2.0290  0.3278  0.2078
  192SLPC   C2522233  -0.093   5.796   7.287 -0.4979  0.8843 -0.0631
  192SLPC   H5R22234   0.012   5.831   7.291 -0.6010  1.4662 -2.1045
  192SLPC   H5S22235  -0.083   5.685   7.290 -3.9189  0.5070 -0.0738
  192SLPC   C2622236  -0.179   5.834   7.409  0.1054 -0.4145  0.2948
  192SLPC   H6R22237  -0.284   5.800   7.394  0.0056  0.8990 -2.2617
  192SLPC   H6S22238  -0.187   5.943   7.424 -1.2041 -0.5273  0.4388
  192SLPC   C2722239  -0.126   5.780   7.536 -0.6510  0.4778 -0.1856
  192SLPC   H7R22240  -0.030   5.835   7.542 -0.4539  0.0029  1.2890
  192SLPC   H7S22241  -0.116   5.669   7.530  1.6066  0.8072 -3.6300
  192SLPC   C2822242  -0.219   5.809   7.659 -0.1343 -0.6043 -0.0234
  192SLPC   H8R22243  -0.326   5.783   7.644 -0.1534 -0.5200 -0.0373
  192SLPC   H8S22244  -0.223   5.920   7.664 -2.7190 -0.6737  0.1712
  192SLPC   C2922245  -0.157   5.757   7.789 -0.6307  0.9803 -0.6667
  192SLPC   H9R22246  -0.058   5.709   7.781 -1.8693 -1.8972  0.5519
  192SLPC  C21022247  -0.227   5.763   7.906  0.4481 -0.0134  0.9178
  192SLPC  H10R22248  -0.185   5.714   7.995  1.2842  0.0950  0.5833
  192SLPC  C21122249  -0.366   5.816   7.924 -0.3618 -1.1370 -0.1986
  192SLPC  H11R22250  -0.443   5.736   7.928 -2.2339  0.7303  2.5453
  192SLPC  H11S22251  -0.393   5.867   7.829  1.6591 -0.4295 -0.4180
  192SLPC  C21222252  -0.371   5.917   8.036 -0.4551  0.0676 -0.0390
  192SLPC  H12R22253  -0.430   5.881   8.121  0.5220 -2.6903 -0.4790
  192SLPC  C21322254  -0.318   6.040   8.049 -1.3628  0.0930  0.5136
  192SLPC  H13R22255  -0.328   6.097   8.142  0.2664  0.3681  0.5430
  192SLPC  C21422256  -0.232   6.102   7.945  0.3878 -0.1302  0.3218
  192SLPC  H14R22257  -0.196   6.028   7.871 -1.7857  0.0543 -0.9547
  192SLPC  H14S22258  -0.141   6.136   7.999  1.3646  0.5252 -1.6960
  192SLPC  C21522259  -0.304   6.226   7.882 -0.1663  0.5691 -0.5978
  192SLPC  H15R22260  -0.380   6.185   7.812 -2.0586 -0.6022  2.0963
  192SLPC  H15S22261  -0.232   6.273   7.811 -0.2180  0.4039 -0.7635
  192SLPC  C21622262  -0.379   6.330   7.973  0.6777  0.2544  0.3581
  192SLPC  H16R22263  -0.312   6.372   8.052 -0.2924  1.7906  0.3801
  192SLPC  H16S22264  -0.461   6.269   8.015 -1.7798  0.5875 -3.7488
  192SLPC  C21722265  -0.431   6.445   7.888  0.3699 -0.0342  0.1022
  192SLPC  H17R22266  -0.414   6.539   7.945  1.1636 -0.7736  1.1216
  192SLPC  H17S22267  -0.367   6.457   7.798  0.4301 -1.5458 -0.0591
  192SLPC  C21822268  -0.571   6.436   7.829 -0.4710  0.0681  0.2354
  192SLPC  H18R22269  -0.593   6.500   7.741 -1.0497  0.1020  0.3990
  192SLPC  H18S22270  -0.652   6.443   7.905  0.3608 -2.1281  1.3547
  192SLPC  H18T22271  -0.581   6.331   7.794 -0.3290  0.5791 -1.3618
  192SLPC   C3322272   0.337   5.933   7.060  0.0667  0.1920  0.1059
  192SLPC   H3X22273   0.228   5.955   7.052  0.3857  1.2104 -1.5259
  192SLPC   H3Y22274   0.399   6.023   7.044 -1.2162  1.0332 -0.1582
  192SLPC   C3422275   0.365   5.886   7.201  0.1777 -1.3863 -1.1220
  192SLPC   H4X22276   0.475   5.885   7.213  0.2789  1.1704 -1.5441
  192SLPC   H4Y22277   0.338   5.779   7.216 -1.6219 -0.7517  0.3098
  192SLPC   C3522278   0.304   5.969   7.307 -0.0110 -0.2821 -0.7377
  192SLPC   H5X22279   0.193   5.970   7.299 -0.0197  0.8788 -0.4825
  192SLPC   H5Y22280   0.322   6.077   7.289  1.0349  0.4337  4.0274
  192SLPC   C3622281   0.352   5.930   7.452 -0.4709 -0.6536  0.5270
  192SLPC   H6X22282   0.462   5.944   7.458 -0.5654  0.7419 -0.7301
  192SLPC   H6Y22283   0.333   5.822   7.473 -1.2183 -0.1857  2.3903
  192SLPC   C3722284   0.276   6.017   7.551  0.2109 -0.2312  0.2371
  192SLPC   H7X22285   0.166   6.000   7.560  0.1760 -0.1668 -0.0388
  192SLPC   H7Y22286   0.291   6.125   7.527  1.2334 -0.4628 -0.1841
  192SLPC   C3822287   0.315   6.001   7.702 -0.2490 -0.3566 -0.4648
  192SLPC   H8X22288   0.256   6.077   7.758 -2.9734 -2.4803 -0.3261
  192SLPC   H8Y22289   0.423   6.025   7.696 -0.1345 -0.0193  2.3466
  192SLPC   C3922290   0.289   5.861   7.753  0.0828 -0.0716  0.9173
  192SLPC   H9X22291   0.383   5.801   7.751 -1.0957 -1.9270 -1.0470
  192SLPC   H9Y22292   0.203   5.818   7.697  1.1766  0.6166 -1.3877
  192SLPC  C31022293   0.247   5.873   7.900  0.1018 -0.1943  0.6821
  192SLPC  H10X22294   0.217   5.774   7.940 -1.6338 -0.7485 -1.8697
  192SLPC  H10Y22295   0.161   5.941   7.915  0.7612  1.3759 -2.1917
  192SLPC  C31122296   0.358   5.924   7.986  0.3026 -0.3728  0.0924
  192SLPC  H11X22297   0.400   6.025   7.965 -2.2111  0.9170  1.1758
  192SLPC  H11Y22298   0.442   5.852   7.969  0.7491 -0.6379  3.1433
  192SLPC  C31222299   0.314   5.929   8.139  0.2004  0.4057 -0.1154
  192SLPC  H12X22300   0.267   5.831   8.163  2.7589 -0.3962  1.8241
  192SLPC  H12Y22301   0.238   6.010   8.141 -0.2423  0.0335 -1.1032
  192SLPC  C31322302   0.435   5.944   8.231 -0.0672 -1.0651 -0.2739
  192SLPC  H13X22303   0.476   6.047   8.233 -1.0949 -0.6001 -1.9774
  192SLPC  H13Y22304   0.519   5.878   8.202  1.0109 -0.2453  0.9415
  192SLPC  C31422305   0.385   5.917   8.376 -0.4521  0.2523  0.2844
  192SLPC  H14X22306   0.332   5.819   8.369  0.1909 -0.0319 -0.7301
  192SLPC  H14Y22307   0.316   5.996   8.411  0.2195  0.6376  0.7520
  192SLPC  C31522308   0.506   5.916   8.474  0.7873  0.6282  0.2133
  192SLPC  H15X22309   0.576   6.002   8.474  0.6224  0.7734  1.9992
  192SLPC  H15Y22310   0.563   5.823   8.455 -0.7085 -0.1578 -0.5162
  192SLPC  C31622311   0.469   5.906   8.623  0.3766  0.4209 -0.9089
  192SLPC  H16X22312   0.402   5.818   8.630  1.2388 -0.3542 -2.3779
  192SLPC  H16Y22313   0.413   6.001   8.640  0.8706  0.8823 -1.8417
  192SLPC  C31722314   0.591   5.902   8.720  0.2889  0.1841 -0.2150
  192SLPC  H17X22315   0.644   5.998   8.699 -0.8558  0.6827 -0.8876
  192SLPC  H17Y22316   0.666   5.823   8.699  1.4792  1.1418  0.3841
  192SLPC  C31822317   0.550   5.895   8.867 -0.2237  0.0736  0.1758
  192SLPC  H18X22318   0.465   5.963   8.888  1.0857  1.8422 -0.2168
  192SLPC  H18Y22319   0.635   5.927   8.930 -0.2796  0.1971  0.1857
  192SLPC  H18Z22320   0.521   5.790   8.889 -0.6597  0.4471  1.4021
  193SOD    SOD22321   5.559   0.237  15.368 -0.5444  0.0374 -0.2058
  194SOD    SOD22322   6.475   0.803   0.629 -0.0592  0.0014 -0.2164
  195SOD    SOD22323   2.006   6.708  15.729 -0.1559  0.1043 -0.4020
  196SOD    SOD22324   5.264   4.099   3.826  0.4168 -0.7407 -0.1366
  197SOD    SOD22325   1.498   0.762  16.106  0.2424 -0.1461 -0.0065
  198SOD    SOD22326   0.994   0.810   4.008 -0.0137 -0.3725 -0.5271
  199SOD    SOD22327   1.353   3.783   2.924 -0.2135  0.2534 -0.0837
  200SOD    SOD22328   3.144   0.950  11.997  0.1492 -0.2900  0.0144
  201SOD    SOD22329   0.802   6.787  16.590  0.1583 -0.2448  0.3471
  202SOD    SOD22330   3.722   4.424  16.034 -0.0075  0.3341 -0.3737
  203SOD    SOD22331   1.211   6.765   2.700  0.2826 -0.3749 -0.3471
  204SOD    SOD22332   1.891   4.823  11.160 -0.1002  0.4158 -0.2662
  205SOD    SOD22333   2.178   5.675   3.741 -0.1094 -0.2492  0.1657
  206SOD    SOD22334   1.517   2.963  13.434 -0.4337 -0.4339  0.1486
  207SOD    SOD22335   0.778   2.507  13.235  0.3636 -0.0733  0.2258
  208SOD    SOD22336   5.674   1.385  11.880  0.7605  0.6675 -0.0018
  209SOD    SOD22337   2.123   4.932  13.170  0.3824 -0.5704  0.2904
  210SOD    SOD22338   4.079   6.130   5.742  0.4769  0.1761  0.4982
  211SOD    SOD22339   4.567   3.173  10.552 -0.3858 -0.4135  0.2232
  212SOD    SOD22340   2.218   3.344  16.717 -0.2947  0.0243  0.2359
  213SOD    SOD22341   0.501   4.199  12.154  0.7611 -0.1591  0.2006
  214SOD    SOD22342   3.439   6.797   0.223  0.1833  0.1294  0.4865
  215SOD    SOD22343   1.825   2.931   3.227  0.0049 -0.4284 -0.2186
  216SOD    SOD22344   5.228   1.373  14.574  0.2598  0.2792  0.5897
  217SOD    SOD22345   4.057   2.679   2.149  0.8070  0.3934  0.0935
  218SOD    SOD22346   6.523   5.680  10.787  0.0299  0.0664 -0.3882
  219SOD    SOD22347   1.226   2.506  13.969  0.4578  0.0524 -0.2314
  220SOD    SOD22348   6.098   2.245  13.270  0.0501 -0.0056 -0.1533
  221SOD    SOD22349   1.939   1.707  15.911  0.2360  0.8550 -0.1482
  222SOD    SOD22350   0.657   5.864   0.038  0.3505 -0.2414  0.1019
  223SOD    SOD22351   1.875   0.743  12.394 -0.0893  0.4627 -0.6371
  224SOD    SOD22352   1.915   2.858   5.640 -0.1272 -0.0435 -0.0203
  225SOD    SOD22353   3.005   3.237  12.390  0.1883 -0.3483  0.3643
  226SOD    SOD22354   6.313   4.975  10.839  0.6927 -0.1403  0.2340
  227SOD    SOD22355   4.092   6.228  11.218  0.2419 -0.2757  0.0845
  228SOD    SOD22356   6.785   0.501  14.590  0.6231 -0.0389 -0.3066
  229SOD    SOD22357   1.505   0.834  14.975  0.4919  0.4221  0.4089
  230SOD    SOD22358   4.327   3.367  14.183 -0.2159  0.1767  0.1455
  231SOD    SOD22359   4.509   4.021   5.461  0.1767  0.4297 -0.2251
  232SOD    SOD22360   5.105   3.612   5.382 -0.0983  0.2797  0.3374
  233SOD    SOD22361   1.278   1.215  11.099  0.1030 -0.6275 -0.2298
  234SOD    SOD22362   4.032   3.534  11.075  0.0323  0.0426 -0.5927
  235SOD    SOD22363   4.527   2.498  12.713 -0.3224  0.0104  0.3316
  236SOD    SOD22364   0.288   1.658  11.565 -0.3368  0.5063 -0.4304
  237SOD    SOD22365   0.906   4.348  10.787 -0.3118 -0.5840 -0.5284
  238SOD    SOD22366   6.284   4.832  14.153  0.2672  0.0071 -0.2812
  239SOD    SOD22367   0.844   1.709  14.543  0.7927  0.0655  0.2145
  240SOD    SOD22368   3.505   2.793  11.097 -0.2876 -0.0786 -0.2644
  241SOD    SOD22369   5.807   2.862   1.810 -0.1863 -0.0043 -0.6153
  242SOD    SOD22370   6.807   2.052   3.868  0.3230  0.5077 -0.1959
  243SOD    SOD22371   1.257   6.397   4.948 -0.0701 -0.1835  0.1336
  244SOD    SOD22372   6.211   6.419   4.128 -0.2183  0.2414 -0.2294
  245SOD    SOD22373   3.788   1.217  10.770 -0.2289  0.6037 -0.5867
  246SOD    SOD22374   5.684   1.085   4.674 -0.4480 -0.0447  0.2725
  247SOD    SOD22375   4.818   3.600   0.336 -0.1335 -0.0671  0.2448
  248SOD    SOD22376   6.000   3.334  16.143 -0.0227 -0.0423 -0.4931
  249SOD    SOD22377   4.298   0.055   5.393  0.7833  0.0131 -0.2928
  250SOD    SOD22378   5.246   4.500  11.076 -0.5958  0.1788  0.0960
  251SOD    SOD22379   6.539   1.085   6.175 -0.1362 -0.2044 -0.3389
  252SOD    SOD22380   6.030   2.248   5.515 -0.2095  0.1243  0.3639
  253SOD    SOD22381   5.735   2.758   3.014 -0.2601 -0.6593 -0.2750
  254SOD    SOD22382   3.672   4.474  17.098  0.0365 -0.0365  0.6960
  255SOD    SOD22383   6.259   6.711  17.160 -0.7309  0.6123  0.2363
  256SOD    SOD22384   5.731   5.093   0.545 -0.0144  0.2223  0.0222
  257SOD    SOD22385   2.758   1.114   0.412  0.0442  0.1946 -0.2746
  258SOD    SOD22386   0.979   0.211  12.081  0.0284  0.3015  0.1350
  259SOD    SOD22387   0.866   6.258   6.268  0.0519 -0.3215 -0.3788
  260SOD    SOD22388   0.095   4.021   0.928  0.1462 -0.2396  0.0874
  261SOD    SOD22389   5.769   6.595  13.165 -0.2203 -0.1150  0.1737
  262SOD    SOD22390   2.349   6.800   1.819 -0.1472  0.0569  0.3360
  263SOD    SOD22391   0.347   4.966   0.055 -0.2819  0.3844 -0.2220
  264SOD    SOD22392   6.219   4.598   2.814 -0.0966 -0.5024 -0.3260
  265SOD    SOD22393   1.995   3.740   5.680 -0.4498  0.3252 -0.3896
  266CLA    CLA22394   6.628   0.153  13.936  0.0235  0.3208 -0.3041
  267CLA    CLA22395   1.046   0.694  16.004  0.3275 -0.1065  0.1021
  268CLA    CLA22396   5.018   6.024  11.624  0.3445 -0.3865  0.2004
  269CLA    CLA22397   4.253   0.569   2.026  0.2395 -0.0649  0.1503
  270CLA    CLA22398   1.841   1.800  13.811  0.6536  0.0641  0.2346
  271CLA    CLA22399   1.404   4.434   2.772 -0.4976  0.1117 -0.2808
  272CLA    CLA22400   4.595   2.855   1.680 -0.2540 -0.1004  0.1492
  273CLA    CLA22401   1.547   4.282  16.740  0.1534  0.3248 -0.4739
  274CLA    CLA22402   1.422   2.512   1.632 -0.1256  0.2454 -0.0294
  275CLA    CLA22403   5.927   1.315   4.940  0.6478  0.0607  0.1512
  276CLA    CLA22404   6.164   5.979  13.854 -0.1532 -0.0013 -0.4126
  277CLA    CLA22405   5.464   0.570   1.447  0.3014  0.2384  0.2930
  278CLA    CLA22406   5.455   4.520   0.676 -0.5270  0.0526 -0.1792
  279CLA    CLA22407   2.942   6.720   4.830 -0.1865 -0.1713  0.1178
  280CLA    CLA22408   0.442   4.012  16.853 -0.3137  0.0991  0.4899
  281CLA    CLA22409   5.247   0.080   3.845  0.4196  0.5690 -0.4745
  282CLA    CLA22410   0.948   5.007  14.351  0.2117  0.2736  0.0206
  283CLA    CLA22411   4.712   2.869  14.239 -0.0906  0.4475  0.0977
  284CLA    CLA22412   5.726   4.641  15.061  0.6008 -0.0239 -0.3402
  285CLA    CLA22413   2.285   4.991  11.863 -0.6211 -0.4929  0.2014
  286CLA    CLA22414   2.400   2.931  16.999  0.2777  0.1911  0.2032
  287CLA    CLA22415   3.574   2.533   2.340  0.1517  0.0834 -0.2871
  288CLA    CLA22416   6.287   1.850   3.013 -0.3220 -0.1300 -0.3085
  289CLA    CLA22417   5.179   1.160  13.410  0.2059 -0.0685 -0.2931
  290CLA    CLA22418   1.621   2.590   5.030 -0.1314 -0.0097  0.0232
  291CLA    CLA22419   5.583   2.637  15.473 -0.1334  0.0819  0.2136
  292CLA    CLA22420   1.848   6.143   2.254  0.1443  0.3746 -0.3057
  293CLA    CLA22421   0.622   4.731  13.589  0.0880  0.0236 -0.2530
  294CLA    CLA22422   4.641   2.124  12.097  0.2003  0.2207 -0.2367
  295CLA    CLA22423   5.767   0.367  11.681 -0.0607  0.1136 -0.0400
  296CLA    CLA22424   1.312   1.537  16.757  0.1002 -0.3380  0.0807
  297CLA    CLA22425   6.724   1.980  11.670 -0.1839  0.0529 -0.3470
  298CLA    CLA22426   2.867   3.594   2.607 -0.1188 -0.0039 -0.0501
  299CLA    CLA22427   1.756   5.990  15.676  0.1311 -0.1598  0.2341
  300CLA    CLA22428   0.709   2.515  12.740 -0.0354 -0.5699  0.1998
  301CLA    CLA22429   1.469   6.780  16.793 -0.0488  0.2687  0.1312
  302CLA    CLA22430   3.404   0.193   0.069 -0.1833  0.4094  0.0266
  303CLA    CLA22431   3.188   2.363  13.271 -0.5573 -0.0452 -0.3854
  304CLA    CLA22432   4.251   0.112   4.540  0.2201  0.3101 -0.1509
  305CLA    CLA22433   2.841   6.521  15.860  0.0973 -0.0573  0.5841
  306CLA    CLA22434   3.359   2.505  15.418 -0.3477  0.4261 -0.0828
  307CLA    CLA22435   3.414   4.649   0.987  0.3569 -0.2888 -0.3785
  308CLA    CLA22436   1.748   5.971   4.109  0.3578  0.1165  0.3840
  309CLA    CLA22437   4.873   0.721  13.389 -0.6850  0.8300 -0.0294
  310CLA    CLA22438   0.618   1.597  13.525  0.2027 -0.1400  0.0735
  311CLA    CLA22439   5.527   3.685  13.243 -0.2209  0.2848 -0.3074
  312CLA    CLA22440   4.948   3.388   0.503  0.1007  0.1548 -0.4582
  313CLA    CLA22441   4.416   2.911   4.925 -0.0268  0.0787  0.1692
  314CLA    CLA22442   3.074   3.448  16.259  0.1149 -0.3858  0.4901
  315CLA    CLA22443   0.218   4.844   0.939  0.1957  0.1719  0.2078
  316CLA    CLA22444   2.022   6.579  12.527 -0.5084  0.1010  0.4165
  317CLA    CLA22445   3.229   3.931  13.733  0.2789 -0.5069 -0.6372
  318CLA    CLA22446   5.747   5.830   2.770 -0.1477  0.0729  0.0185
  319TIP3   OH222447   1.224   2.331  14.384  0.5256  0.4866 -0.2981
  319TIP3    H122448   1.220   2.236  14.397  0.7318  0.8648  2.9201
  319TIP3    H222449   1.297   2.344  14.325  1.2719 -1.2796  0.1909
  320TIP3   OH222450   2.704   0.615  12.815 -0.4152  0.3544 -0.0047
  320TIP3    H122451   2.638   0.559  12.772  0.0761  0.4950 -0.9522
  320TIP3    H222452   2.681   0.612  12.907 -1.1507 -0.4166 -0.2058
  321TIP3   OH222453   0.110   0.453   3.059  0.2569 -0.1315 -0.0123
  321TIP3    H122454   0.136   0.386   3.122 -0.4584  1.3565  1.9480
  321TIP3    H222455   0.026   0.485   3.092  0.4834  1.5679 -0.9953
  322TIP3   OH222456   4.796   2.788   4.258 -0.3237 -0.0272 -0.4431
  322TIP3    H122457   4.781   2.765   4.166  0.8648 -0.6062 -0.5086
  322TIP3    H222458   4.797   2.884   4.259 -0.1223 -0.0198 -1.0739
  323TIP3   OH222459   1.019   6.391  16.666  0.1004 -0.7754  0.0549
  323TIP3    H122460   1.056   6.330  16.730 -1.0477 -0.0815  1.4100
  323TIP3    H222461   1.075   6.468  16.672 -1.0518 -0.0394  1.5097
  324TIP3   OH222462   0.692   5.702  12.211 -0.4883  0.2298  0.0076
  324TIP3    H122463   0.623   5.647  12.248 -0.6995  0.5340  0.0656
  324TIP3    H222464   0.772   5.649  12.221 -0.3149  0.8736  2.1844
  325TIP3   OH222465   0.690   2.381  13.052 -0.6011  0.7153 -0.1874
  325TIP3    H122466   0.691   2.451  12.987 -0.9733 -1.6668 -2.8328
  325TIP3    H222467   0.734   2.308  13.009 -1.1688 -1.0452  2.1375
  326TIP3   OH222468   0.434   2.845   2.799 -0.6131  0.3158 -0.0234
  326TIP3    H122469   0.417   2.859   2.892  0.1034  1.4398 -0.0436
  326TIP3    H222470   0.399   2.924   2.757 -2.3118 -0.8596 -0.8814
  327TIP3   OH222471   3.567   4.457  14.026 -0.2495  0.2301 -0.6472
  327TIP3    H122472   3.560   4.506  13.944  0.1925  1.0278 -0.2083
  327TIP3    H222473   3.512   4.380  14.012  0.2819  0.0606 -1.9099
  328TIP3   OH222474   0.849   1.963   0.495  0.4133 -0.2887  0.3746
  328TIP3    H122475   0.872   1.888   0.549 -0.0538 -0.5091  0.2682
  328TIP3    H222476   0.818   1.925   0.412 -1.1342 -0.0304  0.8100
  329TIP3   OH222477   2.752   6.137   0.460 -0.6456 -0.1469  0.1408
  329TIP3    H122478   2.690   6.075   0.421  0.6333 -0.8472 -0.8425
  329TIP3    H222479   2.824   6.082   0.492 -1.0403  0.5496  2.2830
  330TIP3   OH222480   1.218   5.989   4.005 -0.1799 -0.1018 -0.3671
  330TIP3    H122481   1.158   6.046   3.956  0.8511  3.2252  2.0529
  330TIP3    H222482   1.300   5.993   3.957 -0.6896 -1.3070 -1.3700
  331TIP3   OH222483   6.508   1.814   3.368  0.3887 -0.1686 -0.2252
  331TIP3    H122484   6.433   1.761   3.342  0.1607  1.2026 -2.5127
  331TIP3    H222485   6.579   1.786   3.311  0.4490  1.4656 -1.0036
  332TIP3   OH222486   3.143   2.893   2.264  0.0809  0.8198  0.0618
  332TIP3    H122487   3.074   2.828   2.273 -0.2799  1.0046 -1.2646
  332TIP3    H222488   3.224   2.843   2.268 -0.1711  0.4109  0.0477
  333TIP3   OH222489   1.782   4.274   5.558 -0.0739  0.0621 -0.3634
  333TIP3    H122490   1.744   4.195   5.595 -2.6660  0.1603 -2.6205
  333TIP3    H222491   1.722   4.344   5.584  1.0507  0.9605 -0.1452
  334TIP3   OH222492   2.004   6.023  12.811  0.2302 -0.4352 -0.5340
  334TIP3    H122493   1.923   6.022  12.862  0.5042  1.5098  0.0077
  334TIP3    H222494   2.072   5.998  12.873  0.4587  1.1669 -0.1064
  335TIP3   OH222495   4.696   1.899  15.818 -0.5128  0.3245  0.4602
  335TIP3    H122496   4.737   1.886  15.904  0.7912  0.5852 -0.1263
  335TIP3    H222497   4.614   1.850  15.824 -1.1957  1.6293  2.4134
  336TIP3   OH222498   0.406   2.962  15.043  0.1147  0.1482  0.0495
  336TIP3    H122499   0.470   3.014  15.091 -0.5856 -0.7703  2.0433
  336TIP3    H222500   0.364   3.025  14.983  1.6185  1.1147 -0.0125
  337TIP3   OH222501   6.593   1.460  11.924 -0.1922  0.6070  0.3114
  337TIP3    H122502   6.511   1.498  11.954 -0.5839  0.6570 -0.7829
  337TIP3    H222503   6.658   1.527  11.939 -0.5964  1.0943 -0.0909
  338TIP3   OH222504   2.255   2.167   5.347  0.0984  0.0934 -0.2663
  338TIP3    H122505   2.221   2.105   5.282 -1.2130 -1.8704  2.2416
  338TIP3    H222506   2.347   2.142   5.358 -0.1013 -0.6296 -0.1842
  339TIP3   OH222507   3.774   3.356  14.649 -0.6236 -0.0307  0.6384
  339TIP3    H122508   3.757   3.267  14.681 -0.6474  0.0440  0.8346
  339TIP3    H222509   3.743   3.355  14.559 -1.8949  0.1698  1.0575
  340TIP3   OH222510   2.985   0.328   2.299 -0.4850 -0.2577 -0.6248
  340TIP3    H122511   3.020   0.418   2.301 -0.4184 -0.2900 -0.3761
  340TIP3    H222512   2.898   0.337   2.261 -0.2990 -0.1453 -1.0354
  341TIP3   OH222513   1.891   0.596  12.863 -0.3667 -0.1575  0.4172
  341TIP3    H122514   1.889   0.557  12.776 -0.6234  1.5248 -0.3329
  341TIP3    H222515   1.823   0.663  12.862  0.7042  0.9739  1.3741
  342TIP3   OH222516   3.932   4.615   5.718  0.2145  0.2397  0.0332
  342TIP3    H122517   3.981   4.689   5.681  1.5899 -0.4415  0.4633
  342TIP3    H222518   3.997   4.565   5.767 -1.1623 -0.0199  1.6454
  343TIP3   OH222519   6.671   0.952   5.997 -0.4511  0.8032  0.2579
  343TIP3    H122520   6.608   0.880   5.999 -0.9483  1.1346 -2.6051
  343TIP3    H222521   6.754   0.911   6.020 -0.8888 -0.5281 -0.4886
  344TIP3   OH222522   5.542   2.298   0.005  0.2566  0.1232 -0.0677
  344TIP3    H122523   5.454   2.332   0.019 -0.2235 -1.2514  0.3772
  344TIP3    H222524   5.578   2.351  -0.065 -0.6637  1.1746  0.2496
  345TIP3   OH222525   1.889   1.320   5.074  0.3276 -0.1466 -1.0662
  345TIP3    H122526   1.954   1.344   5.008 -1.0367 -0.1755 -2.4318
  345TIP3    H222527   1.806   1.351   5.040 -0.3532  0.2284  0.8534
  346TIP3   OH222528   6.679   6.753  12.827  0.3977 -0.2695  0.7703
  346TIP3    H122529   6.666   6.827  12.768 -1.5871 -1.3188 -0.1361
  346TIP3    H222530   6.761   6.774  12.873 -0.3876  2.7517  0.9473
  347TIP3   OH222531   0.268   2.464  12.469  0.1889  0.0300  0.2457
  347TIP3    H122532   0.343   2.518  12.445  0.3125 -0.3605 -0.2569
  347TIP3    H222533   0.202   2.527  12.498  0.0562  0.5225 -1.0731
  348TIP3   OH222534   5.596   2.811   5.573 -0.3198 -0.1843 -0.1866
  348TIP3    H122535   5.599   2.734   5.517 -0.3085  0.3935 -0.9976
  348TIP3    H222536   5.682   2.815   5.615 -1.2699 -2.2029  2.0557
  349TIP3   OH222537   5.390   1.648   5.743 -0.4113  0.5773  0.0503
  349TIP3    H122538   5.465   1.702   5.766  1.1299 -2.0386  1.3611
  349TIP3    H222539   5.420   1.595   5.669 -0.8289 -0.7618  0.8305
  350TIP3   OH222540   3.032   0.942  12.513  0.1876  0.3859  0.7965
  350TIP3    H122541   2.966   0.905  12.454 -1.7932  1.2478  2.4385
  350TIP3    H222542   3.104   0.878  12.510 -0.1204  0.0961 -2.0311
  351TIP3   OH222543   1.710   3.735  16.020 -0.4799  0.1337 -0.3321
  351TIP3    H122544   1.664   3.791  16.083 -0.4702 -2.1659  1.7676
  351TIP3    H222545   1.656   3.657  16.013  0.4061 -0.3547 -1.9073
  352TIP3   OH222546   6.382   0.830  14.126 -0.7404  0.1264 -0.3410
  352TIP3    H122547   6.363   0.737  14.112  0.5688 -0.6781  2.7100
  352TIP3    H222548   6.337   0.852  14.207 -0.2741  1.9334 -0.5472
  353TIP3   OH222549   2.796   1.165  16.364  0.1192  0.2840 -0.2445
  353TIP3    H122550   2.716   1.133  16.405  0.1095  1.1355  0.4137
  353TIP3    H222551   2.766   1.211  16.285 -0.0672  0.9455  0.2147
  354TIP3   OH222552   0.758   1.508  13.263  0.5642  0.4194 -0.1576
  354TIP3    H122553   0.759   1.566  13.187  1.4807  1.3838  0.5774
  354TIP3    H222554   0.731   1.564  13.336 -2.2204 -0.9210 -0.0833
  355TIP3   OH222555   0.495   4.750  12.709 -0.0977 -0.0923 -0.1355
  355TIP3    H122556   0.474   4.829  12.758  1.0136  1.1798 -1.6762
  355TIP3    H222557   0.477   4.772  12.618  2.3695 -0.8550 -0.8518
  356TIP3   OH222558   4.035   4.852   0.460 -0.8272  0.1908 -0.3788
  356TIP3    H122559   4.120   4.860   0.503  0.0283  2.5865 -2.3902
  356TIP3    H222560   4.026   4.758   0.441  0.7587 -0.2486  1.0291
  357TIP3   OH222561   4.869   3.470  12.084 -0.2077 -0.1743  0.2884
  357TIP3    H122562   4.853   3.522  12.162 -1.5321 -0.2118  0.0481
  357TIP3    H222563   4.783   3.456  12.045  0.5490  1.0254 -1.9316
  358TIP3   OH222564   5.999   3.765  11.709 -0.3679  0.7383  0.1921
  358TIP3    H122565   5.965   3.805  11.629 -2.8454  1.2373  1.4451
  358TIP3    H222566   5.960   3.678  11.711 -1.2179  1.1247  1.3722
  359TIP3   OH222567   2.312   5.189  16.176 -0.0662 -0.2387 -0.1652
  359TIP3    H122568   2.348   5.112  16.132 -0.5508  0.5247 -1.9318
  359TIP3    H222569   2.388   5.245  16.194  0.1494 -0.6210  0.1207
  360TIP3   OH222570   6.380   0.073   3.873 -0.1155  0.0207 -0.1007
  360TIP3    H122571   6.435   0.105   3.944 -0.4689  1.0208 -0.2584
  360TIP3    H222572   6.413  -0.015   3.853  0.0988 -0.1833  1.1638
  361TIP3   OH222573   2.909   5.599  17.204  0.4085 -0.3069 -0.0492
  361TIP3    H122574   2.819   5.615  17.233 -0.0659 -0.1836 -1.5692
  361TIP3    H222575   2.958   5.676  17.233  0.1931 -0.7188  1.4506
  362TIP3   OH222576   0.927   2.904  14.379 -0.4220  0.9885 -0.3341
  362TIP3    H122577   0.947   2.985  14.332 -1.3720  0.2046 -2.1689
  362TIP3    H222578   0.839   2.919  14.414  0.6404  1.9152  2.0284
  363TIP3   OH222579   5.550   4.971  16.448  0.3335  0.6331 -0.4828
  363TIP3    H122580   5.506   4.927  16.376  2.9911 -1.2543 -1.0184
  363TIP3    H222581   5.614   5.030  16.406  1.0369  0.4408  0.2922
  364TIP3   OH222582   1.316   4.180  11.307  0.0498 -0.0888 -0.2877
  364TIP3    H122583   1.296   4.214  11.220  1.1974  0.2789 -0.4137
  364TIP3    H222584   1.254   4.108  11.319 -3.4011  2.8439  0.5262
  365TIP3   OH222585   4.819   5.316  14.555 -0.0625  0.2818  0.1403
  365TIP3    H122586   4.825   5.287  14.464  1.6117 -0.3471  0.4348
  365TIP3    H222587   4.836   5.237  14.607 -0.2911  0.7847  0.9926
  366TIP3   OH222588   6.231   3.156  14.826  0.1784 -0.3751 -0.1244
  366TIP3    H122589   6.211   3.236  14.777 -2.0253  0.1328  1.5552
  366TIP3    H222590   6.159   3.097  14.805  0.7137 -1.1850  0.3021
  367TIP3   OH222591   3.922   1.698  14.456  0.3372  0.2514  0.0415
  367TIP3    H122592   3.964   1.624  14.500  1.5510  0.2959 -1.0041
  367TIP3    H222593   3.923   1.674  14.363 -4.0158 -0.7756  0.1329
  368TIP3   OH222594   0.695   2.174  11.053 -0.0728 -0.0913  0.5810
  368TIP3    H122595   0.742   2.214  11.126  1.1456 -0.9521  0.2854
  368TIP3    H222596   0.717   2.228  10.978 -2.1369  1.3966  1.0058
  369TIP3   OH222597   5.539   4.084   4.141 -0.0615  0.0801 -0.3593
  369TIP3    H122598   5.586   4.005   4.165  0.3204  0.2609 -0.5100
  369TIP3    H222599   5.488   4.107   4.218 -0.2435 -0.3615 -0.3449
  370TIP3   OH222600   0.832   4.271   3.699 -0.1997  0.3146  0.1066
  370TIP3    H122601   0.744   4.293   3.666  0.2198 -0.4724 -1.6107
  370TIP3    H222602   0.881   4.353   3.694 -0.5613  0.5371  0.1742
  371TIP3   OH222603   1.789   6.020   0.684  0.6319  0.0365  0.3058
  371TIP3    H122604   1.741   6.055   0.609 -0.0945 -0.0439  0.7264
  371TIP3    H222605   1.880   6.040   0.665  0.2834  1.7482  0.3107
  372TIP3   OH222606   5.345   5.425   3.982  0.4587  0.3944 -0.1332
  372TIP3    H122607   5.392   5.367   4.042 -0.3441  0.6918  0.8068
  372TIP3    H222608   5.405   5.439   3.909  0.5202 -1.9476 -0.5691
  373TIP3   OH222609   0.368   2.027  14.572 -0.0394 -0.4048 -0.1324
  373TIP3    H122610   0.409   2.109  14.546  1.4732 -1.0158  0.2558
  373TIP3    H222611   0.289   2.021  14.517  0.9925  0.2507 -1.7292
  374TIP3   OH222612   5.992   4.464  15.146  0.2320 -0.0424 -0.0782
  374TIP3    H122613   6.005   4.479  15.239 -0.4704 -1.8761  0.3470
  374TIP3    H222614   5.932   4.533  15.118 -0.2042  0.0249  1.0241
  375TIP3   OH222615   3.790   6.093   1.371  0.1200 -0.1508 -0.3766
  375TIP3    H122616   3.798   6.051   1.286  1.9799  0.9989 -0.7933
  375TIP3    H222617   3.878   6.090   1.408 -0.3617  0.6593  0.8774
  376TIP3   OH222618   2.876   1.801   0.281  0.2859 -0.0439 -0.5967
  376TIP3    H122619   2.902   1.834   0.195 -0.8871 -0.3313 -1.0623
  376TIP3    H222620   2.782   1.817   0.286 -0.2813 -3.1284 -0.7493
  377TIP3   OH222621   4.093   0.364   5.783  0.0786 -0.0089 -0.8052
  377TIP3    H122622   4.055   0.372   5.695 -2.4993  1.3814  0.3772
  377TIP3    H222623   4.097   0.454   5.815 -1.1394 -0.6885  1.3409
  378TIP3   OH222624   4.749   6.774   4.945 -0.4444 -0.0020 -0.0009
  378TIP3    H122625   4.808   6.703   4.973  0.0430  1.1866  2.0801
  378TIP3    H222626   4.733   6.756   4.852  0.3727 -2.3353  0.2699
  379TIP3   OH222627   3.960   5.148  11.673  0.1594  0.0640 -0.9939
  379TIP3    H122628   3.881   5.111  11.712  0.4789  0.5844  0.1511
  379TIP3    H222629   4.026   5.080  11.684  0.5401  0.6499  0.3954
  380TIP3   OH222630   1.049   3.799   4.829  0.2957  0.9009 -0.5062
  380TIP3    H122631   1.035   3.808   4.735 -1.7192  2.2144 -0.1107
  380TIP3    H222632   0.962   3.807   4.867  1.0839  0.3898  1.4887
  381TIP3   OH222633   1.334   0.307   3.880 -0.3970 -0.2977 -0.2977
  381TIP3    H122634   1.424   0.304   3.911 -0.8900 -1.5045  1.0540
  381TIP3    H222635   1.314   0.217   3.855 -1.4526 -0.1755  0.0840
  382TIP3   OH222636   3.940   5.336  15.418  0.1153 -0.0945  0.3976
  382TIP3    H122637   4.024   5.291  15.419  0.4798  0.5708  0.7502
  382TIP3    H222638   3.934   5.374  15.330  0.9346  1.2046  0.8778
  383TIP3   OH222639   1.818   3.732  12.936  0.1119  0.5607 -0.3632
  383TIP3    H122640   1.730   3.720  12.972 -0.2668  2.1062 -0.7621
  383TIP3    H222641   1.873   3.750  13.012 -0.1873  1.1073 -0.2793
  384TIP3   OH222642   4.253   0.097   4.204  0.2067  0.3817 -0.1740
  384TIP3    H122643   4.343   0.127   4.188  0.9876 -2.4324 -1.3980
  384TIP3    H222644   4.256   0.060   4.292  0.9704 -2.1279 -1.2146
  385TIP3   OH222645   6.248   5.003  14.773 -0.2437 -0.1405  0.1008
  385TIP3    H122646   6.246   4.918  14.728 -0.7773  0.1481 -0.4253
  385TIP3    H222647   6.271   5.065  14.704  0.0689  0.1522  0.4717
  386TIP3   OH222648   3.620   1.437  13.719  0.3344 -0.5503  0.1684
  386TIP3    H122649   3.682   1.385  13.770  0.5290 -0.7583 -0.2813
  386TIP3    H222650   3.674   1.501  13.673  0.0327  0.5557  1.3017
  387TIP3   OH222651   6.041   4.518  15.422  0.0499  0.6121  0.7063
  387TIP3    H122652   6.031   4.450  15.489  1.2382  0.7345  1.0208
  387TIP3    H222653   6.001   4.596  15.461 -1.8783 -0.0415  0.0994
  388TIP3   OH222654   6.798   2.132  16.825  0.2537  0.0502 -0.3263
  388TIP3    H122655   6.888   2.139  16.858  0.2973 -1.5700 -0.0762
  388TIP3    H222656   6.749   2.197  16.875  0.5519 -1.5776  2.1592
  389TIP3   OH222657   3.227   4.020   4.795  1.2207  0.4517 -0.4862
  389TIP3    H122658   3.221   3.968   4.715 -1.4798 -0.9904  0.5969
  389TIP3    H222659   3.187   4.103   4.773 -1.0951 -0.5540 -0.1884
  390TIP3   OH222660   6.108   2.792   5.672 -0.2339 -0.3776 -1.0362
  390TIP3    H122661   6.100   2.805   5.577 -0.3360  5.6386 -0.3576
  390TIP3    H222662   6.017   2.791   5.704 -0.1431 -0.9380 -0.7771
  391TIP3   OH222663   2.689   1.862   6.261 -0.2553  0.0556  0.0993
  391TIP3    H122664   2.606   1.817   6.245  0.8781 -2.8962  2.1378
  391TIP3    H222665   2.735   1.859   6.177 -1.6799  0.6026 -0.7106
  392TIP3   OH222666   4.065   4.738   5.328 -0.4122  0.1798  0.1365
  392TIP3    H122667   4.100   4.816   5.285  0.7228 -1.0606 -1.2164
  392TIP3    H222668   4.059   4.762   5.420  1.2480  1.3967 -0.0564
  393TIP3   OH222669   0.442   4.773   0.677 -0.0823 -0.0685  0.7335
  393TIP3    H122670   0.411   4.829   0.605  0.0567 -0.2294  0.5470
  393TIP3    H222671   0.387   4.798   0.751 -1.3413 -1.0515  0.1505
  394TIP3   OH222672   4.026   5.456  16.346 -0.0875  0.0870 -0.1051
  394TIP3    H122673   4.058   5.415  16.266 -1.4585  0.2208 -0.7282
  394TIP3    H222674   4.059   5.400  16.416  1.0481 -0.0797 -0.7532
  395TIP3   OH222675   6.792   3.740  12.859 -0.3342  0.0568  0.4804
  395TIP3    H122676   6.798   3.775  12.948 -0.0991 -0.3332  0.6154
  395TIP3    H222677   6.854   3.667  12.857 -0.9227 -0.4335  0.2274
  396TIP3   OH222678   5.001   2.086   5.117  0.5199  0.0065  0.4071
  396TIP3    H122679   5.052   2.015   5.078  1.4925  1.4166 -0.9296
  396TIP3    H222680   4.911   2.069   5.088  0.6494 -0.9833  0.5598
  397TIP3   OH222681   0.351   3.329  13.971 -0.3769  0.2364  0.9394
  397TIP3    H122682   0.409   3.302  13.900 -0.7397 -1.1509  1.1704
  397TIP3    H222683   0.405   3.324  14.049 -0.6906 -0.6314  1.0969
  398TIP3   OH222684   4.001   4.472   5.443  0.1076  0.2583  0.2899
  398TIP3    H122685   4.010   4.550   5.388 -1.3037 -0.1835 -0.5793
  398TIP3    H222686   3.914   4.479   5.482  0.7025  0.0631  1.7106
  399TIP3   OH222687   0.929   1.488  17.011 -0.0818  0.6320 -0.0387
  399TIP3    H122688   0.957   1.398  16.998  0.6310  1.0529 -1.5152
  399TIP3    H222689   0.863   1.483  17.080 -0.4137 -1.0825 -0.4701
  400TIP3   OH222690   0.185   5.012   1.194 -0.0959  0.2007 -0.2928
  400TIP3    H122691   0.266   5.060   1.178  0.0836  0.6011  1.7059
  400TIP3    H222692   0.184   4.943   1.127  3.0391 -1.1956  1.0010
  401TIP3   OH222693   4.196   5.982   3.519  0.0631  0.3790 -1.0747
  401TIP3    H122694   4.152   5.915   3.571  0.6647  0.6033 -0.2645
  401TIP3    H222695   4.186   6.063   3.569  1.7332  0.3554 -0.6635
  402TIP3   OH222696   3.245   6.708  14.344 -0.7611 -0.9323 -0.0166
  402TIP3    H122697   3.295   6.686  14.422 -1.9251 -0.8063  0.7627
  402TIP3    H222698   3.252   6.630  14.288  0.5677 -0.7972 -0.0737
  403TIP3   OH222699   4.321   4.026   3.323 -0.0794  0.2279 -0.1425
  403TIP3    H122700   4.377   4.005   3.398 -1.9865 -1.5445  0.8296
  403TIP3    H222701   4.283   3.942   3.297 -3.1180  1.5296 -0.1072
  404TIP3   OH222702   2.577   0.111   1.100  0.2495 -0.3775 -0.5898
  404TIP3    H122703   2.596   0.073   1.014 -1.9991 -3.4215  0.1692
  404TIP3    H222704   2.514   0.181   1.081  0.7058 -0.1963 -1.5146
  405TIP3   OH222705   3.830   2.390   3.745  0.3813 -0.4745 -0.2133
  405TIP3    H122706   3.792   2.324   3.687 -1.6088  0.5688 -0.1517
  405TIP3    H222707   3.885   2.444   3.688 -0.0294 -0.6377 -0.7713
  406TIP3   OH222708   3.888   1.313  12.237  0.0558 -0.0254 -0.5162
  406TIP3    H122709   3.902   1.318  12.331  0.7455 -1.3485 -0.5431
  406TIP3    H222710   3.797   1.284  12.228 -0.0596  0.2519 -0.2743
  407TIP3   OH222711   0.320   4.861  16.557  0.8373 -0.5484 -0.5877
  407TIP3    H122712   0.381   4.930  16.581  1.1914 -1.3138  0.7493
  407TIP3    H222713   0.321   4.800  16.631 -2.0724 -0.2335 -0.2153
  408TIP3   OH222714   0.940   4.150  13.378 -0.6146 -0.0318  0.0283
  408TIP3    H122715   0.905   4.217  13.436 -1.0254  0.8590 -1.2186
  408TIP3    H222716   0.883   4.152  13.302 -0.6060 -1.7788 -0.0507
  409TIP3   OH222717   4.195   1.453   4.828  0.3099 -0.0931 -0.4160
  409TIP3    H122718   4.103   1.477   4.819  0.5557  1.5680  1.2035
  409TIP3    H222719   4.195   1.358   4.821 -1.4582 -0.0702 -1.0234
  410TIP3   OH222720   4.688   0.117  10.585 -0.6284 -0.1990 -0.3966
  410TIP3    H122721   4.612   0.069  10.618 -1.8056  0.9564 -1.3848
  410TIP3    H222722   4.743   0.051  10.544 -1.2403 -1.0058  0.0809
  411TIP3   OH222723   2.535   2.139  14.066 -0.4329  0.0472  0.3925
  411TIP3    H122724   2.495   2.214  14.109  2.9333  1.5466  1.0407
  411TIP3    H222725   2.581   2.092  14.136  0.0007 -0.9423 -0.5312
  412TIP3   OH222726   5.619   3.064  13.869  0.6771 -0.8804 -0.4744
  412TIP3    H122727   5.555   3.100  13.931  2.1239 -1.0444  1.1322
  412TIP3    H222728   5.629   2.973  13.896  1.1930 -1.0000 -1.0650
  413TIP3   OH222729   4.048   2.461  16.444 -0.3380  0.0629 -0.4752
  413TIP3    H122730   4.105   2.516  16.497 -0.4789  0.9439 -1.2249
  413TIP3    H222731   3.985   2.522  16.404  0.0010 -0.5172 -1.9477
  414TIP3   OH222732   5.758   2.121  11.418 -0.3462 -0.7844 -1.0091
  414TIP3    H122733   5.819   2.188  11.388 -1.6014  0.5967 -0.5121
  414TIP3    H222734   5.755   2.132  11.513 -2.2513 -0.0475 -1.1321
  415TIP3   OH222735   4.258   4.805   4.845  0.0635  0.2616 -0.0108
  415TIP3    H122736   4.219   4.887   4.876 -1.6203 -0.3668 -0.4105
  415TIP3    H222737   4.199   4.737   4.878  0.8238 -0.7139 -0.6543
  416TIP3   OH222738   2.826   1.517   3.126 -0.1121 -0.4455 -0.0963
  416TIP3    H122739   2.745   1.465   3.136  0.3244 -0.9007  1.1946
  416TIP3    H222740   2.807   1.599   3.171  0.2705 -0.7061  0.5523
  417TIP3   OH222741   4.145   1.883   5.550 -0.6333 -0.1866  0.1924
  417TIP3    H122742   4.136   1.905   5.643 -0.8141  0.6730 -0.0177
  417TIP3    H222743   4.238   1.895   5.531 -0.6409 -0.0955  0.2058
  418TIP3   OH222744   2.301   3.900  15.444  0.1835  0.0458  0.0797
  418TIP3    H122745   2.341   3.813  15.443 -0.8188 -0.4279 -1.8658
  418TIP3    H222746   2.263   3.908  15.531 -0.4769 -1.8266 -0.0106
  419TIP3   OH222747   2.347   6.203   3.492  0.0834  0.6845 -0.2687
  419TIP3    H122748   2.400   6.132   3.455 -0.5004 -0.2430  0.6536
  419TIP3    H222749   2.258   6.184   3.462 -0.0826  1.0092  0.0198
  420TIP3   OH222750   3.307   2.105  16.150 -0.1170 -0.3002  0.4233
  420TIP3    H122751   3.358   2.040  16.198  0.9263  1.3777  1.6222
  420TIP3    H222752   3.280   2.060  16.070 -0.2149 -2.5041  1.6547
  421TIP3   OH222753   5.493   5.954  16.148 -0.3894  0.6063 -0.3201
  421TIP3    H122754   5.521   5.883  16.091  0.8237 -0.4090  1.5127
  421TIP3    H222755   5.449   5.911  16.221  1.7474  1.6344  1.6074
  422TIP3   OH222756   3.720   0.646   1.813  0.4681 -0.1181  0.0377
  422TIP3    H122757   3.713   0.720   1.873 -0.7216 -0.5112  0.4130
  422TIP3    H222758   3.810   0.616   1.821  0.1072 -0.7234  2.3384
  423TIP3   OH222759   3.420   4.736  14.037 -0.4655  0.2571  0.8073
  423TIP3    H122760   3.490   4.720  13.974 -2.5809  1.9404 -2.0898
  423TIP3    H222761   3.350   4.676  14.010 -1.0034  0.2124  2.2592
  424TIP3   OH222762   6.309   4.025  16.847 -0.8634 -0.3737 -0.1325
  424TIP3    H122763   6.379   4.027  16.782 -0.6950 -1.4958 -0.0033
  424TIP3    H222764   6.311   4.111  16.888  0.1567 -0.2530 -0.4260
  425TIP3   OH222765   1.242   3.242   1.666 -0.1862 -0.1466  0.2615
  425TIP3    H122766   1.319   3.293   1.639  0.4333  0.5335  3.1292
  425TIP3    H222767   1.270   3.151   1.658 -0.1377 -0.0050 -1.5863
  426TIP3   OH222768   2.172   0.695   0.684  0.2553  0.2509 -0.3092
  426TIP3    H122769   2.190   0.706   0.590  1.2352 -1.4713 -0.3377
  426TIP3    H222770   2.076   0.699   0.690  0.1736  0.1904 -1.4016
  427TIP3   OH222771   1.691   0.985  15.354  0.0747  0.1611  0.1299
  427TIP3    H122772   1.608   0.984  15.307 -0.5947  1.9272  1.2115
  427TIP3    H222773   1.750   1.036  15.299 -0.1631  0.6297  0.3041
  428TIP3   OH222774   2.419   2.404   0.443 -0.1965 -0.1448 -0.6974
  428TIP3    H122775   2.498   2.352   0.429 -0.0176 -0.1564  0.2936
  428TIP3    H222776   2.386   2.423   0.355 -0.6996 -2.5812 -1.0516
  429TIP3   OH222777   0.940   2.369  15.980  0.3482  0.0814 -0.1681
  429TIP3    H122778   1.008   2.435  15.966 -0.8945  1.5644  0.7676
  429TIP3    H222779   0.951   2.342  16.071  1.0414 -1.2401 -0.6256
  430TIP3   OH222780   3.394   4.050  17.016 -0.1513 -0.2031 -0.0435
  430TIP3    H122781   3.353   3.968  16.991  0.2839 -0.5466  0.3609
  430TIP3    H222782   3.469   4.058  16.957  0.2237 -0.4573  0.3914
  431TIP3   OH222783   0.589   3.763  15.794  0.5308  0.0530  0.0753
  431TIP3    H122784   0.674   3.769  15.752  1.1996 -1.4207  1.1560
  431TIP3    H222785   0.599   3.691  15.857 -1.5298 -0.1980  0.1472
  432TIP3   OH222786   0.866   5.229  13.022 -0.1689 -0.8580 -0.0745
  432TIP3    H122787   0.876   5.152  13.078  0.5389 -1.2365 -0.7132
  432TIP3    H222788   0.807   5.201  12.953  1.5354 -1.4086 -1.3339
  433TIP3   OH222789   1.113   0.587  13.938  0.1907  0.1505 -0.4186
  433TIP3    H122790   1.138   0.672  13.902 -0.8147  0.5030 -0.3180
  433TIP3    H222791   1.084   0.606  14.027  0.7044 -0.4180 -0.1222
  434TIP3   OH222792   3.116   6.568  16.590 -0.0215  0.3666 -0.4177
  434TIP3    H122793   3.119   6.661  16.613 -0.1679  0.4546 -0.7605
  434TIP3    H222794   3.066   6.565  16.509 -0.6970 -0.0846  0.0092
  435TIP3   OH222795   3.074   1.750  12.668 -0.4311 -0.6544  0.3781
  435TIP3    H122796   3.062   1.842  12.644 -0.0932 -0.5208  0.7268
  435TIP3    H222797   3.036   1.743  12.756 -0.3445 -0.8244  0.4011
  436TIP3   OH222798   2.286   3.867   0.491  1.0888 -0.1040  0.0796
  436TIP3    H122799   2.338   3.787   0.488  2.6827  0.8818  0.2448
  436TIP3    H222800   2.302   3.903   0.579  0.3742  0.3696  0.0187
  437TIP3   OH222801   3.641   2.225   2.247  0.0186  0.4230 -0.3821
  437TIP3    H122802   3.705   2.244   2.178  3.7601 -2.1548  2.1329
  437TIP3    H222803   3.631   2.308   2.293  1.8500  0.8282 -0.6649
  438TIP3   OH222804   4.791   1.852   3.130 -0.4252  0.0682 -0.5726
  438TIP3    H122805   4.697   1.838   3.137 -0.3748 -0.6955 -1.2178
  438TIP3    H222806   4.814   1.904   3.206 -1.3093 -0.0811 -0.1979
  439TIP3   OH222807   2.187   1.650  14.638  0.0686 -0.0374 -0.9351
  439TIP3    H122808   2.121   1.592  14.673  0.3899 -0.1561 -0.5188
  439TIP3    H222809   2.270   1.609  14.662  0.3086 -0.6699 -2.7304
  440TIP3   OH222810   6.656   2.381  14.659  0.2374  0.2300  0.1046
  440TIP3    H122811   6.657   2.351  14.750  0.5201 -0.4088 -0.1067
  440TIP3    H222812   6.670   2.475  14.665  0.4113  0.1681  0.7155
  441TIP3   OH222813   1.681   4.747  14.149 -0.4426 -0.1259 -0.6918
  441TIP3    H122814   1.776   4.739  14.137 -0.1829 -0.2381  1.2301
  441TIP3    H222815   1.665   4.841  14.149  0.1676  0.0327  2.2004
  442TIP3   OH222816   3.513   3.353   1.243  0.2829 -0.1961 -0.0979
  442TIP3    H122817   3.584   3.366   1.306  2.2420 -3.3606 -1.5244
  442TIP3    H222818   3.458   3.285   1.282  0.0167 -0.2699 -0.5938
  443TIP3   OH222819   6.187   3.120   3.545 -0.1883  0.1504 -0.2464
  443TIP3    H122820   6.156   3.032   3.563  0.0577  0.4806  1.9413
  443TIP3    H222821   6.276   3.108   3.512 -0.2468 -0.4152 -0.1959
  444TIP3   OH222822   0.157   1.138  11.507 -0.0754  0.2891  0.9201
  444TIP3    H122823   0.140   1.064  11.565 -1.4890  0.3719  0.6290
  444TIP3    H222824   0.250   1.133  11.489  0.0581 -0.7477  1.8219
  445TIP3   OH222825   5.596   5.201   3.657 -0.3877 -0.0369 -0.2838
  445TIP3    H122826   5.674   5.149   3.638 -0.1139  0.3042 -0.0961
  445TIP3    H222827   5.617   5.289   3.626 -0.7872  0.0027 -0.4504
  446TIP3   OH222828   2.438   2.290  12.849  0.1048 -0.6676  0.6145
  446TIP3    H122829   2.366   2.324  12.796 -0.4624 -3.4670 -0.5095
  446TIP3    H222830   2.517   2.322  12.807 -0.4214  0.9130  0.7904
  447TIP3   OH222831   3.591   4.719  12.872 -0.1154  0.1203 -0.2120
  447TIP3    H122832   3.641   4.801  12.875 -0.0720  0.0885 -0.0559
  447TIP3    H222833   3.658   4.651  12.870 -0.1467  0.0999 -0.8229
  448TIP3   OH222834   5.116   6.391  16.933  0.0000  0.1957  0.7213
  448TIP3    H122835   5.097   6.323  16.997  2.5983  0.3646  1.7356
  448TIP3    H222836   5.211   6.387  16.921 -0.0587  2.2921 -0.7268
  449TIP3   OH222837   1.659   3.043  13.612  0.3266  0.1721 -0.2998
  449TIP3    H122838   1.691   3.048  13.702 -1.4770 -1.4518  0.4539
  449TIP3    H222839   1.617   3.128  13.597  1.7303  0.9204 -0.0582
  450TIP3   OH222840   0.005   3.131   6.758  0.2339 -0.5649 -0.2559
  450TIP3    H122841   0.010   3.084   6.675 -0.9577 -0.4810 -0.3838
  450TIP3    H222842   0.071   3.089   6.813  2.8358  1.0625 -2.0508
  451TIP3   OH222843   3.631   6.137  13.848 -0.0989 -1.1982  0.0143
  451TIP3    H122844   3.594   6.122  13.761 -0.3837 -0.2035 -0.0470
  451TIP3    H222845   3.681   6.058  13.867  0.7755 -1.0224 -1.4658
  452TIP3   OH222846   1.127   1.170   1.600  0.3716 -0.6717  0.0144
  452TIP3    H122847   1.180   1.109   1.653  2.6764  0.3990 -0.9636
  452TIP3    H222848   1.189   1.238   1.573 -1.1343 -0.2456 -2.5704
  453TIP3   OH222849   3.031   0.057   3.007 -0.2260  0.1936  0.2679
  453TIP3    H122850   2.944   0.095   3.006 -0.6126 -0.6675 -1.1165
  453TIP3    H222851   3.083   0.116   3.061 -1.4386  1.2072  0.3467
  454TIP3   OH222852   5.286   4.585  14.922 -0.1092  0.1307  0.0600
  454TIP3    H122853   5.338   4.611  14.998  0.3745 -0.1093 -0.1845
  454TIP3    H222854   5.210   4.540  14.958  0.3379 -0.3671  0.3837
  455TIP3   OH222855   5.218   1.185  17.048 -0.2897 -0.5478  0.6635
  455TIP3    H122856   5.149   1.235  17.093 -2.8644 -0.9130 -2.6615
  455TIP3    H222857   5.187   1.095  17.051 -1.4308 -0.3750 -3.2176
  456TIP3   OH222858   0.263   1.797  10.786  0.0212 -0.9032  0.1791
  456TIP3    H122859   0.251   1.846  10.704 -1.6120  0.1094  0.9931
  456TIP3    H222860   0.265   1.705  10.759 -0.5850 -0.5847 -1.0075
  457TIP3   OH222861   2.707   6.106  16.798  0.0227  0.2373  0.1255
  457TIP3    H122862   2.716   6.202  16.802 -1.7692  0.3855  1.2161
  457TIP3    H222863   2.613   6.091  16.788  0.3465 -1.4110 -0.5449
  458TIP3   OH222864   1.529   4.904   4.845 -0.0137  0.7514 -0.5021
  458TIP3    H122865   1.558   4.819   4.878 -4.0997 -0.6503 -0.1587
  458TIP3    H222866   1.549   4.902   4.752 -0.6333 -0.8840 -0.6276
  459TIP3   OH222867   0.023   2.954   3.169 -0.3382  0.0515 -0.3159
  459TIP3    H122868  -0.014   2.920   3.088 -0.6829  0.8581 -0.5076
  459TIP3    H222869   0.117   2.950   3.156 -0.3665 -1.1784 -0.1813
  460TIP3   OH222870   6.452   1.046   3.204  0.8157 -0.1096  0.2134
  460TIP3    H122871   6.532   1.056   3.153 -0.3606  0.4625 -1.5436
  460TIP3    H222872   6.423   1.135   3.222 -0.4017 -0.3179 -0.7079
  461TIP3   OH222873   2.407   1.223   3.997  0.3815  0.0914  0.0502
  461TIP3    H122874   2.379   1.228   3.905 -0.8305 -2.1843  0.2735
  461TIP3    H222875   2.471   1.153   4.000  0.2862  0.0367  0.9872
  462TIP3   OH222876   3.679   5.289  13.451 -0.0616  0.5584  0.1219
  462TIP3    H122877   3.606   5.263  13.395 -0.0964 -3.3793  1.8175
  462TIP3    H222878   3.757   5.262  13.403  0.1136  1.0716  0.1115
  463TIP3   OH222879   0.420   5.964   0.666  0.3897 -0.5850  0.2141
  463TIP3    H122880   0.349   6.019   0.698  2.3968  1.7429  0.8323
  463TIP3    H222881   0.480   5.955   0.741  0.7764 -2.4735 -0.2924
  464TIP3   OH222882   0.624   5.213   5.684 -0.1564 -0.8102 -0.6093
  464TIP3    H122883   0.565   5.277   5.645 -0.6430 -0.9332 -0.0698
  464TIP3    H222884   0.688   5.266   5.732 -0.3503 -0.7162 -0.4547
  465TIP3   OH222885   4.865   6.573  12.219  0.7273  0.0455  0.8115
  465TIP3    H122886   4.839   6.528  12.299 -1.9461 -0.1159 -0.0896
  465TIP3    H222887   4.804   6.646  12.211  1.7846  0.8147 -0.3876
  466TIP3   OH222888   2.336   4.143   3.491  0.0374  0.1590 -0.4451
  466TIP3    H122889   2.352   4.214   3.553 -0.5397  1.1160 -1.3907
  466TIP3    H222890   2.417   4.137   3.440  0.0408  0.2147 -0.4463
  467TIP3   OH222891   6.657   5.173  14.302  0.0147  0.4322  0.6126
  467TIP3    H122892   6.576   5.223  14.303 -0.1355  0.2174 -0.3132
  467TIP3    H222893   6.726   5.239  14.294 -0.0682  0.6054  1.2741
  468TIP3   OH222894   1.992   5.048  15.886  0.2286  0.3563  0.0170
  468TIP3    H122895   1.923   5.088  15.834  0.0080  0.4105  0.3450
  468TIP3    H222896   1.986   5.093  15.971  1.0563  0.7867 -0.1494
  469TIP3   OH222897   2.785   1.851  14.993 -0.3059  0.2558 -0.1489
  469TIP3    H122898   2.703   1.818  14.955 -1.2290  0.3066  1.7129
  469TIP3    H222899   2.764   1.939  15.023  0.1657 -0.0437  1.1162
  470TIP3   OH222900   1.999   1.961   6.900  0.5522 -0.3463  0.0856
  470TIP3    H122901   2.041   2.022   6.960 -0.5793  1.7452 -1.1979
  470TIP3    H222902   2.035   1.982   6.814 -1.1418 -0.2988 -0.6298
  471TIP3   OH222903   4.976   2.853   5.173  0.0604  0.0287  0.4570
  471TIP3    H122904   5.044   2.798   5.134  1.0804  0.9862  0.8551
  471TIP3    H222905   4.970   2.929   5.115 -0.0371  0.3723  0.9165
  472TIP3   OH222906   1.466   3.602  14.486  0.1511  0.0845  0.1050
  472TIP3    H122907   1.404   3.532  14.464 -0.4907  0.0583  1.9243
  472TIP3    H222908   1.505   3.574  14.569 -0.0890  1.8707  0.8463
  473TIP3   OH222909   6.578   6.280  12.932  0.2915 -0.0793 -0.2618
  473TIP3    H122910   6.486   6.282  12.905  0.2254 -1.9783 -0.2397
  473TIP3    H222911   6.581   6.220  13.006  1.7579 -1.1378 -1.1329
  474TIP3   OH222912   3.651   0.153  16.263  0.5391 -0.0538 -0.1528
  474TIP3    H122913   3.611   0.068  16.249  0.7934  0.0656 -1.6152
  474TIP3    H222914   3.620   0.180  16.350  0.0976 -1.4216  0.1241
  475TIP3   OH222915   6.574   1.468   0.047  0.1998 -0.0310  0.4158
  475TIP3    H122916   6.624   1.441  -0.030 -1.6349 -1.4044 -0.3070
  475TIP3    H222917   6.633   1.451   0.120  1.4741  0.0767 -0.5637
  476TIP3   OH222918   0.718   5.630   4.005  0.2803 -0.7371 -0.0765
  476TIP3    H122919   0.764   5.707   4.039  1.6689 -0.9820 -1.3046
  476TIP3    H222920   0.744   5.627   3.912 -2.5416 -0.6647 -0.9217
  477TIP3   OH222921   2.145   6.024  13.129  0.5552  0.0385  0.1425
  477TIP3    H122922   2.197   6.102  13.148 -1.5717  1.4085  0.5773
  477TIP3    H222923   2.208   5.952  13.127  2.2070  1.3441  2.5386
  478TIP3   OH222924   2.321   5.690  14.939  0.4175 -0.1902 -0.1703
  478TIP3    H122925   2.353   5.628  14.873  0.7510  2.4124 -2.5671
  478TIP3    H222926   2.363   5.773  14.916 -2.1118  1.5700  1.3071
  479TIP3   OH222927   1.460   5.379  13.991 -0.1424 -0.5637  0.4124
  479TIP3    H122928   1.551   5.395  14.016 -0.9162  1.2057  2.2367
  479TIP3    H222929   1.452   5.419  13.904  0.9608 -1.2924 -0.0400
  480TIP3   OH222930   0.532   0.487   5.129 -0.8163 -0.1760  0.1051
  480TIP3    H122931   0.606   0.544   5.152 -2.7933  1.0618  3.7107
  480TIP3    H222932   0.478   0.540   5.071  0.2067 -0.4824 -1.1658
  481TIP3   OH222933   6.749   0.184   2.493 -0.0163 -0.3842  0.2413
  481TIP3    H122934   6.820   0.141   2.541  1.2956  0.3984 -0.9787
  481TIP3    H222935   6.776   0.276   2.487 -1.0513 -0.1150 -0.3862
  482TIP3   OH222936   5.526   1.489   5.584  0.4038  0.1778  0.2983
  482TIP3    H122937   5.613   1.451   5.577 -0.2161 -0.8569 -2.2969
  482TIP3    H222938   5.471   1.418   5.616  0.0216  0.0148 -0.6822
  483TIP3   OH222939   1.789   1.984   0.989 -0.0361  0.6203 -0.0449
  483TIP3    H122940   1.716   2.042   0.967 -0.3175 -0.1054 -1.0146
  483TIP3    H222941   1.846   2.037   1.045 -0.3896  1.7766 -0.7763
  484TIP3   OH222942   0.617   5.647   6.695  0.4081  0.4910  0.2440
  484TIP3    H122943   0.570   5.627   6.777 -1.6327  1.3975 -0.6693
  484TIP3    H222944   0.580   5.586   6.631  3.1127 -1.2983  0.3072
  485TIP3   OH222945   6.508   5.490   3.348  0.5939  0.4173 -0.1085
  485TIP3    H122946   6.466   5.493   3.262  0.9313  0.5324 -0.2700
  485TIP3    H222947   6.575   5.558   3.344 -0.5915  1.6567  0.8867
  486TIP3   OH222948   1.443   4.035   2.525 -0.0983  0.3864 -0.0563
  486TIP3    H122949   1.439   3.970   2.454  0.6712  0.8137 -0.5028
  486TIP3    H222950   1.506   3.999   2.587 -0.2220  0.3580  0.0525
  487TIP3   OH222951   4.267   0.670  17.183 -0.1939 -0.1630  0.5108
  487TIP3    H122952   4.247   0.618  17.261 -1.2525  1.2322  1.1725
  487TIP3    H222953   4.289   0.757  17.215  0.6193  0.0949 -0.6722
  488TIP3   OH222954   3.235   5.717   5.593 -0.2490 -0.4336  0.7398
  488TIP3    H122955   3.159   5.659   5.582 -0.8697  0.5899 -0.5185
  488TIP3    H222956   3.212   5.772   5.667 -0.2529 -0.8698  1.0674
  489TIP3   OH222957   4.843   5.335   2.748 -0.4324  0.0875 -0.7675
  489TIP3    H122958   4.821   5.428   2.740 -3.4605 -0.5607 -0.6333
  489TIP3    H222959   4.838   5.318   2.842 -1.3336 -0.5082 -0.9135
  490TIP3   OH222960   1.472   0.516  15.709  0.2895 -0.4602 -0.6190
  490TIP3    H122961   1.451   0.588  15.769 -2.0114  1.2940 -3.3824
  490TIP3    H222962   1.566   0.522  15.697  0.8493 -1.0143  2.9657
  491TIP3   OH222963   6.635   2.928   0.176  0.0980  0.1170  0.3043
  491TIP3    H122964   6.617   2.995   0.110  0.0153 -0.3997 -0.1973
  491TIP3    H222965   6.650   2.848   0.126  0.2595 -0.2292  0.9001
  492TIP3   OH222966   6.524   2.826  14.220 -0.2790  0.1377 -0.2962
  492TIP3    H122967   6.507   2.769  14.295 -0.9900  0.8368  0.0858
  492TIP3    H222968   6.531   2.913  14.258 -2.0253  0.6963 -1.1983
  493TIP3   OH222969   6.703   3.112  12.359  0.0105 -0.5768  0.2737
  493TIP3    H122970   6.692   3.087  12.267  0.6977 -2.5849  0.7070
  493TIP3    H222971   6.790   3.153  12.362 -0.2195 -0.0597 -0.0637
  494TIP3   OH222972   6.008   3.619   0.414  0.1200 -0.2328  0.0175
  494TIP3    H122973   5.934   3.679   0.412  0.3609  0.0123 -1.7938
  494TIP3    H222974   6.015   3.586   0.325  1.1213 -1.5715  0.5781
  495TIP3   OH222975   6.711   6.519  12.670 -0.4909  0.0621  0.4565
  495TIP3    H122976   6.687   6.602  12.711  0.5291  0.5958  0.0164
  495TIP3    H222977   6.807   6.515  12.679 -0.5176 -0.9815  0.3194
  496TIP3   OH222978   1.328   1.009   5.662 -0.6881  0.0931 -0.2297
  496TIP3    H122979   1.388   0.981   5.731 -1.1317 -0.7680 -0.1847
  496TIP3    H222980   1.326   1.105   5.670  0.7052  0.1466 -0.2630
  497TIP3   OH222981   3.618   4.718  12.596 -0.6801  0.5578  0.5284
  497TIP3    H122982   3.582   4.702  12.683  0.8637  0.4497  1.1585
  497TIP3    H222983   3.620   4.814  12.588  0.1402  0.5822  1.0194
  498TIP3   OH222984   5.288   3.352   2.264  0.1051  0.1859 -0.0166
  498TIP3    H122985   5.242   3.349   2.180  0.7886  1.4667 -0.4592
  498TIP3    H222986   5.366   3.405   2.247  0.9797 -0.7083  1.0892
  499TIP3   OH222987   5.100   2.698   6.551  0.0905 -0.3069 -0.3870
  499TIP3    H122988   5.033   2.745   6.599  0.6904  2.5594 -2.2371
  499TIP3    H222989   5.052   2.635   6.497 -0.9339  0.3810 -0.2733
  500TIP3   OH222990   5.654   2.004  13.837 -0.2814 -0.1115  0.2716
  500TIP3    H122991   5.684   2.071  13.776 -1.1342  1.1284  1.1894
  500TIP3    H222992   5.622   1.933  13.781  0.0195  0.5211 -0.7140
  501TIP3   OH222993   3.195   3.801  15.651  0.5025 -0.1486  0.2230
  501TIP3    H122994   3.117   3.797  15.596  0.4789  0.0335  0.2432
  501TIP3    H222995   3.262   3.753  15.602  0.6542  0.5416 -0.2447
  502TIP3   OH222996   2.118   5.058   6.055 -0.0976  0.8556 -0.1991
  502TIP3    H122997   2.133   4.982   6.112  2.3483  1.2473 -0.2398
  502TIP3    H222998   2.108   5.132   6.116  1.7478  1.1504 -0.2238
  503TIP3   OH222999   6.113   5.397  16.451 -0.2559 -0.1769  0.6585
  503TIP3    H123000   6.095   5.339  16.377 -0.0346 -0.7990  1.0885
  503TIP3    H223001   6.141   5.479  16.411 -0.0105 -0.5520  0.0534
  504TIP3   OH223002   1.023   0.633  11.274 -0.3123 -0.4256  0.3465
  504TIP3    H123003   1.070   0.588  11.204 -1.8916 -0.7215 -0.5536
  504TIP3    H223004   0.997   0.717  11.235 -0.1193 -0.0600  0.9949
  505TIP3   OH223005   6.074   0.713   0.613  0.3708 -0.0312  0.3228
  505TIP3    H123006   6.028   0.631   0.631  0.0581  0.1674  0.4540
  505TIP3    H223007   6.163   0.687   0.593 -0.0737 -0.5108 -1.0560
  506TIP3   OH223008   2.414   0.211  12.832 -0.1296  0.3966  0.4196
  506TIP3    H123009   2.390   0.123  12.804  1.4326  0.5256 -1.3939
  506TIP3    H223010   2.330   0.254  12.848 -0.9336 -1.1038  0.3651
  507TIP3   OH223011   0.052   5.457   1.851  0.0290 -0.0838 -0.3452
  507TIP3    H123012  -0.030   5.428   1.810  0.4184 -0.3899 -0.9216
  507TIP3    H223013   0.096   5.376   1.876  0.0214  0.0899  0.2379
  508TIP3   OH223014   5.822   2.727  11.270 -0.0788  0.7815 -0.0545
  508TIP3    H123015   5.762   2.802  11.276 -1.5673 -0.5101  1.9363
  508TIP3    H223016   5.852   2.714  11.360  2.8697  1.0914 -0.9480
  509TIP3   OH223017   0.721   0.444  11.125 -0.2306  0.3371  0.4196
  509TIP3    H123018   0.664   0.435  11.201 -1.6466  0.0596 -0.6675
  509TIP3    H223019   0.669   0.413  11.051  1.8852 -1.4560 -0.3795
  510TIP3   OH223020   0.210   6.648   0.288 -0.3035 -0.2106  0.2745
  510TIP3    H123021   0.189   6.576   0.228 -0.0114 -1.0945  1.2072
  510TIP3    H223022   0.135   6.653   0.347 -0.2375  0.1195  0.3317
  511TIP3   OH223023   3.229   5.188  15.444  0.7293  0.5370 -0.5572
  511TIP3    H123024   3.185   5.106  15.423  2.2102 -0.0822 -1.2272
  511TIP3    H223025   3.166   5.256  15.416 -0.5363 -0.3398  0.1051
  512TIP3   OH223026   6.060   4.466   0.367  0.2807 -0.0771 -0.6833
  512TIP3    H123027   6.110   4.518   0.304  2.1958 -0.6720  0.3069
  512TIP3    H223028   6.068   4.376   0.335 -1.5958 -0.0021 -1.4442
  513TIP3   OH223029   2.447   4.877   3.881  0.2729 -0.2979  0.0251
  513TIP3    H123030   2.540   4.881   3.856  0.8066 -1.6500  1.7003
  513TIP3    H223031   2.446   4.906   3.972 -0.7090 -1.9196  0.5507
  514TIP3   OH223032   2.264   4.570  12.168  0.2075  0.2335  0.4941
  514TIP3    H123033   2.284   4.496  12.226 -1.0016 -1.4057 -1.1010
  514TIP3    H223034   2.283   4.647  12.220  2.6838 -1.2045  1.8190
  515TIP3   OH223035   4.887   4.603   3.109  0.3530 -0.5122 -0.1139
  515TIP3    H123036   4.796   4.627   3.127  0.6414 -0.5249  1.4648
  515TIP3    H223037   4.893   4.600   3.014 -1.1451  0.0857 -0.2406
  516TIP3   OH223038   1.000   5.438   0.942 -0.2321  0.0443  0.5664
  516TIP3    H123039   1.029   5.423   1.031 -0.2518 -0.7092  0.4452
  516TIP3    H223040   1.042   5.369   0.890 -1.4159 -0.4502  0.2325
  517TIP3   OH223041   5.880   6.814   3.301 -0.4517 -0.2464 -0.6176
  517TIP3    H123042   5.960   6.831   3.350  0.6098 -1.6747 -1.8122
  517TIP3    H223043   5.828   6.894   3.311  1.7489  1.2792 -1.0428
  518TIP3   OH223044   0.971   5.813  15.572  0.5256 -0.0497  0.2216
  518TIP3    H123045   0.980   5.772  15.657  0.8144  2.0354  1.2271
  518TIP3    H223046   0.929   5.746  15.517 -3.6988  0.0081  3.1339
  519TIP3   OH223047   5.989   6.192   2.936 -0.4109  0.4043  0.6369
  519TIP3    H123048   5.963   6.118   2.882 -3.9316  2.0724 -0.1122
  519TIP3    H223049   5.909   6.243   2.947  1.2977  2.6400  3.4542
  520TIP3   OH223050   1.317   4.864   3.251 -0.3281  0.7407  0.1402
  520TIP3    H123051   1.335   4.830   3.339 -0.8828 -0.2073 -0.1165
  520TIP3    H223052   1.225   4.845   3.236 -0.2995  1.1404 -0.5461
  521TIP3   OH223053   3.276   0.362   4.319  0.1633 -0.2692  0.0185
  521TIP3    H123054   3.198   0.400   4.360  0.1833 -0.4124  0.1870
  521TIP3    H223055   3.320   0.437   4.278 -0.5051 -0.3184 -0.7985
  522TIP3   OH223056   2.971   4.394  16.730  0.0837 -0.1243  0.2460
  522TIP3    H123057   2.994   4.313  16.775 -0.6264 -0.3090  0.2827
  522TIP3    H223058   2.965   4.459  16.800 -0.4805 -0.2944  0.3599
  523TIP3   OH223059   3.226   6.665   4.921 -0.2583  0.5780 -0.8234
  523TIP3    H123060   3.247   6.721   4.996  1.0816 -1.2029  0.2054
  523TIP3    H223061   3.143   6.698   4.888 -1.4026  0.8034  2.0843
  524TIP3   OH223062   6.496   4.122   5.552 -0.1718  0.1541 -0.0047
  524TIP3    H123063   6.545   4.045   5.524 -1.2846  0.0181 -1.6395
  524TIP3    H223064   6.410   4.089   5.577  0.1137  0.5636  1.5797
  525TIP3   OH223065   3.213   5.846   0.568 -0.2934  0.0461 -0.3323
  525TIP3    H123066   3.160   5.872   0.643 -0.9297 -1.0611 -0.3828
  525TIP3    H223067   3.203   5.917   0.505 -0.8245  0.3613  0.1110
  526TIP3   OH223068   6.305   5.135   2.296  0.1540 -0.2268 -0.6123
  526TIP3    H123069   6.291   5.045   2.268 -0.1192 -1.2334  2.5473
  526TIP3    H223070   6.225   5.181   2.272 -0.3746 -1.2126 -0.7561
  527TIP3   OH223071   6.284   0.240   5.600  0.3279 -0.2838  0.3916
  527TIP3    H123072   6.305   0.332   5.581  1.0415 -0.4082  0.5774
  527TIP3    H223073   6.192   0.242   5.628  0.4634  0.4350  0.8041
  528TIP3   OH223074   2.412   1.625   4.277 -0.1724 -0.9557  0.1162
  528TIP3    H123075   2.453   1.616   4.191 -0.4771 -1.0850 -0.0136
  528TIP3    H223076   2.390   1.718   4.284 -1.7902 -1.2566 -0.6908
  529TIP3   OH223077   0.346   6.800   1.785  0.5046  0.3321 -0.2630
  529TIP3    H123078   0.419   6.827   1.840  0.5766 -1.2085  0.4443
  529TIP3    H223079   0.296   6.879   1.770  1.2083  1.0217  0.9405
  530TIP3   OH223080   3.921   2.748   5.982 -0.2089 -0.0380 -0.0277
  530TIP3    H123081   3.898   2.837   5.955 -1.6546 -0.4333 -0.1464
  530TIP3    H223082   3.876   2.736   6.065  0.3444 -0.5140  0.2064
  531TIP3   OH223083   0.409   2.913   5.286 -0.0565  0.0080 -0.4761
  531TIP3    H123084   0.317   2.923   5.308 -0.3647  0.0583 -1.7131
  531TIP3    H223085   0.449   2.996   5.314 -0.4583  0.1311 -0.2629
  532TIP3   OH223086   2.038   0.144  15.211  0.2269  0.1953 -0.4911
  532TIP3    H123087   2.022   0.224  15.161  1.3486  0.4576 -0.4614
  532TIP3    H223088   1.977   0.080  15.176  1.4149  0.1951 -2.6241
  533TIP3   OH223089   3.201   4.729  13.407  0.2503 -0.2837 -0.4337
  533TIP3    H123090   3.234   4.683  13.484  1.1538 -1.1536 -1.3236
  533TIP3    H223091   3.134   4.788  13.441  0.1580 -1.1492  0.9235
  534TIP3   OH223092   1.195   3.324  11.626  0.4532  0.3826 -0.2805
  534TIP3    H123093   1.261   3.273  11.581 -0.2927 -0.6702 -0.1902
  534TIP3    H223094   1.185   3.282  11.711  0.2384  1.0147  0.0156
  535TIP3   OH223095   5.640   1.316   4.794  0.1161  0.2772  0.3934
  535TIP3    H123096   5.650   1.411   4.797  1.3245  0.1418  1.0931
  535TIP3    H223097   5.703   1.283   4.858  1.1323 -1.0795 -1.2547
  536TIP3   OH223098   1.869   4.908   2.518  0.3464  0.6500 -0.7883
  536TIP3    H123099   1.804   4.841   2.495  0.0115  0.6616  0.1208
  536TIP3    H223100   1.895   4.887   2.607  1.3803  0.8277 -1.0447
  537TIP3   OH223101   6.406   5.800   0.062 -0.3198  0.3535 -0.4272
  537TIP3    H123102   6.486   5.764   0.024 -0.0672  0.3172  0.1228
  537TIP3    H223103   6.429   5.817   0.154 -1.3101 -0.8166  0.0586
  538TIP3   OH223104   4.648   0.503  15.332 -0.1395  0.6174  0.5533
  538TIP3    H123105   4.657   0.537  15.243  2.4709 -0.0612  0.5325
  538TIP3    H223106   4.570   0.547  15.366 -0.6654  1.5517 -1.7475
  539TIP3   OH223107   3.801   6.625  13.898 -0.4195  0.3986  0.2169
  539TIP3    H123108   3.846   6.544  13.874  0.2705  0.7678  0.2753
  539TIP3    H223109   3.786   6.618  13.992 -0.2428  0.3994  0.2443
  540TIP3   OH223110   1.190   1.356  11.558  0.3298  0.4029  0.0276
  540TIP3    H123111   1.274   1.397  11.538 -0.3228  2.3858  1.2493
  540TIP3    H223112   1.132   1.386  11.488  0.7804 -1.4758 -1.1720
  541TIP3   OH223113   0.599   3.155   4.724  0.7319 -0.1249  0.3029
  541TIP3    H123114   0.660   3.082   4.726  1.1380  0.2333  1.3078
  541TIP3    H223115   0.577   3.171   4.816 -1.3459 -0.6300 -0.0737
  542TIP3   OH223116   4.658   4.655  15.270 -0.4859  0.0272 -0.3504
  542TIP3    H123117   4.587   4.717  15.254 -0.5136 -0.6997 -3.4938
  542TIP3    H223118   4.724   4.706  15.318 -1.3751  1.8921 -1.0445
  543TIP3   OH223119   3.514   0.251   1.910  0.1420  0.4871  0.1690
  543TIP3    H123120   3.582   0.296   1.960  1.5586 -0.9757 -0.4011
  543TIP3    H223121   3.482   0.183   1.969 -0.6580  1.0133  0.3463
  544TIP3   OH223122   6.334   2.223   5.850 -0.4369  0.0847 -0.2929
  544TIP3    H123123   6.377   2.209   5.935 -2.3132  0.1755  0.7035
  544TIP3    H223124   6.346   2.140   5.804  0.4503 -0.0309  0.1420
  545TIP3   OH223125   2.276   1.973  13.185  0.2558  0.6480 -0.1350
  545TIP3    H123126   2.262   1.951  13.093  0.8244  0.5863 -0.2117
  545TIP3    H223127   2.359   2.022  13.185  0.2921  0.5844  0.3523
  546TIP3   OH223128   5.803   1.880  16.044 -0.2269 -0.3919 -0.3477
  546TIP3    H123129   5.885   1.867  15.996 -0.1181 -1.6755  0.1481
  546TIP3    H223130   5.756   1.946  15.994  1.5064  1.0508 -0.1349
  547TIP3   OH223131   5.921   4.512   2.165  0.1220 -0.1078  0.2972
  547TIP3    H123132   5.929   4.420   2.139  1.6980  0.1768 -0.2790
  547TIP3    H223133   5.828   4.522   2.188 -0.1780 -1.7071 -0.1109
  548TIP3   OH223134   0.842   0.250  17.004 -0.1204  0.1069 -0.3455
  548TIP3    H123135   0.935   0.237  16.987 -0.1569 -1.7915  0.7986
  548TIP3    H223136   0.833   0.241  17.099 -1.2608  1.7694 -0.2755
  549TIP3   OH223137   1.358   4.795   3.517  0.1441 -0.0954 -0.3164
  549TIP3    H123138   1.358   4.869   3.577 -0.0074  0.0812 -0.5352
  549TIP3    H223139   1.300   4.731   3.558 -1.6180  0.8446 -1.2802
  550TIP3   OH223140   2.203   2.725   4.655 -0.0462  0.1076  0.6920
  550TIP3    H123141   2.253   2.806   4.640 -0.0094  0.3908  2.2614
  550TIP3    H223142   2.117   2.756   4.683 -0.9297 -0.3860 -1.3865
  551TIP3   OH223143   5.882   0.294  13.342 -0.3457  0.0341  0.3464
  551TIP3    H123144   5.954   0.273  13.402 -0.1519 -1.9920 -0.5320
  551TIP3    H223145   5.821   0.345  13.394  1.5763  1.5037  1.2105
  552TIP3   OH223146   6.724   4.440  13.527 -0.1911 -0.3618  0.0983
  552TIP3    H123147   6.754   4.354  13.496  1.6734 -0.4271  1.9659
  552TIP3    H223148   6.717   4.429  13.622  0.5053  1.6984  0.3981
  553TIP3   OH223149   0.808   4.830   2.515  0.3810 -0.4833 -0.5451
  553TIP3    H123150   0.780   4.745   2.547  0.2843 -1.1683 -2.3748
  553TIP3    H223151   0.742   4.891   2.547  0.6483 -1.0381  1.0768
  554TIP3   OH223152   5.120   3.601  15.957  0.0706  0.6639  0.2779
  554TIP3    H123153   5.108   3.623  15.864 -0.6972 -3.2401 -0.6367
  554TIP3    H223154   5.211   3.623  15.975  0.0179  2.1980 -1.1601
  555TIP3   OH223155   3.252   4.953  10.413 -0.7312 -0.6780 -0.4707
  555TIP3    H123156   3.224   5.031  10.460  0.0401 -0.3702 -0.5147
  555TIP3    H223157   3.199   4.882  10.450 -1.8598 -0.0368 -0.8644
  556TIP3   OH223158   2.802   4.292   4.754  0.2717  0.2575  0.8542
  556TIP3    H123159   2.739   4.276   4.825 -0.1473  1.7867  0.8462
  556TIP3    H223160   2.775   4.375   4.716  2.0437  0.7251  0.5659
  557TIP3   OH223161   6.097   1.112   1.748 -0.2985  0.2526  0.0036
  557TIP3    H123162   6.132   1.074   1.829  0.1752  0.2515 -0.1952
  557TIP3    H223163   6.019   1.060   1.729 -0.3332  0.1618  0.3823
  558TIP3   OH223164   5.619   4.002  13.716  0.2296  0.1576 -0.4458
  558TIP3    H123165   5.701   4.023  13.759  0.3109  1.1613 -1.0819
  558TIP3    H223166   5.608   4.070  13.649 -1.1023  0.0230 -0.3870
  559TIP3   OH223167   6.436   0.381  14.105 -0.4823  0.3302 -0.3405
  559TIP3    H123168   6.484   0.408  14.183 -0.3291  1.1529 -0.7155
  559TIP3    H223169   6.499   0.327  14.056  0.1905  1.6963 -1.0017
  560TIP3   OH223170   4.623   1.786  15.294 -0.1375 -0.8339  0.0181
  560TIP3    H123171   4.580   1.861  15.253 -2.1679 -2.3087 -0.6575
  560TIP3    H223172   4.716   1.806  15.289 -0.6863  2.2280  1.0393
  561TIP3   OH223173   1.406   1.371  11.248  0.9375 -0.3265  0.2305
  561TIP3    H123174   1.429   1.440  11.185  2.0582 -0.1787  0.7815
  561TIP3    H223175   1.473   1.378  11.315 -0.6333 -0.0372  1.8009
  562TIP3   OH223176   5.816   2.355   0.754  0.0891 -0.8099 -0.1887
  562TIP3    H123177   5.893   2.392   0.711 -0.1231 -1.3331 -1.0131
  562TIP3    H223178   5.850   2.280   0.804  0.4301  0.1404  1.0481
  563TIP3   OH223179   6.562   5.844  16.728  0.2977  0.9808  0.1552
  563TIP3    H123180   6.554   5.751  16.753  1.0768  0.5877 -1.0168
  563TIP3    H223181   6.654   5.865  16.745  0.3750  1.2405 -0.5758
  564TIP3   OH223182   1.030   2.592  10.645 -0.0634  0.2597  0.1487
  564TIP3    H123183   1.068   2.553  10.723  0.4300 -0.9138 -0.6663
  564TIP3    H223184   0.942   2.555  10.639  0.0084  0.1194 -0.0265
  565TIP3   OH223185   3.090   4.314   0.638  0.7442  0.5377  0.2826
  565TIP3    H123186   3.089   4.229   0.683 -1.1326  0.6740  0.5358
  565TIP3    H223187   3.036   4.371   0.693 -2.6342  0.3861 -2.6835
  566TIP3   OH223188   6.255   1.926   4.528 -0.0434  0.5260 -0.0943
  566TIP3    H123189   6.235   1.893   4.441  3.5498 -0.2735 -0.7012
  566TIP3    H223190   6.174   1.915   4.577 -0.6856 -3.8460 -1.9156
  567TIP3   OH223191   1.008   3.667  15.387  0.1927 -0.0589 -0.0531
  567TIP3    H123192   1.071   3.715  15.334  0.9413 -1.4855 -0.4623
  567TIP3    H223193   0.998   3.583  15.343 -0.6247 -0.5315  1.0099
  568TIP3   OH223194   5.196   3.709   1.988 -0.2649  0.2603  0.9238
  568TIP3    H123195   5.237   3.625   1.965  0.4009  0.2886  1.9648
  568TIP3    H223196   5.266   3.773   1.975 -0.1993  0.4086  1.9506
  569TIP3   OH223197   1.497   4.518  12.242 -0.2211  0.3623 -0.1229
  569TIP3    H123198   1.537   4.604  12.233 -0.9537  0.6344 -0.7591
  569TIP3    H223199   1.434   4.528  12.313 -0.6324  0.4686 -0.5023
  570TIP3   OH223200   1.035   3.229   1.059 -0.6388  0.0306 -0.4374
  570TIP3    H123201   1.020   3.321   1.080 -1.0584  0.0773 -0.9121
  570TIP3    H223202   1.050   3.228   0.964  0.0013 -0.3129 -0.3310
  571TIP3   OH223203   3.300   2.095  12.703  0.2356  0.7629  0.8945
  571TIP3    H123204   3.272   2.185  12.685 -1.7942  0.2533  1.4004
  571TIP3    H223205   3.266   2.076  12.790 -1.6314 -1.3505 -0.2347
  572TIP3   OH223206   0.775   1.222  16.318  0.3928 -0.5779 -0.3201
  572TIP3    H123207   0.729   1.304  16.336 -0.1266 -1.5233  3.0718
  572TIP3    H223208   0.865   1.239  16.346  0.7186 -0.5647 -1.3886
  573TIP3   OH223209   1.481   3.383   0.076 -0.2622 -0.2842 -0.1445
  573TIP3    H123210   1.522   3.443   0.014 -0.7773 -1.9361 -2.1320
  573TIP3    H223211   1.553   3.347   0.126  0.2995  0.0587 -0.7011
  574TIP3   OH223212   3.070   0.995   1.400  0.1384  0.1562  0.2955
  574TIP3    H123213   3.166   0.987   1.402  0.3088  2.0421  0.9380
  574TIP3    H223214   3.055   1.088   1.387 -1.6256  0.0911  1.7979
  575TIP3   OH223215   4.524   2.625  16.607 -0.4359  0.4124  0.6315
  575TIP3    H123216   4.442   2.643  16.652 -1.2411 -1.1906 -0.1344
  575TIP3    H223217   4.567   2.558  16.660  0.4031  1.2653  1.0447
  576TIP3   OH223218   6.672   6.506   1.127  0.3087 -0.5238 -0.1965
  576TIP3    H123219   6.658   6.587   1.175 -0.4876 -1.9752  2.1011
  576TIP3    H223220   6.761   6.480   1.149 -0.1793 -1.3745  0.8332
  577TIP3   OH223221   5.276   4.930  13.183 -0.1052  0.4486 -0.0743
  577TIP3    H123222   5.290   4.851  13.236  0.2903  0.5566 -0.0111
  577TIP3    H223223   5.329   4.915  13.105  0.8095  1.1053  0.4136
  578TIP3   OH223224   4.180   3.026  14.288  0.5074  0.1407  0.8839
  578TIP3    H123225   4.112   3.082  14.325  0.3196  1.1765 -0.9702
  578TIP3    H223226   4.253   3.086  14.271  0.1503 -0.0837 -1.5204
  579TIP3   OH223227   1.812   3.156  13.027 -0.4468 -0.2220 -0.5011
  579TIP3    H123228   1.802   3.242  12.986  1.5705  1.4348  2.2736
  579TIP3    H223229   1.852   3.102  12.959 -2.3678  0.8068 -2.5152
  580TIP3   OH223230   6.766   3.730  16.347  0.0670  0.1067 -0.4133
  580TIP3    H123231   6.762   3.820  16.314 -0.2342  0.2926  0.1161
  580TIP3    H223232   6.786   3.740  16.440  0.1518 -0.3822 -0.3788
  581TIP3   OH223233   1.316   3.212  11.854  0.0331 -0.3743  0.5706
  581TIP3    H123234   1.254   3.242  11.921 -0.4513  1.1445 -0.5200
  581TIP3    H223235   1.379   3.158  11.902 -2.0743 -1.8910  1.7353
  582TIP3   OH223236   3.028   2.116  14.913 -0.4898  0.3139 -0.5920
  582TIP3    H123237   2.943   2.136  14.953  0.4809  1.7843  0.7895
  582TIP3    H223238   3.006   2.060  14.839 -2.6897  0.8231 -0.3796
  583TIP3   OH223239   0.557   2.738   2.559  0.3192  0.0037  0.4428
  583TIP3    H123240   0.536   2.801   2.491  1.2241 -0.0080  0.1470
  583TIP3    H223241   0.486   2.747   2.623 -0.9339 -0.5111 -0.8408
  584TIP3   OH223242   1.423   5.907   5.439 -0.0215  0.6184 -0.2488
  584TIP3    H123243   1.379   5.985   5.405 -1.0835 -0.0397 -0.4441
  584TIP3    H223244   1.354   5.841   5.441  1.2102 -0.7472 -1.5614
  585TIP3   OH223245   0.847   3.912   4.254 -0.4403  0.2588  0.5308
  585TIP3    H123246   0.779   3.880   4.194 -0.2288  1.0675 -0.1427
  585TIP3    H223247   0.929   3.895   4.207 -0.1733 -0.6533  1.3137
  586TIP3   OH223248   5.936   2.771   5.208  0.3016  0.1755 -0.0053
  586TIP3    H123249   5.868   2.835   5.230  0.2625 -0.0924  0.6688
  586TIP3    H223250   5.931   2.706   5.278 -0.0372 -0.8680 -0.9887
  587TIP3   OH223251   1.870   2.547   4.866 -0.2470 -0.3780 -0.2107
  587TIP3    H123252   1.789   2.540   4.916 -0.9839  2.6335 -0.8409
  587TIP3    H223253   1.939   2.547   4.932 -0.7515 -2.6921  0.3422
  588TIP3   OH223254   3.874   0.741   1.150  0.0741 -0.4490  0.2641
  588TIP3    H123255   3.831   0.718   1.232 -1.5339 -0.4407 -0.5441
  588TIP3    H223256   3.874   0.660   1.099 -2.1197  0.3405 -1.0770
  589TIP3   OH223257   6.385   4.917  16.763 -0.1348  0.2212  0.4448
  589TIP3    H123258   6.315   4.982  16.775 -0.0294  0.4196 -0.0269
  589TIP3    H223259   6.423   4.907  16.850  0.0309  0.9984  0.4604
  590TIP3   OH223260   1.052   6.749  13.480 -0.4008  1.0521 -0.0557
  590TIP3    H123261   1.065   6.713  13.392  0.3118 -1.6965  1.1232
  590TIP3    H223262   1.141   6.769  13.510 -0.6472  2.0208  0.0268
  591TIP3   OH223263   2.331   6.451   1.353  0.0669 -0.0261  0.6506
  591TIP3    H123264   2.398   6.459   1.421  0.2927  2.7287  0.1678
  591TIP3    H223265   2.368   6.497   1.278 -1.4370 -0.4374 -0.3541
  592TIP3   OH223266   6.622   0.134   5.685  0.0062  0.0094  0.2532
  592TIP3    H123267   6.672   0.064   5.643  1.4289  0.3134  1.3899
  592TIP3    H223268   6.584   0.092   5.763  0.5417  0.3880  0.7258
  593TIP3   OH223269   2.002   0.018  12.801  0.0754  0.1032  0.3055
  593TIP3    H123270   1.988  -0.074  12.822  1.0368 -0.5217 -1.6569
  593TIP3    H223271   1.961   0.029  12.715  0.5384  1.3492  0.2365
  594TIP3   OH223272   2.830   1.663   3.425 -0.7780 -0.2585  0.1365
  594TIP3    H123273   2.862   1.710   3.502  1.3237 -2.1496  0.4718
  594TIP3    H223274   2.788   1.730   3.371  0.1064  1.5667  1.6728
  595TIP3   OH223275   1.436   3.341  13.933  0.0907  0.1707 -0.4855
  595TIP3    H123276   1.434   3.252  13.970 -0.9188  0.4387  0.1225
  595TIP3    H223277   1.478   3.394  14.001  1.6378 -0.0287 -1.2739
  596TIP3   OH223278   3.636   3.384  15.905 -0.0758 -0.3853  0.3699
  596TIP3    H123279   3.662   3.385  15.813  0.7272 -1.2615  0.5895
  596TIP3    H223280   3.557   3.329  15.907 -0.2080 -0.2052  0.1816
  597TIP3   OH223281   5.851   5.532  14.944 -0.2750  0.5279  0.1164
  597TIP3    H123282   5.939   5.541  14.907 -0.3486  0.4074 -0.0859
  597TIP3    H223283   5.858   5.570  15.032 -0.1095  0.8614 -0.0358
  598TIP3   OH223284   5.768   4.154   3.990 -0.2193  0.5265  0.4367
  598TIP3    H123285   5.697   4.145   4.054  0.0469  1.6177  0.8896
  598TIP3    H223286   5.727   4.200   3.916 -1.0324 -2.3470 -1.0188
  599TIP3   OH223287   6.818   0.011  14.582 -0.3023  0.0623  0.0636
  599TIP3    H123288   6.770  -0.060  14.539 -0.7446  0.4866 -0.1550
  599TIP3    H223289   6.882   0.040  14.517  0.5204 -0.7701  0.5019
  600TIP3   OH223290   6.548   2.150  15.521  0.4259 -0.0639  0.2177
  600TIP3    H123291   6.580   2.173  15.434 -0.5843 -1.2537 -0.4819
  600TIP3    H223292   6.604   2.199  15.581 -0.1264  2.3023 -1.1432
  601TIP3   OH223293   4.113   5.112   4.544  0.4128 -0.6732  0.3847
  601TIP3    H123294   4.102   5.118   4.449 -0.5737 -0.0360  0.5417
  601TIP3    H223295   4.029   5.082   4.577  0.3579  0.3419  1.1871
  602TIP3   OH223296   0.682   0.603   4.444  0.3294  0.2061 -0.4668
  602TIP3    H123297   0.775   0.581   4.440  0.3983  0.0644  1.3073
  602TIP3    H223298   0.669   0.633   4.534 -1.7039 -1.4068 -0.1881
  603TIP3   OH223299   6.806   3.874   5.116 -0.0315  0.2427 -0.1691
  603TIP3    H123300   6.865   3.874   5.192 -0.2163 -0.5020 -0.0231
  603TIP3    H223301   6.865   3.882   5.041  0.2568 -0.4209 -0.0187
  604TIP3   OH223302   3.271   3.853  13.457 -0.1852 -0.2460  0.2908
  604TIP3    H123303   3.353   3.881  13.417 -0.4477  0.8956  0.5248
  604TIP3    H223304   3.284   3.869  13.551 -0.1322 -1.4712  0.5062
  605TIP3   OH223305   6.551   4.159   6.047 -0.2703  0.5150 -0.0784
  605TIP3    H123306   6.478   4.220   6.032  1.2338  1.9862 -1.5178
  605TIP3    H223307   6.558   4.108   5.967  0.3543  0.4451  0.0165
  606TIP3   OH223308   1.541   1.397  13.988  0.2589  0.6797  0.1553
  606TIP3    H123309   1.577   1.350  13.913 -0.4366 -1.3452  1.0483
  606TIP3    H223310   1.562   1.489  13.972 -0.2735  0.3297 -2.7371
  607TIP3   OH223311   3.285   5.500   1.286 -0.4609 -0.0324  0.3771
  607TIP3    H123312   3.201   5.545   1.277 -0.0791  0.7446  0.5983
  607TIP3    H223313   3.331   5.519   1.205 -0.4671 -0.4032  0.2844
  608TIP3   OH223314   4.534   5.148   0.688 -0.4818  0.2259 -0.4487
  608TIP3    H123315   4.528   5.056   0.662 -1.7323  0.4246 -0.8951
  608TIP3    H223316   4.461   5.161   0.748 -2.0514  1.6388 -2.5900
  609TIP3   OH223317   3.592   3.100  16.619  0.1654 -0.4457 -0.0921
  609TIP3    H123318   3.651   3.175  16.613 -0.5019  0.2034  1.2317
  609TIP3    H223319   3.571   3.079  16.528  1.4367  0.0957 -0.5338
  610TIP3   OH223320   2.995   3.861  14.198 -0.3194 -0.1901 -0.0487
  610TIP3    H123321   2.962   3.948  14.218 -0.5072  0.0032 -1.2169
  610TIP3    H223322   3.051   3.873  14.122  0.4415 -0.9342  0.3812
  611TIP3   OH223323   4.439   6.017   0.622  0.1909  0.2051  0.0653
  611TIP3    H123324   4.447   5.976   0.536 -0.3676  1.4371 -0.5976
  611TIP3    H223325   4.407   5.947   0.679  1.8680 -0.9745 -0.4135
  612TIP3   OH223326   3.514   3.489   3.157 -0.2010 -0.0700 -0.2882
  612TIP3    H123327   3.558   3.524   3.079  1.1025 -1.5363 -0.2516
  612TIP3    H223328   3.453   3.424   3.123 -0.5486  0.1984 -0.1743
  613TIP3   OH223329   6.812   1.585   2.897  0.3880 -0.1778 -0.0780
  613TIP3    H123330   6.768   1.618   2.819 -0.7782  0.1466  0.7099
  613TIP3    H223331   6.744   1.539   2.945  0.4660  1.8264  2.0194
  614TIP3   OH223332   5.590   1.960   5.391 -0.2515  0.2468  0.1896
  614TIP3    H123333   5.595   2.054   5.375 -0.4214  0.0868 -0.9052
  614TIP3    H223334   5.501   1.946   5.424 -0.7156  0.3024 -0.9898
  615TIP3   OH223335   3.968   6.485  11.744 -0.0902  0.2785 -0.1643
  615TIP3    H123336   4.023   6.517  11.672  0.5405 -1.2539 -0.4001
  615TIP3    H223337   3.946   6.563  11.795  2.2516  0.9445 -0.1216
  616TIP3   OH223338   6.574   2.206   3.165 -0.4437 -0.4304 -0.4235
  616TIP3    H123339   6.563   2.274   3.231  0.4074 -0.3083 -0.4050
  616TIP3    H223340   6.657   2.164   3.186  0.4115  0.3682 -2.1018
  617TIP3   OH223341   1.723   0.653   0.663 -0.9716 -0.0812  0.1075
  617TIP3    H123342   1.730   0.598   0.585 -0.6099 -0.0826  0.1408
  617TIP3    H223343   1.774   0.731   0.642 -0.1220 -0.4644  0.6717
  618TIP3   OH223344   1.035   5.976  16.339 -0.2459 -0.5025 -0.0500
  618TIP3    H123345   0.966   5.935  16.391 -1.1469 -0.4243 -1.1803
  618TIP3    H223346   1.029   6.069  16.361 -0.6953 -0.4549 -0.3621
  619TIP3   OH223347   4.782   6.601   3.208  0.0788  0.0787 -0.1248
  619TIP3    H123348   4.857   6.570   3.158 -0.4556  1.3858 -1.7555
  619TIP3    H223349   4.811   6.684   3.247  0.4566 -0.8662  1.6872
  620TIP3   OH223350   4.477   6.249  14.282 -0.3166 -0.3253 -0.0257
  620TIP3    H123351   4.510   6.170  14.239  0.0923  0.1681 -0.6273
  620TIP3    H223352   4.451   6.306  14.209 -0.9643 -0.0534  0.4112
  621TIP3   OH223353   0.072   3.665   1.627  0.2383 -0.4540 -0.5775
  621TIP3    H123354   0.162   3.634   1.617 -0.1734 -1.5369 -0.9955
  621TIP3    H223355   0.034   3.658   1.539 -0.1739  0.2894 -0.4697
  622TIP3   OH223356   2.404   1.673   2.907  0.4444 -0.1478 -0.2094
  622TIP3    H123357   2.495   1.698   2.888  0.6698  0.0849  1.1116
  622TIP3    H223358   2.365   1.753   2.944 -0.2967 -0.2525 -0.7574
  623TIP3   OH223359   0.199   3.342  10.884  0.3400 -0.4123 -0.0977
  623TIP3    H123360   0.204   3.431  10.919  1.7593 -0.6422  0.3507
  623TIP3    H223361   0.118   3.340  10.833 -1.8182 -0.0293  3.1488
  624TIP3   OH223362   0.428   4.268   0.851  0.4577 -0.2931  0.3752
  624TIP3    H123363   0.422   4.359   0.880 -2.3229 -0.5078  0.6060
  624TIP3    H223364   0.438   4.274   0.756 -2.0021  0.2514  0.1192
  625TIP3   OH223365   5.605   2.930   1.942  0.0665 -0.4657 -0.3195
  625TIP3    H123366   5.582   2.952   2.033  0.6518 -1.7367  0.1520
  625TIP3    H223367   5.535   2.968   1.890  0.6422  1.8177  0.5217
  626TIP3   OH223368   2.112   6.243   6.018  0.1792 -0.2748  0.5605
  626TIP3    H123369   2.079   6.326   6.052  0.3779  0.0518 -0.0460
  626TIP3    H223370   2.122   6.187   6.096 -0.2930  0.1477  0.9248
  627TIP3   OH223371   1.479   5.899  15.328 -0.0351 -0.4569  0.3343
  627TIP3    H123372   1.405   5.840  15.318  0.9102 -1.6059  0.0731
  627TIP3    H223373   1.485   5.914  15.423 -2.7692  2.4790  0.1529
  628TIP3   OH223374   5.727   6.037   1.483 -0.4632  0.3402  0.0906
  628TIP3    H123375   5.681   5.957   1.509 -0.9951  0.9547  1.0097
  628TIP3    H223376   5.820   6.012   1.483 -0.6683 -0.4423 -0.2273
  629TIP3   OH223377   3.813   0.025   4.563  0.5695 -0.0146  0.4128
  629TIP3    H123378   3.754   0.097   4.587 -0.6850 -1.0664  0.5633
  629TIP3    H223379   3.761  -0.029   4.504  0.9412 -1.6301  1.5273
  630TIP3   OH223380   4.616   3.181  16.298 -0.2893 -0.5326  0.3732
  630TIP3    H123381   4.531   3.197  16.257  0.4439 -1.7524 -1.7547
  630TIP3    H223382   4.612   3.226  16.382 -2.1406  1.4821 -0.7513
  631TIP3   OH223383   1.494   4.552   4.038  0.4512  0.1732 -0.8422
  631TIP3    H123384   1.580   4.544   4.080  0.2986  0.8662 -0.3918
  631TIP3    H223385   1.499   4.493   3.963  1.1810 -0.0978 -0.5881
  632TIP3   OH223386   0.518   4.832  17.224 -0.1250  0.0522  0.5390
  632TIP3    H123387   0.517   4.778  17.145  0.1848  0.1116  0.4941
  632TIP3    H223388   0.574   4.784  17.285  2.5271  1.7236 -0.4988
  633TIP3   OH223389   1.549   6.731   3.064 -0.0824  0.3469  0.1152
  633TIP3    H123390   1.454   6.744   3.064 -0.2648 -0.7231 -2.0912
  633TIP3    H223391   1.564   6.665   2.996  2.1552 -0.2235  1.1114
  634TIP3   OH223392   4.230   6.237   4.290  0.1461  0.1278  0.4918
  634TIP3    H123393   4.301   6.280   4.338  0.9665  1.1790 -1.5908
  634TIP3    H223394   4.178   6.309   4.254 -2.6747 -0.6217  2.9223
  635TIP3   OH223395   6.230   0.085   2.047 -0.8528 -0.4353 -0.0610
  635TIP3    H123396   6.303   0.112   2.103  0.4025  0.6880 -2.1664
  635TIP3    H223397   6.163   0.056   2.107 -0.4359  2.9301  2.1660
  636TIP3   OH223398   6.036   5.253  11.938 -0.0875  0.1134  0.3676
  636TIP3    H123399   5.984   5.176  11.918  0.1007 -0.6640  2.7167
  636TIP3    H223400   6.123   5.218  11.958  0.4512  1.0927 -0.2479
  637TIP3   OH223401   2.105   6.359  13.623 -0.5174  0.3422 -0.7919
  637TIP3    H123402   2.140   6.446  13.603 -2.9957  0.9115 -2.8707
  637TIP3    H223403   2.142   6.302  13.556  0.6059 -0.0896  0.1912
  638TIP3   OH223404   0.115   1.448   5.222 -0.2247  0.5164 -0.3644
  638TIP3    H123405   0.206   1.472   5.205  0.1479 -0.9523 -0.4655
  638TIP3    H223406   0.090   1.394   5.147 -1.2707  1.1238 -0.4684
  639TIP3   OH223407   1.937   4.820  12.277  0.1752  0.1765  0.1949
  639TIP3    H123408   2.030   4.835  12.294  0.1869  0.3219 -0.0005
  639TIP3    H223409   1.935   4.773  12.193  0.0855 -0.0195  0.3073
  640TIP3   OH223410   2.506   3.330   3.071 -0.0008 -0.6245 -0.6713
  640TIP3    H123411   2.543   3.242   3.072  0.5348 -0.4049 -0.5333
  640TIP3    H223412   2.510   3.358   3.163 -3.4069 -1.7660 -0.1313
  641TIP3   OH223413   5.937   2.380  13.925 -0.0897  0.3335 -0.0909
  641TIP3    H123414   5.886   2.378  14.006  0.8201  1.2498  0.5274
  641TIP3    H223415   5.913   2.300  13.879 -3.0738  1.3810 -0.4275
  642TIP3   OH223416   2.757   6.589   5.049  0.2076  0.3136  0.3658
  642TIP3    H123417   2.831   6.571   5.107  0.0618 -0.1970  0.3970
  642TIP3    H223418   2.796   6.633   4.974  0.6444 -0.6020  0.0552
  643TIP3   OH223419   6.084   5.269   2.207  0.2339 -0.4346  0.3290
  643TIP3    H123420   6.089   5.360   2.179  0.8896 -0.4499  0.3858
  643TIP3    H223421   6.017   5.230   2.151 -0.3943  0.2031  0.6389
  644TIP3   OH223422   1.058   5.690   6.414 -0.2577 -0.1748 -0.2944
  644TIP3    H123423   0.990   5.730   6.467  0.7548  3.8628 -1.8281
  644TIP3    H223424   1.029   5.703   6.324  1.6556  0.0243 -0.9145
  645TIP3   OH223425   1.923   3.968   2.066  0.2621 -0.1586 -0.0590
  645TIP3    H123426   1.978   3.898   2.101 -1.2905 -0.9813  0.7948
  645TIP3    H223427   1.885   3.932   1.986  1.3529  0.5929 -0.9290
  646TIP3   OH223428   1.465   2.405   5.932  0.7022 -0.2032  0.2784
  646TIP3    H123429   1.494   2.486   5.973  0.3918 -0.4956  1.0736
  646TIP3    H223430   1.503   2.335   5.986  1.5397 -0.5935 -0.7956
  647TIP3   OH223431   5.113   3.278   0.770  0.3474 -0.3112 -0.1899
  647TIP3    H123432   5.115   3.345   0.839  1.5002 -0.9851  0.4473
  647TIP3    H223433   5.059   3.317   0.702  1.8174  1.7186 -0.2658
  648TIP3   OH223434   5.032   6.163   3.354  0.0079  0.1237  0.1302
  648TIP3    H123435   5.109   6.174   3.298  1.3163  0.6786  1.9771
  648TIP3    H223436   5.036   6.237   3.414 -2.0264  0.1929  0.2263
  649TIP3   OH223437   4.151   2.079   0.657  0.3196  0.5813 -0.2051
  649TIP3    H123438   4.157   1.984   0.648  2.2680  0.7354 -0.6986
  649TIP3    H223439   4.058   2.098   0.648  0.0669 -1.1429 -1.4549
  650TIP3   OH223440   2.532   2.103   4.751  0.2050 -0.4862  0.3665
  650TIP3    H123441   2.601   2.169   4.742 -0.1622  0.2647  2.7256
  650TIP3    H223442   2.579   2.021   4.764  0.6540 -0.3798 -0.5227
  651TIP3   OH223443   4.858   5.387   5.712  0.2405  0.1767  0.0821
  651TIP3    H123444   4.800   5.329   5.662  2.4684 -2.7270  0.7029
  651TIP3    H223445   4.833   5.375   5.803 -1.5591  2.8787 -0.0106
  652TIP3   OH223446   2.227   6.068  13.608 -0.0738  0.0190  0.2771
  652TIP3    H123447   2.253   5.976  13.608  1.7202  0.5130  0.3457
  652TIP3    H223448   2.289   6.111  13.548  0.0089  1.4206  1.3208
  653TIP3   OH223449   2.627   0.980  13.934 -0.4696 -0.2621 -0.3481
  653TIP3    H123450   2.715   1.001  13.965 -0.7705 -0.1840  0.4647
  653TIP3    H223451   2.625   1.013  13.844  0.0137  0.6137 -0.0500
  654TIP3   OH223452   1.711   2.561  12.315  0.2217 -0.8116 -0.0427
  654TIP3    H123453   1.702   2.486  12.374  0.3058 -0.8189 -0.0400
  654TIP3    H223454   1.739   2.633  12.372 -1.3965 -0.3745  0.2217
  655TIP3   OH223455   3.125   6.754   6.253  0.0506  0.1661 -0.1060
  655TIP3    H123456   3.198   6.808   6.284  0.6952  0.2753 -1.7511
  655TIP3    H223457   3.070   6.741   6.330  1.6540  0.3326  1.0944
  656TIP3   OH223458   2.375   0.698  12.157  0.4100 -0.2958 -0.1779
  656TIP3    H123459   2.394   0.616  12.203 -0.8535  0.8657  2.5577
  656TIP3    H223460   2.438   0.760  12.193 -0.9291  0.7633  0.3571
  657TIP3   OH223461   6.511   6.234   0.683  0.4122 -0.0124 -0.3698
  657TIP3    H123462   6.512   6.300   0.752  2.4799 -0.3413 -0.0459
  657TIP3    H223463   6.500   6.284   0.602 -0.5926  0.4930  0.0743
  658TIP3   OH223464   1.420   2.492  13.323 -0.3097 -0.0151  0.2482
  658TIP3    H123465   1.487   2.425  13.335 -0.7391 -0.8329 -1.8178
  658TIP3    H223466   1.338   2.443  13.318 -0.4966  0.5257 -2.5820
  659TIP3   OH223467   1.553   5.933   3.619  0.2779  0.3793  0.2314
  659TIP3    H123468   1.604   5.866   3.664 -0.6455  0.3967  1.3310
  659TIP3    H223469   1.493   5.884   3.562  0.2565  0.3044  0.3195
  660TIP3   OH223470   6.146   2.628   2.143  0.3943 -0.2093 -0.4140
  660TIP3    H123471   6.066   2.598   2.187  0.2943  2.1890  1.1181
  660TIP3    H223472   6.190   2.547   2.116 -1.0664 -1.6483  1.3860
  661TIP3   OH223473   2.417   2.436   6.373 -0.3188 -0.2242 -0.2488
  661TIP3    H123474   2.384   2.424   6.284 -1.3639  0.0903  0.0917
  661TIP3    H223475   2.444   2.349   6.400 -3.4247 -1.0342  0.4721
  662TIP3   OH223476   3.035   1.802   3.591 -0.4183 -0.0377  0.0183
  662TIP3    H123477   3.096   1.819   3.519  1.2442  1.6613  1.7756
  662TIP3    H223478   3.073   1.728   3.638 -0.4292  0.1703  0.3527
  663TIP3   OH223479   2.142   1.669  13.914 -0.2928  0.1941  0.1762
  663TIP3    H123480   2.076   1.735  13.893  0.4819  0.2128 -2.3209
  663TIP3    H223481   2.195   1.709  13.984  0.6813  2.5943 -1.8635
  664TIP3   OH223482   4.451   5.413   5.202 -0.6512  0.2692 -0.3079
  664TIP3    H123483   4.405   5.356   5.141  0.0135 -1.3521  0.6610
  664TIP3    H223484   4.436   5.374   5.288 -0.6325  1.8664  0.4525
  665TIP3   OH223485   3.493   3.107   1.703 -0.4437 -0.7019  0.0262
  665TIP3    H123486   3.443   3.098   1.622 -1.0169 -3.3690  0.6195
  665TIP3    H223487   3.577   3.144   1.676 -1.2802  0.0992 -1.5250
  666TIP3   OH223488   3.674   2.834  16.771  0.0487 -0.1821 -0.1997
  666TIP3    H123489   3.637   2.759  16.816 -1.4845 -0.0908 -1.2817
  666TIP3    H223490   3.601   2.894  16.759  0.1972 -0.5581 -3.5234
  667TIP3   OH223491   4.947   6.097   5.064 -0.5919 -0.1751 -0.6345
  667TIP3    H123492   4.910   6.163   5.122 -0.7061 -0.2223 -0.6538
  667TIP3    H223493   4.995   6.038   5.122 -1.3941 -0.6945 -0.4917
  668TIP3   OH223494   2.148   4.035   4.521 -0.2264  0.4412 -0.1615
  668TIP3    H123495   2.067   4.051   4.472  0.2637  0.7927 -0.8721
  668TIP3    H223496   2.120   3.992   4.602 -0.8801 -2.5331 -1.8703
  669TIP3   OH223497   4.718   5.982  12.265 -0.2533  0.5880 -0.0030
  669TIP3    H123498   4.723   5.961  12.172  2.9556 -2.1894  0.6736
  669TIP3    H223499   4.646   5.929  12.299  0.3788 -0.5849 -0.4480
  670TIP3   OH223500   5.616   3.816   3.585 -0.6212  0.0041 -0.0047
  670TIP3    H123501   5.549   3.755   3.615 -0.6919  1.2771  2.4718
  670TIP3    H223502   5.623   3.798   3.491 -3.6901 -0.8423 -0.1210
  671TIP3   OH223503   1.674   1.747  12.010 -0.4703  0.1125  0.2994
  671TIP3    H123504   1.612   1.805  11.965 -1.3594  0.5934  2.0909
  671TIP3    H223505   1.760   1.781  11.986 -0.9131  0.1265 -1.3195
  672TIP3   OH223506   4.413   4.623   6.191 -0.1161 -0.0030 -0.1000
  672TIP3    H123507   4.436   4.715   6.203 -0.6674  0.0179  0.8482
  672TIP3    H223508   4.325   4.615   6.227 -0.2414 -0.8142 -0.5634
  673TIP3   OH223509   4.937   2.861  16.835 -0.5266 -0.1007  0.8855
  673TIP3    H123510   4.898   2.783  16.876 -0.8280  0.1197  1.0203
  673TIP3    H223511   5.023   2.869  16.876 -1.0136  0.3968  1.8495
  674TIP3   OH223512   5.651   4.683  13.600  0.2621  0.0532  0.6770
  674TIP3    H123513   5.600   4.744  13.653 -0.4058 -0.0217  0.1248
  674TIP3    H223514   5.710   4.640  13.663  0.6915  1.2060  1.0743
  675TIP3   OH223515   3.988   1.326   3.126 -0.0882  0.6681 -0.1771
  675TIP3    H123516   3.994   1.349   3.034  0.2171 -1.0012 -0.5787
  675TIP3    H223517   4.078   1.314   3.155 -0.1034  2.3724  0.6662
  676TIP3   OH223518   1.325   5.666  14.771  0.0871 -0.2320  0.5332
  676TIP3    H123519   1.339   5.576  14.799 -0.3333 -0.1085  1.1591
  676TIP3    H223520   1.246   5.694  14.818  0.0612  0.3739  0.1426
  677TIP3   OH223521   6.206   1.911  17.170 -0.2259  0.4517 -0.2501
  677TIP3    H123522   6.284   1.896  17.222 -0.3046  0.2479 -0.1902
  677TIP3    H223523   6.176   1.998  17.196 -0.4183  0.2388  0.2494
  678TIP3   OH223524   6.668   0.687  12.781  0.4709  0.2797 -0.4053
  678TIP3    H123525   6.672   0.780  12.806  0.7235  0.5317 -1.3903
  678TIP3    H223526   6.758   0.656  12.789  0.6311  0.4730 -1.4343
  679TIP3   OH223527   3.131   3.739  10.828  0.3731  0.0160 -0.2957
  679TIP3    H123528   3.200   3.800  10.803  1.1236 -0.5148  0.4638
  679TIP3    H223529   3.152   3.658  10.781  0.8170 -0.4444  0.6904
  680TIP3   OH223530   3.935   2.167   6.287  0.1230  0.2962 -0.3710
  680TIP3    H123531   3.888   2.203   6.212 -1.9386 -1.6262 -0.0308
  680TIP3    H223532   3.867   2.145   6.351  1.4875 -2.1168  0.3049
  681TIP3   OH223533   4.329   5.135  12.265  0.0304 -0.0238 -0.3245
  681TIP3    H123534   4.403   5.196  12.261 -0.2796  0.3267 -0.6506
  681TIP3    H223535   4.365   5.052  12.234  0.6936 -0.2420  0.9849
  682TIP3   OH223536   0.617   4.881   6.435 -0.0274 -0.3333 -0.1459
  682TIP3    H123537   0.700   4.839   6.457  1.0501  1.0440 -1.4311
  682TIP3    H223538   0.608   4.951   6.499  0.1343 -0.0843 -0.3909
  683TIP3   OH223539   0.387   2.712  17.136 -0.0409  0.3509 -0.1054
  683TIP3    H123540   0.303   2.698  17.179  0.0989 -0.3781 -0.0506
  683TIP3    H223541   0.368   2.769  17.062 -0.9189 -1.2911 -1.1813
  684TIP3   OH223542   4.546   3.638   1.320  0.1698 -0.3060 -0.0220
  684TIP3    H123543   4.588   3.558   1.289 -1.0936 -1.6416  1.6150
  684TIP3    H223544   4.493   3.667   1.245  0.3824 -1.1779 -0.5146
  685TIP3   OH223545   5.496   3.884  13.493 -0.2523 -0.1640  0.0266
  685TIP3    H123546   5.547   3.825  13.437 -0.7227 -0.7465  0.2015
  685TIP3    H223547   5.558   3.918  13.556  0.5156  1.3095 -1.4872
  686TIP3   OH223548   6.808   3.933  15.649  0.8810  0.0224 -0.2233
  686TIP3    H123549   6.769   3.919  15.735 -2.2214  0.5264 -1.4754
  686TIP3    H223550   6.879   3.869  15.644 -0.2062 -1.3928  1.9302
  687TIP3   OH223551   5.219   2.695  14.099  0.0536 -0.0255  0.1304
  687TIP3    H123552   5.297   2.667  14.050 -0.1606  0.6560 -0.6148
  687TIP3    H223553   5.251   2.765  14.155 -0.1893  0.8205 -0.7826
  688TIP3   OH223554   3.929   2.899   2.136 -0.0915  0.9296 -0.0218
  688TIP3    H123555   3.898   2.881   2.047  0.8603 -0.7890 -0.0324
  688TIP3    H223556   3.851   2.924   2.185 -1.6499 -3.5271  0.0224
  689TIP3   OH223557   0.857   4.730   2.257  0.3821  0.1678  0.0717
  689TIP3    H123558   0.862   4.774   2.342 -1.4740  0.1321  0.2185
  689TIP3    H223559   0.946   4.735   2.222  0.6672  2.1362  1.0263
  690TIP3   OH223560   4.125   4.147   3.659  0.0580 -0.5912 -0.0160
  690TIP3    H123561   4.170   4.229   3.636  0.7380 -1.2162 -0.9515
  690TIP3    H223562   4.153   4.130   3.749  3.8662 -2.3215 -1.4092
  691TIP3   OH223563   1.389   5.504   1.225 -0.0368  0.0527 -0.3357
  691TIP3    H123564   1.454   5.549   1.278 -0.9808 -0.1488  1.0226
  691TIP3    H223565   1.387   5.415   1.261  1.0486 -0.8017 -2.2924
  692TIP3   OH223566   2.243   6.697   3.848 -0.3241 -0.2913 -0.0468
  692TIP3    H123567   2.323   6.733   3.811 -2.4994  2.6150 -2.1274
  692TIP3    H223568   2.254   6.602   3.841  2.5622  0.0775 -1.0546
  693TIP3   OH223569   0.511   5.787  12.016 -0.0922  0.9944 -0.1926
  693TIP3    H123570   0.586   5.769  12.072 -0.2007 -1.9758 -0.8997
  693TIP3    H223571   0.435   5.775  12.073 -0.1353 -0.0839 -0.4587
  694TIP3   OH223572   6.761   6.142   2.709 -0.0689 -0.5528  0.3349
  694TIP3    H123573   6.681   6.195   2.709  0.9273  0.9839  0.6049
  694TIP3    H223574   6.765   6.106   2.621 -0.3739  0.4356 -0.0995
  695TIP3   OH223575   5.431   1.270  14.586  0.5278  0.1315 -0.0306
  695TIP3    H123576   5.436   1.265  14.490 -1.5486  1.3561 -0.2132
  695TIP3    H223577   5.472   1.189  14.615  2.4554  0.3630 -1.9049
  696TIP3   OH223578   1.595   6.493  16.797  0.0381  0.2000 -0.3241
  696TIP3    H123579   1.569   6.583  16.776  0.7618  0.4539 -0.1527
  696TIP3    H223580   1.540   6.438  16.741 -0.0957  0.7671 -0.7470
  697TIP3   OH223581   0.289   2.465   4.817  0.4947  0.1695 -0.3621
  697TIP3    H123582   0.199   2.460   4.851  1.2676 -1.2904  1.5573
  697TIP3    H223583   0.294   2.552   4.777 -1.7810  0.2667 -0.5375
  698TIP3   OH223584   4.752   0.724  14.554 -0.1957 -0.1207  0.1613
  698TIP3    H123585   4.763   0.756  14.465 -0.4177  2.3665  1.0086
  698TIP3    H223586   4.658   0.727  14.569 -0.0738  0.3384  0.8146
  699TIP3   OH223587   3.957   0.567   4.562  0.2921  0.0208 -0.0087
  699TIP3    H123588   4.039   0.615   4.572  0.4724  0.0572 -1.4532
  699TIP3    H223589   3.982   0.475   4.572  0.4952  0.0372 -0.3559
  700TIP3   OH223590   0.327   6.509   2.528 -0.1042 -0.0692 -0.1559
  700TIP3    H123591   0.355   6.421   2.552 -0.7486 -0.1946  0.1233
  700TIP3    H223592   0.310   6.504   2.434  1.8709  0.2844 -0.5615
  701TIP3   OH223593   0.451   1.284   3.101  0.1720 -0.2314 -0.3114
  701TIP3    H123594   0.424   1.295   3.010 -1.5494 -2.0872 -0.0568
  701TIP3    H223595   0.437   1.370   3.141 -1.0279  0.0455 -1.3111
  702TIP3   OH223596   6.307   0.720  13.115 -0.3678 -0.3727 -0.2421
  702TIP3    H123597   6.236   0.668  13.077  0.1722 -0.7399 -0.7542
  702TIP3    H223598   6.379   0.711  13.053  0.3742 -0.6129  0.6579
  703TIP3   OH223599   5.198   4.582  14.389  0.0051 -0.0280  0.0599
  703TIP3    H123600   5.184   4.506  14.332  2.4376  0.1080 -0.7750
  703TIP3    H223601   5.185   4.658  14.332 -1.6251  0.2025  0.7028
  704TIP3   OH223602   2.379   1.459   4.493  0.2840  0.2068  0.1487
  704TIP3    H123603   2.288   1.453   4.521 -0.0575 -1.1476 -1.1577
  704TIP3    H223604   2.376   1.506   4.410  0.4735 -1.9152 -1.1089
  705TIP3   OH223605   6.680   5.350   6.465  0.3634 -0.5934  0.0402
  705TIP3    H123606   6.678   5.254   6.469 -0.0536 -0.5789  0.2273
  705TIP3    H223607   6.616   5.377   6.531 -0.4244 -0.1943 -0.8900
  706TIP3   OH223608   1.597   4.995  13.960 -0.2550  0.1325 -0.5290
  706TIP3    H123609   1.664   5.048  14.003 -0.1183 -0.1302 -0.4200
  706TIP3    H223610   1.516   5.016  14.007 -0.1735  0.1314 -0.3881
  707TIP3   OH223611   4.888   0.022   3.261  0.8108  0.2035  0.1360
  707TIP3    H123612   4.984   0.026   3.257  0.8465  0.8482  1.4564
  707TIP3    H223613   4.865   0.078   3.335 -0.5684 -0.2650  0.0673
  708TIP3   OH223614   5.106   3.135  14.662  0.9822  0.7038 -0.1817
  708TIP3    H123615   5.070   3.100  14.581  1.1916 -0.5442  0.2501
  708TIP3    H223616   5.031   3.144  14.720  1.1775 -0.8670  0.3495
  709TIP3   OH223617   6.364   2.237   2.780 -0.2369 -0.2100  0.3352
  709TIP3    H123618   6.347   2.214   2.688 -0.1424  1.8330 -0.2150
  709TIP3    H223619   6.404   2.158   2.817  1.8286 -0.3206 -1.9846
  710TIP3   OH223620   3.355   0.532   3.204 -0.2120  0.5728  0.3157
  710TIP3    H123621   3.373   0.590   3.130  2.4296  2.4473  2.3260
  710TIP3    H223622   3.268   0.558   3.235 -1.1819  0.0150 -1.8569
  711TIP3   OH223623   3.681   0.336  17.288  0.2161 -0.1255 -0.5044
  711TIP3    H123624   3.761   0.318  17.337  2.3948  1.9033 -3.0949
  711TIP3    H223625   3.613   0.285  17.331  2.0476  1.2231  4.2926
  712TIP3   OH223626   5.099   4.097   2.767  0.2324  0.1173  0.2734
  712TIP3    H123627   5.005   4.096   2.751  0.4523 -1.2989 -0.9324
  712TIP3    H223628   5.136   4.139   2.689  0.7511 -1.0322 -0.1104
  713TIP3   OH223629   6.002   1.048   0.790 -0.7233 -0.4561  0.6435
  713TIP3    H123630   5.949   0.981   0.748  0.8428 -2.5738  1.9566
  713TIP3    H223631   6.007   1.021   0.882  1.0720  0.7149  0.9216
  714TIP3   OH223632   0.268   5.875   3.031 -0.0934 -0.0405  0.1594
  714TIP3    H123633   0.254   5.817   2.956 -0.8747 -2.7964  2.3183
  714TIP3    H223634   0.180   5.896   3.062  0.2214  1.1533  0.2653
  715TIP3   OH223635   1.763   6.557   1.664 -0.3120 -0.2401 -0.0621
  715TIP3    H123636   1.689   6.498   1.667  0.1341 -0.8217 -0.4675
  715TIP3    H223637   1.831   6.514   1.716  0.7324 -1.1008 -2.0829
  716TIP3   OH223638   1.094   2.857   3.133  0.0828 -0.5539 -0.3805
  716TIP3    H123639   1.024   2.840   3.070 -0.8448  1.0545  0.1787
  716TIP3    H223640   1.064   2.933   3.182  2.7706  0.9063 -0.8937
  717TIP3   OH223641   0.116   3.266   0.520  0.0161 -0.1235 -0.9120
  717TIP3    H123642   0.075   3.245   0.436  0.2424  0.2786 -1.1254
  717TIP3    H223643   0.083   3.199   0.580  0.1496 -0.6441 -1.4100
  718TIP3   OH223644   4.461   6.084  11.741 -0.2690 -0.0025 -0.4357
  718TIP3    H123645   4.466   6.099  11.836  0.9341 -0.3003 -0.4419
  718TIP3    H223646   4.516   6.008  11.726 -2.3234 -1.3895 -1.0774
  719TIP3   OH223647   6.548   4.134  12.199 -0.0157 -0.0969  0.5464
  719TIP3    H123648   6.587   4.067  12.255 -0.3744 -0.0718  0.8271
  719TIP3    H223649   6.610   4.206  12.201  0.8344 -0.7912 -0.5277
  720TIP3   OH223650   5.058   0.395  13.037 -0.3833  0.2660 -0.0672
  720TIP3    H123651   4.987   0.459  13.047 -0.7772  0.2093 -2.2174
  720TIP3    H223652   5.134   0.448  13.012 -0.0288  0.1769  0.8204
  721TIP3   OH223653   6.354   4.664  16.309 -0.9418 -0.2434  0.0374
  721TIP3    H123654   6.296   4.597  16.344  0.0914 -0.7803  0.7410
  721TIP3    H223655   6.370   4.637  16.218 -1.2207 -0.4721  0.0569
  722TIP3   OH223656   3.828   1.467  14.004  0.1007 -0.5685  0.6428
  722TIP3    H123657   3.790   1.398  13.950 -0.6959 -0.2645  0.8033
  722TIP3    H223658   3.755   1.528  14.020  1.2567  1.3643 -1.1564
  723TIP3   OH223659   0.117   0.537   1.375  0.4628 -0.4086  0.1511
  723TIP3    H123660   0.129   0.444   1.358  2.5209 -0.1055 -0.2252
  723TIP3    H223661   0.197   0.563   1.421  0.2130  1.3129 -0.3582
  724TIP3   OH223662   5.629   3.333   1.635 -0.2013 -0.0851 -0.1846
  724TIP3    H123663   5.718   3.357   1.608 -0.1374 -0.2730 -0.1387
  724TIP3    H223664   5.641   3.276   1.711 -0.3350 -0.7525 -0.6606
  725TIP3   OH223665   4.065   5.632  11.589 -0.5974  0.2724 -0.1690
  725TIP3    H123666   4.144   5.587  11.559 -0.4070 -0.7651  1.8462
  725TIP3    H223667   4.024   5.571  11.650 -0.8900  2.3807  1.7995
  726TIP3   OH223668   1.880   6.367  16.268 -0.6476  0.5397  0.1519
  726TIP3    H123669   1.953   6.318  16.231 -1.8442  0.0171 -1.5733
  726TIP3    H223670   1.826   6.301  16.311 -0.2653  0.8916  1.1942
  727TIP3   OH223671   4.684   5.908   2.026  0.0756  0.2598  0.2900
  727TIP3    H123672   4.722   5.871   1.946  0.5454  0.0520  0.6109
  727TIP3    H223673   4.706   5.845   2.095  1.8907  1.6906  1.0524
  728TIP3   OH223674   0.092   1.774  11.586  0.0876  0.0943 -0.4310
  728TIP3    H123675   0.057   1.856  11.622  1.1513  1.2558 -1.9865
  728TIP3    H223676   0.037   1.706  11.625 -0.5109  1.5014  1.2623
  729TIP3   OH223677   1.224   4.293  16.394  0.1531 -0.0618  0.5912
  729TIP3    H123678   1.305   4.244  16.412  1.5890  2.3893  0.9663
  729TIP3    H223679   1.239   4.379  16.432 -1.6281  1.2493 -1.5567
  730TIP3   OH223680   5.064   0.852  15.595 -0.1917  0.3965  0.3715
  730TIP3    H123681   5.107   0.919  15.542 -0.6663  0.8355  0.5261
  730TIP3    H223682   5.097   0.769  15.562 -0.4838  0.6700 -0.6113
  731TIP3   OH223683   1.233   5.144  13.468 -0.4779  0.1938  0.1933
  731TIP3    H123684   1.270   5.231  13.456 -0.0532 -0.0165 -0.0201
  731TIP3    H223685   1.254   5.121  13.559  2.6123 -1.1946 -0.8287
  732TIP3   OH223686   2.727   5.430   0.371 -0.2901  0.6601  0.1137
  732TIP3    H123687   2.767   5.447   0.456 -1.1198  2.4780  0.1581
  732TIP3    H223688   2.801   5.424   0.311  0.2245  0.7763  0.7303
  733TIP3   OH223689   6.074   5.857  14.586  0.1282 -0.2504 -0.4123
  733TIP3    H123690   5.992   5.905  14.575 -0.9607 -2.1304 -0.6489
  733TIP3    H223691   6.141   5.925  14.583 -1.4943  1.5280  1.3947
  734TIP3   OH223692   3.178   2.074  13.603  0.3941 -0.2020 -0.3861
  734TIP3    H123693   3.083   2.064  13.594  0.4969 -1.4354 -0.1812
  734TIP3    H223694   3.213   1.986  13.591  1.5432  0.2918 -0.7333
  735TIP3   OH223695   0.214   0.998   3.408 -0.0143  0.0023 -0.6544
  735TIP3    H123696   0.162   0.917   3.416  1.3097 -0.8525 -0.5198
  735TIP3    H223697   0.162   1.054   3.351  0.0106 -1.7403 -2.4477
  736TIP3   OH223698   3.853   3.571   5.845 -0.4097 -0.5380  0.0170
  736TIP3    H123699   3.872   3.571   5.751 -2.2933 -2.8979 -0.4338
  736TIP3    H223700   3.923   3.518   5.884  0.7993  1.0724  0.0742
  737TIP3   OH223701   1.557   5.793  16.023 -0.1784  0.0531 -0.3600
  737TIP3    H123702   1.615   5.764  15.952  0.9501 -1.2706  1.0935
  737TIP3    H223703   1.575   5.734  16.095 -1.9252  0.8791  0.7881
  738TIP3   OH223704   5.213   0.944  15.336 -0.3098 -0.0415  0.0802
  738TIP3    H123705   5.280   0.898  15.285 -0.5208 -1.0243  0.6678
  738TIP3    H223706   5.261   1.014  15.381  0.8861 -2.4115  2.6681
  739TIP3   OH223707   5.208   4.007  16.407  0.5073  0.5986  0.2973
  739TIP3    H123708   5.268   3.968  16.471 -1.0576 -0.5747  1.0927
  739TIP3    H223709   5.164   3.932  16.367 -0.4868  1.4462 -0.2051
  740TIP3   OH223710   4.015   0.565  14.834 -0.4205  0.1279  0.2737
  740TIP3    H123711   3.947   0.538  14.896 -0.5324  1.5714  0.8022
  740TIP3    H223712   4.003   0.660  14.825  0.2492  0.0953 -1.1788
  741TIP3   OH223713   5.062   5.670  11.338 -0.8314  0.7720 -0.0967
  741TIP3    H123714   5.140   5.615  11.351 -1.2216  0.3493  0.4733
  741TIP3    H223715   5.005   5.616  11.283 -1.7592  0.0842  1.5277
  742TIP3   OH223716   4.320   1.634  13.727 -0.0436  1.0092 -0.3765
  742TIP3    H123717   4.359   1.705  13.676  0.4098  0.4414 -0.8384
  742TIP3    H223718   4.365   1.555  13.696 -1.1420  0.4095 -0.4990
  743TIP3   OH223719   0.164   4.771   2.524  0.3995 -0.0278 -0.2421
  743TIP3    H123720   0.208   4.790   2.441 -1.2369 -1.2261 -1.4178
  743TIP3    H223721   0.106   4.846   2.539 -0.8061 -0.7377 -1.2452
  744TIP3   OH223722   5.418   1.047   6.195  0.0548  0.1904  0.1771
  744TIP3    H123723   5.476   1.115   6.228 -3.0580  3.0172  0.1034
  744TIP3    H223724   5.402   0.991   6.272  0.5735  1.0839  0.9513
  745TIP3   OH223725   2.248   1.286  14.357  0.5362 -0.0017  0.5923
  745TIP3    H123726   2.279   1.353  14.295  0.4310 -0.1898  0.3332
  745TIP3    H223727   2.310   1.290  14.429  0.9040 -0.0619  0.2837
  746TIP3   OH223728   2.991   3.675  15.862 -0.0138 -0.1242 -0.3472
  746TIP3    H123729   2.919   3.738  15.860  0.8545  1.0276  2.4451
  746TIP3    H223730   3.062   3.718  15.816 -0.2766 -0.2071 -0.8373
  747TIP3   OH223731   0.533   5.258   0.804  0.3758  0.0382 -0.2351
  747TIP3    H123732   0.535   5.172   0.845 -0.1367 -0.5246 -1.3710
  747TIP3    H223733   0.569   5.317   0.870  0.5555 -1.0144  0.6176
  748TIP3   OH223734   3.243   2.978  14.923 -0.1112  0.6451 -0.6897
  748TIP3    H123735   3.303   3.047  14.895  0.8056 -0.5737 -1.8193
  748TIP3    H223736   3.291   2.897  14.906 -2.3088 -0.3846 -2.1756
  749TIP3   OH223737   5.429   4.194  11.324  0.6178 -0.2722 -0.3153
  749TIP3    H123738   5.432   4.100  11.309 -1.7816 -0.3686 -0.3765
  749TIP3    H223739   5.488   4.209  11.397  1.2125 -1.7978 -0.4808
  750TIP3   OH223740   6.426   5.662  16.865 -0.1431 -0.1336 -0.2449
  750TIP3    H123741   6.367   5.665  16.789 -0.6420 -1.2366  0.0923
  750TIP3    H223742   6.367   5.658  16.941  0.3411 -2.2522  0.0556
  751TIP3   OH223743   6.356   2.092   1.509  0.3944  0.3424 -0.3656
  751TIP3    H123744   6.425   2.026   1.512  1.7230  1.7380  0.3441
  751TIP3    H223745   6.337   2.111   1.601 -1.2910 -0.3751 -0.5432
  752TIP3   OH223746   0.731   2.171  16.516  0.3536 -0.6097  0.1186
  752TIP3    H123747   0.679   2.227  16.458  2.0561 -0.2745 -1.0940
  752TIP3    H223748   0.811   2.221  16.532  0.8338 -1.6514  1.0140
  753TIP3   OH223749   3.167   6.176  12.106  0.0240 -0.0352  0.3124
  753TIP3    H123750   3.201   6.111  12.166  0.9032 -0.9376 -1.1377
  753TIP3    H223751   3.221   6.168  12.027 -1.7023  0.4598 -0.9702
  754TIP3   OH223752   1.236   6.603  12.599 -0.0499 -0.2117  0.2395
  754TIP3    H123753   1.327   6.578  12.615  0.4836  1.0995 -0.6524
  754TIP3    H223754   1.198   6.529  12.553  0.2508 -1.2218  1.5855
  755TIP3   OH223755   0.146   1.238  12.017 -0.0815 -0.0621  0.9384
  755TIP3    H123756   0.189   1.204  12.096  0.2622 -0.7109  0.4766
  755TIP3    H223757   0.057   1.201  12.021 -0.2162  0.2855  1.2584
  756TIP3   OH223758   6.222   6.579  12.195 -0.2890 -0.5012 -0.5927
  756TIP3    H123759   6.287   6.535  12.250 -0.2148 -1.2253 -1.2427
  756TIP3    H223760   6.139   6.566  12.241 -0.3250 -1.6576 -0.9535
  757TIP3   OH223761   4.607   1.853   5.232  0.4476 -0.4233  0.9748
  757TIP3    H123762   4.518   1.857   5.267  0.6592 -0.8108  1.5672
  757TIP3    H223763   4.662   1.831   5.307  1.0699 -0.0081  0.6491
  758TIP3   OH223764   5.273   4.014   1.372  0.8582 -0.0314  0.7036
  758TIP3    H123765   5.264   3.923   1.341  0.7505  0.6953 -1.5258
  758TIP3    H223766   5.301   4.062   1.294  1.8380  1.6952  2.1062
  759TIP3   OH223767   3.153   3.651   2.769  0.4298 -0.0621  0.0736
  759TIP3    H123768   3.170   3.722   2.706 -1.6564 -0.5888 -1.1029
  759TIP3    H223769   3.080   3.603   2.732  0.9849 -2.0786  1.5326
  760TIP3   OH223770   1.370   3.855   2.322  0.0997  0.1622 -0.2533
  760TIP3    H123771   1.317   3.888   2.250 -0.9197 -0.9057 -0.0174
  760TIP3    H223772   1.445   3.813   2.279  0.7340  1.6365 -0.5888
  761TIP3   OH223773   0.591   0.147   5.626  0.2356 -0.3270 -0.0324
  761TIP3    H123774   0.568   0.089   5.554  0.8736 -0.4407 -0.1473
  761TIP3    H223775   0.512   0.200   5.640 -0.9572 -2.3888  1.2271
  762TIP3   OH223776   5.660   6.633  12.698  0.0806  0.3978 -0.0595
  762TIP3    H123777   5.704   6.714  12.671 -1.0991  1.1666  0.3100
  762TIP3    H223778   5.681   6.570  12.628  3.1397  0.2380  0.9247
  763TIP3   OH223779   3.665   3.950  14.685 -0.3638  0.0198 -0.7695
  763TIP3    H123780   3.732   4.012  14.657  0.7398 -0.8322 -0.0420
  763TIP3    H223781   3.685   3.870  14.636 -0.6133 -0.3614 -0.2454
  764TIP3   OH223782   2.577   0.543  14.128  0.5136 -0.6087  0.6667
  764TIP3    H123783   2.543   0.574  14.212  0.0346  1.7409 -0.3637
  764TIP3    H223784   2.499   0.528  14.075  0.8876  0.1085 -0.0983
  765TIP3   OH223785   4.415   3.706  11.602  0.4144  0.0494  0.0586
  765TIP3    H123786   4.384   3.690  11.691  0.3236  0.4422  0.0960
  765TIP3    H223787   4.366   3.782  11.572 -0.1772 -0.5945 -0.6352
  766TIP3   OH223788   1.643   4.681   4.507  0.6084 -0.1225 -0.0418
  766TIP3    H123789   1.678   4.663   4.419  2.1568  1.4708  0.2260
  766TIP3    H223790   1.672   4.770   4.526 -0.9132  0.0519  1.5309
  767TIP3   OH223791   2.974   1.672  11.927  0.1034  0.2080  0.5921
  767TIP3    H123792   2.928   1.690  11.845 -0.2676 -0.2289  0.7056
  767TIP3    H223793   2.905   1.663  11.992  0.4550  3.8204  1.6333
  768TIP3   OH223794   2.694   3.177  13.754  0.4192 -0.8371 -0.1938
  768TIP3    H123795   2.679   3.095  13.708 -1.2806 -0.1646 -0.8756
  768TIP3    H223796   2.649   3.167  13.838 -1.1370 -0.0443 -0.9093
  769TIP3   OH223797   5.884   5.142  12.172 -0.1552 -0.0584  0.2786
  769TIP3    H123798   5.883   5.105  12.084 -0.7607  0.0190  0.2516
  769TIP3    H223799   5.812   5.099  12.217  0.8850 -0.9659  1.1037
  770TIP3   OH223800   0.922   0.317  14.059  0.4142  0.5270 -0.6733
  770TIP3    H123801   0.865   0.347  13.988 -0.0038 -1.6464 -1.2801
  770TIP3    H223802   0.904   0.378  14.131 -0.4300  1.7032 -1.8441
  771TIP3   OH223803   2.232   0.132  16.896  0.0013  0.4263  0.4265
  771TIP3    H123804   2.183   0.183  16.961 -0.5878  0.0021  0.3203
  771TIP3    H223805   2.165   0.102  16.834  0.3866 -0.2286  0.3306
  772TIP3   OH223806   2.550   0.081   2.793  0.7029  0.0666 -0.1377
  772TIP3    H123807   2.632   0.059   2.748  1.2170  0.7628  0.4460
  772TIP3    H223808   2.492   0.007   2.775  0.6295  0.6863 -2.5889
  773TIP3   OH223809   6.793   4.399  15.468 -0.5482 -0.3026 -0.1407
  773TIP3    H123810   6.733   4.473  15.478 -1.5520 -1.1796  0.5897
  773TIP3    H223811   6.812   4.372  15.558 -0.8176 -1.3957 -0.3996
  774TIP3   OH223812   0.122   2.798  14.713  0.7603  0.2426 -0.0913
  774TIP3    H123813   0.085   2.883  14.690  0.5978  0.4179  0.7935
  774TIP3    H223814   0.125   2.798  14.809  0.4976 -0.8582 -0.0699
  775TIP3   OH223815   0.216   1.995  14.143  0.3734  0.0964 -0.1172
  775TIP3    H123816   0.146   2.007  14.079 -0.2127  0.1425  0.5147
  775TIP3    H223817   0.293   2.034  14.103 -0.4365  1.8758 -0.0090
  776TIP3   OH223818   3.261   4.477  10.294 -0.5553  0.0385  0.5019
  776TIP3    H123819   3.175   4.505  10.264 -0.9302 -0.5480  0.9992
  776TIP3    H223820   3.321   4.545  10.263 -1.3180  0.9162  0.9084
  777TIP3   OH223821   5.090   5.100   3.350  0.4177  0.0232 -0.7973
  777TIP3    H123822   5.043   5.090   3.433 -1.2166 -0.6412 -1.7707
  777TIP3    H223823   5.102   5.195   3.341 -0.8841  0.2181 -0.5918
  778TIP3   OH223824   3.913   4.787  16.642  0.5484 -0.2284 -0.3107
  778TIP3    H123825   3.885   4.863  16.693  0.2761 -0.3661 -0.2512
  778TIP3    H223826   3.844   4.775  16.576  0.3610 -0.6869 -0.0377
  779TIP3   OH223827   6.281   1.363  12.824 -0.2857  0.0402 -0.4138
  779TIP3    H123828   6.240   1.311  12.894  0.5867 -0.6083 -0.3800
  779TIP3    H223829   6.353   1.308  12.793  1.7506  1.9526  0.8235
  780TIP3   OH223830   5.857   0.831  13.693 -0.0108 -0.7063  0.9456
  780TIP3    H123831   5.928   0.780  13.732 -0.1404 -0.3873  1.6038
  780TIP3    H223832   5.892   0.920  13.685  0.0901 -0.8159  0.1294
  781TIP3   OH223833   1.915   5.595   0.988  0.0085  0.1532  0.1369
  781TIP3    H123834   1.880   5.589   0.899 -1.8230 -0.6353  0.8757
  781TIP3    H223835   1.992   5.539   0.988 -0.9406 -1.1570 -0.5218
  782TIP3   OH223836   6.274   2.332  14.850 -0.0573  0.8094 -0.3740
  782TIP3    H123837   6.362   2.314  14.884 -0.5603 -0.1581  0.4619
  782TIP3    H223838   6.231   2.382  14.920 -1.4991 -2.2281  0.9824
  783TIP3   OH223839   0.761   4.007  11.474  0.0315  0.4779  0.0088
  783TIP3    H123840   0.767   4.101  11.486 -1.2364  0.5386  0.3064
  783TIP3    H223841   0.839   3.972  11.518 -0.7251  1.2374  2.0288
  784TIP3   OH223842   2.215   3.265   5.094  0.4434 -0.0014 -0.4564
  784TIP3    H123843   2.252   3.305   5.172  1.2212  0.8688 -1.2520
  784TIP3    H223844   2.261   3.182   5.086 -2.0169 -1.6848  1.8655
  785TIP3   OH223845   6.766   1.279  15.672  0.1045  0.2277 -0.3265
  785TIP3    H123846   6.708   1.313  15.741  1.2100  0.9191  0.2719
  785TIP3    H223847   6.714   1.284  15.592  0.5694  4.4403 -0.4864
  786TIP3   OH223848   1.273   3.905  15.951 -0.5974 -0.1608 -0.1151
  786TIP3    H123849   1.269   3.940  15.862  1.2540 -1.0445 -0.5770
  786TIP3    H223850   1.323   3.824  15.942  0.2140  0.1025  1.8522
  787TIP3   OH223851   2.188   6.120   6.247 -1.1768  0.2689  0.3208
  787TIP3    H123852   2.227   6.042   6.287 -1.4790  0.5466  1.1483
  787TIP3    H223853   2.248   6.191   6.269 -1.3189  0.4160  0.2338
  788TIP3   OH223854   1.080   2.352   1.910  0.4987  0.0867  0.0337
  788TIP3    H123855   0.984   2.352   1.910  0.4219  2.9398  1.5141
  788TIP3    H223856   1.103   2.353   2.003  1.9415  0.4800 -0.3197
  789TIP3   OH223857   5.036   4.505  15.020 -0.3886  0.5251  0.1143
  789TIP3    H123858   5.001   4.572  15.079 -1.1593 -0.3151  0.6234
  789TIP3    H223859   4.961   4.479  14.966  0.4856  1.8393 -1.7864
  790TIP3   OH223860   3.051   0.665   2.581 -0.2227  0.0720  0.4953
  790TIP3    H123861   3.145   0.648   2.585  0.0735  1.4729 -0.1631
  790TIP3    H223862   3.020   0.646   2.669  0.3511 -2.1786  0.2333
  791TIP3   OH223863   5.210   2.105   6.495 -0.7894  0.2971 -0.1380
  791TIP3    H123864   5.253   2.044   6.555  1.2704  1.8779  0.0576
  791TIP3    H223865   5.170   2.049   6.428  1.7526 -1.2625 -0.4273
  792TIP3   OH223866   4.904   3.130  17.056 -0.1113 -0.5471  0.1341
  792TIP3    H123867   4.844   3.165  16.991 -1.9476 -0.2217  1.9490
  792TIP3    H223868   4.867   3.046  17.081  1.3396 -1.3233 -0.2169
  793TIP3   OH223869   1.545   6.325   6.612 -0.4522  0.2373 -0.2602
  793TIP3    H123870   1.492   6.353   6.537 -0.1685  0.0400 -0.5386
  793TIP3    H223871   1.626   6.375   6.604  0.1879 -0.9000 -0.9503
  794TIP3   OH223872   1.082   4.842   1.349  0.2557  0.0951  0.3899
  794TIP3    H123873   1.062   4.772   1.287 -2.4502  0.4763  0.7960
  794TIP3    H223874   1.071   4.801   1.435 -0.6626  0.8342  0.6245
  795TIP3   OH223875   4.044   4.231  13.264 -0.7334  0.0867 -0.7979
  795TIP3    H123876   3.972   4.218  13.325 -1.2248  0.1219 -1.3651
  795TIP3    H223877   4.063   4.143  13.230  0.5327 -0.1657  0.5088
  796TIP3   OH223878   2.880   0.085  15.322 -0.2316  0.0544 -0.0501
  796TIP3    H123879   2.894   0.065  15.229 -2.1737  2.8148 -1.0078
  796TIP3    H223880   2.814   0.021  15.350  0.8000 -1.1829 -0.3702
  797TIP3   OH223881   6.029   3.746   1.803 -0.3821 -0.3107 -0.1962
  797TIP3    H123882   5.985   3.821   1.762 -0.8916 -0.2673  0.4253
  797TIP3    H223883   5.958   3.691   1.835  0.0017 -0.9206 -0.3993
  798TIP3   OH223884   5.207   6.773  17.200  0.1262  0.6573 -0.2754
  798TIP3    H123885   5.147   6.804  17.132 -0.3604 -0.4669 -0.3713
  798TIP3    H223886   5.251   6.697  17.159  1.0742  1.0258  0.0547
  799TIP3   OH223887   1.648   1.507  15.586  0.1509  0.0221 -0.0001
  799TIP3    H123888   1.632   1.491  15.493 -0.2438  2.2706 -0.3394
  799TIP3    H223889   1.562   1.506  15.627  0.1480  0.8299  0.0288
  800TIP3   OH223890   2.489   2.200  10.599 -0.5906 -0.0627  0.5124
  800TIP3    H123891   2.514   2.274  10.654  0.5544  0.7145 -1.0010
  800TIP3    H223892   2.423   2.235  10.540  2.8013  0.9335 -2.8969
  801TIP3   OH223893   3.500   4.500  14.719 -0.7777  0.1781 -0.0039
  801TIP3    H123894   3.490   4.428  14.657 -2.0133  0.1360  0.2363
  801TIP3    H223895   3.543   4.569  14.669 -0.0074 -0.5532 -0.3687
  802TIP3   OH223896   4.175   2.282   2.980 -0.0262  0.4387  0.3127
  802TIP3    H123897   4.258   2.285   2.933  0.3677  2.5403  1.1004
  802TIP3    H223898   4.192   2.227   3.056  0.4704  0.3692  0.1540
  803TIP3   OH223899   3.952   4.610   4.076  0.0075 -0.4983  0.4169
  803TIP3    H123900   3.919   4.658   4.000 -0.1578 -2.2594 -0.6326
  803TIP3    H223901   3.978   4.525   4.042  0.3831 -1.1402  2.2525
  804TIP3   OH223902   1.824   4.769  13.371 -0.4671  0.3612 -0.0975
  804TIP3    H123903   1.812   4.676  13.356  1.2566  0.3160 -1.4114
  804TIP3    H223904   1.735   4.804  13.384 -1.1219 -1.4119  0.2527
  805TIP3   OH223905   3.609   2.467  13.381 -0.7976  0.4719  0.3058
  805TIP3    H123906   3.601   2.372  13.381  0.3660  0.3721  1.0111
  805TIP3    H223907   3.545   2.496  13.446 -2.5228  0.3082 -1.2692
  806TIP3   OH223908   4.326   3.342   0.400 -0.1443 -0.0816 -0.2393
  806TIP3    H123909   4.352   3.259   0.440  0.1006 -0.2061 -0.6437
  806TIP3    H223910   4.396   3.360   0.336 -0.0606  0.5668  0.0310
  807TIP3   OH223911   1.752   5.425   5.524 -0.6068  0.2493 -0.7649
  807TIP3    H123912   1.778   5.334   5.513 -2.2990 -0.4938  1.0125
  807TIP3    H223913   1.795   5.453   5.605 -1.4800  0.4659 -0.3639
  808TIP3   OH223914   5.239   3.004   2.062  0.3184  0.7440 -0.0640
  808TIP3    H123915   5.255   2.994   2.156 -1.6973  0.6793  0.2894
  808TIP3    H223916   5.196   2.923   2.036  1.3464  0.5412 -1.1743
  809TIP3   OH223917   1.591   1.679   6.037  0.0767  0.4341  0.0666
  809TIP3    H123918   1.636   1.599   6.066 -1.0752 -0.2618 -0.0166
  809TIP3    H223919   1.660   1.745   6.031  0.5904  0.2390  3.0170
  810TIP3   OH223920   0.971   5.549   3.378 -0.2772  0.3195 -0.3577
  810TIP3    H123921   0.903   5.486   3.404  2.0207 -0.9875  2.8618
  810TIP3    H223922   1.022   5.503   3.311 -1.4235  0.5879 -1.4230
  811TIP3   OH223923   2.484   4.940   1.839 -0.4377 -0.3894  0.2142
  811TIP3    H123924   2.400   4.971   1.875 -0.4075 -1.5086  1.2510
  811TIP3    H223925   2.522   4.887   1.909  0.7844 -0.5296 -0.5513
  812TIP3   OH223926   2.658   5.383   4.113  0.0608  0.3331 -0.1003
  812TIP3    H123927   2.683   5.295   4.083  0.8583 -0.1306  1.8181
  812TIP3    H223928   2.723   5.441   4.075  1.4882 -0.3340  1.2648
  813TIP3   OH223929   6.314   5.314   0.560  0.1772  0.1601 -0.4077
  813TIP3    H123930   6.338   5.224   0.537 -0.3592  0.3423 -1.7428
  813TIP3    H223931   6.235   5.332   0.508 -0.4065  0.9962  0.7483
  814TIP3   OH223932   2.132   3.056  15.128  0.6325 -0.4977 -0.2589
  814TIP3    H123933   2.128   2.974  15.178  1.0566  0.4381  1.3484
  814TIP3    H223934   2.050   3.057  15.078  0.1918 -1.4571  0.4267
  815TIP3   OH223935   1.360   3.773  12.362  0.3039  0.3315 -0.1513
  815TIP3    H123936   1.436   3.719  12.380 -1.6208 -2.2549  0.4379
  815TIP3    H223937   1.374   3.805  12.273  2.2626  0.2674  0.1085
  816TIP3   OH223938   0.098   5.464   5.147 -0.0236  0.2415  0.5553
  816TIP3    H123939   0.032   5.413   5.194  1.0565 -1.9733 -0.2158
  816TIP3    H223940   0.172   5.469   5.208 -0.2996  1.3126  0.8068
  817TIP3   OH223941   4.153   0.890   1.197 -0.4264 -0.4071 -0.6787
  817TIP3    H123942   4.058   0.881   1.188 -0.5036 -0.9068  0.5930
  817TIP3    H223943   4.188   0.809   1.161 -0.6501 -1.5809  1.6323
  818TIP3   OH223944   1.505   0.959   5.898  0.4194 -0.0829  0.4543
  818TIP3    H123945   1.576   1.021   5.883  1.5316 -1.3410  0.3587
  818TIP3    H223946   1.481   0.971   5.989 -0.7326  1.8655 -0.0885
  819TIP3   OH223947   3.811   4.417  14.164 -0.3043 -0.1374 -0.3981
  819TIP3    H123948   3.799   4.323  14.172 -0.5395 -0.2482 -1.9418
  819TIP3    H223949   3.738   4.446  14.109 -0.0031  0.8821 -0.2742
  820TIP3   OH223950   2.662   3.617  14.811  0.4298 -0.0224  0.0183
  820TIP3    H123951   2.683   3.547  14.872 -0.6358 -0.2960  0.0911
  820TIP3    H223952   2.612   3.680  14.863  0.8301  0.4855 -0.2033
  821TIP3   OH223953   0.939   2.497   5.932  0.3893 -0.0472 -0.1232
  821TIP3    H123954   0.935   2.469   6.024  2.1417  1.3623  0.4161
  821TIP3    H223955   1.030   2.481   5.906  0.3388  1.1458 -1.0846
  822TIP3   OH223956   2.105   5.399   1.840 -0.5008 -0.1891  0.3591
  822TIP3    H123957   2.104   5.493   1.858  2.1056 -0.6242  3.2238
  822TIP3    H223958   2.042   5.363   1.902 -1.1374 -0.4179 -0.4073
  823TIP3   OH223959   0.148   1.018  12.227 -0.1007 -0.6255 -0.3385
  823TIP3    H123960   0.238   0.991  12.212  0.0069 -0.0941 -0.6758
  823TIP3    H223961   0.096   0.967  12.165 -0.0729 -1.1563  0.0656
  824TIP3   OH223962   2.538   6.214   1.065 -0.2145  0.4862  0.1057
  824TIP3    H123963   2.606   6.273   1.099 -1.1998 -0.0278  3.1095
  824TIP3    H223964   2.514   6.160   1.139 -1.8121 -1.3793 -1.7191
  825TIP3   OH223965   6.796   5.784   1.225  0.0542 -0.1437  0.3375
  825TIP3    H123966   6.773   5.853   1.163 -1.6918 -0.8159  0.2024
  825TIP3    H223967   6.848   5.722   1.174  2.1896  1.3826  0.6256
  826TIP3   OH223968   0.939   6.302  14.099  0.0035  0.5245  0.0792
  826TIP3    H123969   0.970   6.252  14.175  3.5009  0.0483 -1.5471
  826TIP3    H223970   1.004   6.285  14.032 -0.9167  4.0825 -1.8158
  827TIP3   OH223971   1.247   3.972   2.112 -0.3527 -0.2261  0.0960
  827TIP3    H123972   1.180   4.035   2.085 -0.7774 -0.9248 -0.4725
  827TIP3    H223973   1.320   3.986   2.052 -0.9259 -1.1216 -0.8114
  828TIP3   OH223974   5.854   4.925   4.433  0.2158  0.0032 -0.1112
  828TIP3    H123975   5.918   4.951   4.368  0.0420  0.2051 -0.2027
  828TIP3    H223976   5.888   4.844   4.470 -0.1348 -0.5885 -1.0825
  829TIP3   OH223977   0.335   1.521  16.101  0.2207  0.1494  0.2386
  829TIP3    H123978   0.314   1.603  16.146  2.8109  0.1204  1.6160
  829TIP3    H223979   0.423   1.535  16.065  0.4275 -1.7991 -0.0894
  830TIP3   OH223980   2.753   1.068  14.913 -0.4243  0.0248 -0.4786
  830TIP3    H123981   2.686   1.129  14.882 -0.5137  0.9573  1.4431
  830TIP3    H223982   2.835   1.103  14.879 -0.4316  1.4887  0.9412
  831TIP3   OH223983   4.065   2.386   1.626 -0.0417 -0.1882 -0.5520
  831TIP3    H123984   4.060   2.429   1.541 -1.0110  0.6039 -0.1036
  831TIP3    H223985   3.975   2.364   1.647  0.0769  0.4547  0.6800
  832TIP3   OH223986   1.876   4.888  11.608  0.0265 -0.0501  1.1005
  832TIP3    H123987   1.929   4.943  11.550  2.0207 -2.6111  0.3838
  832TIP3    H223988   1.920   4.893  11.693  0.2612 -0.5407  1.0148
  833TIP3   OH223989   4.736   0.129   1.149  0.3642  0.3155 -0.7627
  833TIP3    H123990   4.768   0.107   1.237  0.0595 -0.4077 -0.8275
  833TIP3    H223991   4.641   0.131   1.159  0.2818 -0.7937 -1.3082
  834TIP3   OH223992   0.382   0.053   0.385  0.0931 -0.1154 -0.3447
  834TIP3    H123993   0.338  -0.015   0.335 -0.2854  0.4213 -0.7448
  834TIP3    H223994   0.314   0.117   0.404  0.6824  0.7211 -0.9710
  835TIP3   OH223995   1.582   1.837   0.812  0.3525  0.1396 -0.1496
  835TIP3    H123996   1.521   1.872   0.747  0.0049 -0.5717 -0.2178
  835TIP3    H223997   1.578   1.898   0.885 -0.5433  0.0312 -0.1009
  836TIP3   OH223998   2.751   2.833   5.464 -0.7727 -0.3495 -0.0051
  836TIP3    H123999   2.733   2.813   5.372 -0.4424 -0.9322  0.0526
  836TIP3    H224000   2.740   2.749   5.509 -1.3464  0.0224  0.5541
  837TIP3   OH224001   0.907   4.160   5.080  0.6285  0.2642 -0.1054
  837TIP3    H124002   0.863   4.081   5.111  0.2754  0.8136  0.8149
  837TIP3    H224003   0.880   4.167   4.988  0.6242 -0.6542 -0.1794
  838TIP3   OH224004   1.550   2.128   3.251 -0.6777  0.1947 -0.0856
  838TIP3    H124005   1.583   2.204   3.204 -1.5761  1.5698  1.4228
  838TIP3    H224006   1.518   2.069   3.183  1.0567  0.6638 -1.3282
  839TIP3   OH224007   6.259   5.757   2.335  0.3094 -0.3595  0.1749
  839TIP3    H124008   6.257   5.725   2.425  1.4816 -3.5971 -0.8765
  839TIP3    H224009   6.350   5.784   2.320 -0.2448  1.7208  0.4429
  840TIP3   OH224010   0.445   0.394  12.060  0.3775 -0.3962  0.1736
  840TIP3    H124011   0.369   0.452  12.051 -1.4383 -2.5352  1.0546
  840TIP3    H224012   0.422   0.337  12.134  3.2836 -0.4685  1.0640
  841TIP3   OH224013   4.874   6.483  15.773  0.2437 -0.7359 -1.1152
  841TIP3    H124014   4.857   6.396  15.808 -1.2154  0.0816  0.2809
  841TIP3    H224015   4.867   6.541  15.849 -0.4986  0.7958 -2.3233
  842TIP3   OH224016   4.161   3.787   0.626 -0.1717  0.2052  0.1836
  842TIP3    H124017   4.205   3.703   0.639 -0.6149 -0.4895 -2.4501
  842TIP3    H224018   4.087   3.785   0.686 -0.0441 -1.1875  0.3068
  843TIP3   OH224019   0.674   4.441  12.499 -0.0115 -0.3252  0.2791
  843TIP3    H124020   0.731   4.418  12.426  1.0060  0.7154  0.7338
  843TIP3    H224021   0.729   4.494  12.557 -0.5348 -1.9142  2.2821
  844TIP3   OH224022   0.131   2.976  11.350  0.4143 -0.3307 -0.3043
  844TIP3    H124023   0.156   2.932  11.269 -0.9192 -1.5368 -0.0842
  844TIP3    H224024   0.139   3.070  11.330 -1.4904 -0.5760 -2.3626
  845TIP3   OH224025   4.080   6.675   4.433  0.4103  0.0749 -0.4846
  845TIP3    H124026   4.109   6.739   4.498 -0.5713  1.0820 -1.0108
  845TIP3    H224027   4.019   6.618   4.480  2.3629 -1.3635  0.3407
  846TIP3   OH224028   0.056   2.492  11.800 -0.1768  0.7089  0.0912
  846TIP3    H124029  -0.009   2.422  11.813  0.6181  0.0703  0.6589
  846TIP3    H224030   0.106   2.463  11.723 -0.8069  1.3951 -0.5886
  847TIP3   OH224031   3.191   5.224   1.055  0.3402  0.0431 -0.5205
  847TIP3    H124032   3.269   5.255   1.008  0.3312 -2.2443 -2.0938
  847TIP3    H224033   3.227   5.182   1.134  0.4444  2.3960  0.7312
  848TIP3   OH224034   0.791   6.420   0.219 -0.1962 -0.3501 -0.1269
  848TIP3    H124035   0.710   6.400   0.266  0.0673  0.8479  0.8365
  848TIP3    H224036   0.764   6.482   0.150 -0.3086 -0.9108 -0.5928
  849TIP3   OH224037   0.678   6.544  16.848 -0.5842  0.3773 -0.3568
  849TIP3    H124038   0.721   6.624  16.817 -0.4526  0.2821 -0.4169
  849TIP3    H224039   0.677   6.553  16.943 -0.8063  0.5748 -0.3773
  850TIP3   OH224040   3.311   4.832   5.352  0.1445  0.5516 -0.5007
  850TIP3    H124041   3.258   4.784   5.415  1.6611  0.3481  0.6488
  850TIP3    H224042   3.327   4.916   5.393  2.0145  0.0392 -0.1314
  851TIP3   OH224043   1.174   4.909   6.553  0.6086  0.0123 -0.0351
  851TIP3    H124044   1.221   4.849   6.495  1.2093  0.1225  0.3366
  851TIP3    H224045   1.189   4.995   6.516  0.8575  0.0674  0.1948
  852TIP3   OH224046   0.119   2.205   3.747 -0.2023 -0.3000 -0.1060
  852TIP3    H124047   0.207   2.238   3.728 -1.2050  2.0225 -0.8162
  852TIP3    H224048   0.063   2.247   3.682 -1.9577 -1.2667  0.7456
  853TIP3   OH224049   5.871   2.939  17.096 -0.8654 -0.4143  0.0826
  853TIP3    H124050   5.829   2.926  17.181 -2.3373  0.1666 -0.5310
  853TIP3    H224051   5.805   2.984  17.043  0.1785 -0.3895 -1.2401
  854TIP3   OH224052   1.913   3.649   1.419  0.6047  0.8109  0.4426
  854TIP3    H124053   1.892   3.669   1.327 -0.1570  0.3840  0.5216
  854TIP3    H224054   1.889   3.557   1.429  2.3245  0.3621  0.5981
  855TIP3   OH224055   1.715   3.324   4.165 -0.4133 -0.7871  0.3895
  855TIP3    H124056   1.620   3.314   4.154 -0.5614 -0.4296  1.3100
  855TIP3    H224057   1.727   3.417   4.186  0.5533  0.1840 -3.9574
  856TIP3   OH224058   4.503   1.431   6.174 -0.2020 -0.7688 -0.1949
  856TIP3    H124059   4.441   1.425   6.101 -0.1321 -1.7347 -0.1845
  856TIP3    H224060   4.458   1.483   6.240 -0.3873 -0.1493 -0.8076
  857TIP3   OH224061   0.015   4.512  16.415 -0.1743 -0.1159 -0.6608
  857TIP3    H124062  -0.019   4.601  16.412 -1.4382 -0.5510  0.2556
  857TIP3    H224063   0.102   4.520  16.455  0.9927  1.0503 -3.3211
  858TIP3   OH224064   2.650   2.054   3.810 -0.2124  0.2134 -0.4256
  858TIP3    H124065   2.670   1.996   3.737  0.7514  1.1670 -0.9429
  858TIP3    H224066   2.716   2.034   3.875 -1.8222 -1.5101  0.7147
  859TIP3   OH224067   3.536   2.625   0.953  0.4526 -0.1224  0.2059
  859TIP3    H124068   3.557   2.659   0.866 -1.3932 -1.0669 -0.6321
  859TIP3    H224069   3.543   2.702   1.010  5.0224 -0.1551 -0.1219
  860TIP3   OH224070   3.941   2.070  15.706  0.4575 -1.0019 -0.3333
  860TIP3    H124071   3.915   1.993  15.656  0.7374 -0.7625 -0.8423
  860TIP3    H224072   4.002   2.036  15.772  1.4988 -1.0447 -1.3017
  861TIP3   OH224073   3.931   5.170   4.243  0.3194 -0.3491  0.6565
  861TIP3    H124074   3.880   5.226   4.184 -0.3896 -0.7635  0.8685
  861TIP3    H224075   3.984   5.116   4.184  0.2898 -0.1277  0.4242
  862TIP3   OH224076   4.285   6.732   3.675  0.0312 -0.6374  0.1702
  862TIP3    H124077   4.198   6.748   3.711  0.4535 -0.5235  1.1629
  862TIP3    H224078   4.335   6.696   3.748  0.4841 -1.8499 -0.7215
  863TIP3   OH224079   0.095   2.069  13.311  0.2684 -0.3664  0.0511
  863TIP3    H124080   0.161   2.097  13.249 -0.3720  0.8413 -0.1013
  863TIP3    H224081   0.056   1.991  13.272 -3.0015  2.6822 -3.1570
  864TIP3   OH224082   2.461   6.637   1.184  0.0388  0.7409  0.4443
  864TIP3    H124083   2.511   6.652   1.264  2.1290  0.2889 -0.7519
  864TIP3    H224084   2.522   6.592   1.126 -1.9283 -0.2850 -0.8666
  865TIP3   OH224085   6.798   4.164  12.860  0.7043 -0.0142  0.3771
  865TIP3    H124086   6.881   4.209  12.873 -0.5711  2.8453 -0.9830
  865TIP3    H224087   6.761   4.155  12.948  1.1898  1.2481  0.7160
  866TIP3   OH224088   5.048   6.745  12.977  0.0160  0.4017  0.0680
  866TIP3    H124089   4.971   6.737  13.033  1.4902  0.1547  2.1000
  866TIP3    H224090   5.025   6.816  12.916 -1.2271  1.3658  1.6182
  867TIP3   OH224091   0.182   5.390  13.825 -0.3644  0.2659 -0.1262
  867TIP3    H124092   0.133   5.392  13.743 -0.7860 -2.9826 -0.0213
  867TIP3    H224093   0.272   5.409  13.799 -0.3927 -1.3410 -1.4420
  868TIP3   OH224094   0.421   6.791  14.478 -0.1725 -0.3900  0.0117
  868TIP3    H124095   0.434   6.824  14.389  0.7537  1.0350  0.6683
  868TIP3    H224096   0.403   6.698  14.466 -3.6927  0.4320 -1.9392
  869TIP3   OH224097   4.621   0.996   3.992 -0.1608 -0.5143  0.4380
  869TIP3    H124098   4.590   0.914   4.029  0.7901 -0.9763  0.2324
  869TIP3    H224099   4.651   0.973   3.904 -1.7458  0.4413 -0.3781
  870TIP3   OH224100   3.753   2.340   4.558 -0.1558  0.3455 -0.0351
  870TIP3    H124101   3.711   2.417   4.519 -0.3013  0.9379  1.2740
  870TIP3    H224102   3.847   2.361   4.558 -0.0825  0.0309 -0.7458
  871TIP3   OH224103   0.924   6.486   6.352  0.0014 -0.3019 -0.7473
  871TIP3    H124104   1.014   6.485   6.318 -0.4731 -2.0667 -2.0728
  871TIP3    H224105   0.911   6.575   6.384  1.7389  0.3847 -1.8578
  872TIP3   OH224106   0.918   5.532   1.697  0.5642  0.0181 -0.0576
  872TIP3    H124107   0.976   5.469   1.654  0.5748  0.0307 -0.0622
  872TIP3    H224108   0.832   5.492   1.694  0.8070 -0.6185  1.1620
  873TIP3   OH224109   5.719   3.978  10.618 -0.1970 -0.0079 -0.0831
  873TIP3    H124110   5.669   4.046  10.573 -1.5223 -0.9169 -0.0395
  873TIP3    H224111   5.785   3.950  10.555 -1.6157 -0.8130 -1.2593
  874TIP3   OH224112   1.112   6.560  14.006  0.0526  0.6186 -0.2519
  874TIP3    H124113   1.072   6.539  14.090 -0.4050  0.4402 -0.5132
  874TIP3    H224114   1.082   6.648  13.987 -0.7311  0.2551 -0.7422
  875TIP3   OH224115   0.370   4.797  15.636 -0.6450  0.5103 -0.3642
  875TIP3    H124116   0.317   4.734  15.686 -1.0473  0.8984 -0.2955
  875TIP3    H224117   0.335   4.883  15.661 -0.3776  0.7415 -0.7771
  876TIP3   OH224118   0.877   1.797  12.643 -0.4431  0.0521  0.1783
  876TIP3    H124119   0.852   1.823  12.731 -1.8748  0.8420 -0.4419
  876TIP3    H224120   0.806   1.740  12.613  1.0076 -1.8276  0.2617
  877TIP3   OH224121   5.152   5.660   3.892 -0.0798  0.6513  0.1517
  877TIP3    H124122   5.238   5.618   3.886  0.0636  0.8455  0.7883
  877TIP3    H224123   5.113   5.624   3.972 -2.1294 -2.2126 -2.0565
  878TIP3   OH224124   2.858   4.235   2.540  0.1311  0.5574 -0.1232
  878TIP3    H124125   2.767   4.223   2.512 -0.7372  0.1597  2.7742
  878TIP3    H224126   2.853   4.295   2.614  2.2341  0.4709  0.1082
  879TIP3   OH224127   6.131   2.513  10.972  0.2352 -0.2164 -0.7552
  879TIP3    H124128   6.053   2.532  11.026  0.9312  1.9548 -0.4475
  879TIP3    H224129   6.100   2.517  10.882 -0.6137 -2.3437 -0.5921
  880TIP3   OH224130   0.774   2.662  14.053 -0.1356 -0.1008 -0.3539
  880TIP3    H124131   0.696   2.606  14.056  0.2559 -0.5889  0.8833
  880TIP3    H224132   0.744   2.747  14.086  0.4609 -1.0476  2.8087
  881TIP3   OH224133   2.845   4.315  11.630 -0.2299 -0.4842  0.6286
  881TIP3    H124134   2.796   4.252  11.576 -0.3462 -0.3932  0.6269
  881TIP3    H224135   2.819   4.400  11.595  1.7431 -0.4879 -0.9616
  882TIP3   OH224136   6.283   4.816   5.141 -0.0674  0.3963 -0.0522
  882TIP3    H124137   6.256   4.885   5.082  0.1938  0.4578 -0.1033
  882TIP3    H224138   6.347   4.765   5.091  0.8683  1.0171  0.4945
  883TIP3   OH224139   0.408   3.942   1.658  0.7707 -0.3907 -0.4076
  883TIP3    H124140   0.362   3.998   1.596 -2.2834  0.3919  2.4083
  883TIP3    H224141   0.432   3.865   1.607  0.0261  1.0368 -3.0063
  884TIP3   OH224142   1.745   6.354   1.407 -0.1074  0.4262 -0.5487
  884TIP3    H124143   1.816   6.382   1.350  1.8954 -0.3366  1.4957
  884TIP3    H224144   1.730   6.262   1.383  1.7862 -0.3588  1.1314
  885TIP3   OH224145   2.828   6.440   2.667  0.0125 -0.4791  0.6175
  885TIP3    H124146   2.831   6.378   2.740  0.3267  2.1383  2.9101
  885TIP3    H224147   2.744   6.422   2.624  0.7405 -3.4297  0.3431
  886TIP3   OH224148   5.816   0.986  10.878  0.2146 -0.4867 -0.4919
  886TIP3    H124149   5.829   0.955  10.789  1.4333 -0.9546 -0.1537
  886TIP3    H224150   5.766   1.068  10.868  0.6791 -0.3338 -1.6151
  887TIP3   OH224151   4.357   3.381   5.143  0.2640  0.4512 -0.0750
  887TIP3    H124152   4.272   3.426   5.132 -0.0864  0.0221  0.8636
  887TIP3    H224153   4.409   3.443   5.194  0.3120  0.4610 -0.1370
  888TIP3   OH224154   0.066   6.101   4.176  0.7766 -0.2347 -0.0134
  888TIP3    H124155   0.115   6.183   4.175  0.9205 -0.3096  0.5921
  888TIP3    H224156   0.054   6.078   4.084  2.6130 -0.6596 -0.1715
  889TIP3   OH224157   4.029   1.725  16.209  0.2193  0.1297 -0.8630
  889TIP3    H124158   4.106   1.765  16.169  1.0890  0.7109  1.2765
  889TIP3    H224159   4.008   1.650  16.153  2.0517  0.2703 -1.7640
  890TIP3   OH224160   0.416   6.164   2.970 -0.0124 -0.0656 -0.4196
  890TIP3    H124161   0.483   6.157   3.038 -0.4054  1.1028  0.0869
  890TIP3    H224162   0.465   6.191   2.892  0.0903  0.9274 -0.0154
  891TIP3   OH224163   6.447   6.305  13.265  0.4419  0.2920  0.2397
  891TIP3    H124164   6.370   6.273  13.219  0.6663  1.0121 -0.6364
  891TIP3    H224165   6.506   6.230  13.268 -0.4614 -0.4024  1.3254
  892TIP3   OH224166   2.782   0.988  16.662 -0.1937 -0.2145 -0.1470
  892TIP3    H124167   2.781   0.934  16.741 -0.4282  2.1184  1.4947
  892TIP3    H224168   2.717   0.947  16.605  0.1767 -2.0945  0.7464
  893TIP3   OH224169   1.962   6.196   1.054  0.4202 -0.1614  0.5115
  893TIP3    H124170   2.047   6.227   1.023  0.1439 -0.5628 -0.6573
  893TIP3    H224171   1.981   6.112   1.096  0.6886  0.0527  0.8237
  894TIP3   OH224172   6.635   3.045  12.101 -0.2988  0.3507  0.0973
  894TIP3    H124173   6.673   3.109  12.040  0.4143  0.5072  0.7004
  894TIP3    H224174   6.640   2.962  12.055 -2.7491  0.9775 -1.3636
  895TIP3   OH224175   2.155   6.024   2.252 -0.3359  0.5396  0.0443
  895TIP3    H124176   2.175   6.030   2.345 -3.3499 -2.6446  1.0078
  895TIP3    H224177   2.066   6.058   2.245  0.1864  1.5479 -1.8182
  896TIP3   OH224178   3.577   5.205  13.914  0.6091 -0.3336 -0.0427
  896TIP3    H124179   3.653   5.187  13.969  0.9447  0.9663 -0.0482
  896TIP3    H224180   3.614   5.241  13.833 -0.0008  0.2417 -0.0755
  897TIP3   OH224181   1.989   0.615  13.379  0.1099 -0.3159  0.0071
  897TIP3    H124182   2.006   0.635  13.471  0.5912  1.8216 -0.5217
  897TIP3    H224183   1.908   0.662  13.358 -0.9931 -2.2528 -0.2016
  898TIP3   OH224184   1.574   5.764  13.950  0.1499 -0.0669  0.2026
  898TIP3    H124185   1.646   5.801  14.001  0.5091 -2.1415  1.2483
  898TIP3    H224186   1.613   5.741  13.866  0.0807  1.2957 -0.2046
  899TIP3   OH224187   6.551   1.003  16.901 -0.4539 -0.0065 -0.7457
  899TIP3    H124188   6.576   1.092  16.876 -2.0297  0.9136  0.8807
  899TIP3    H224189   6.576   0.996  16.993 -0.0928 -1.3555 -0.9328
  900TIP3   OH224190   5.756   5.004   4.752  0.1308 -0.0126  0.5699
  900TIP3    H124191   5.745   5.097   4.731 -0.6624 -0.3882 -0.7293
  900TIP3    H224192   5.736   4.998   4.845 -0.1659  1.0661  0.5841
  901TIP3   OH224193   2.804   1.615   0.057  0.1047  0.2191  0.2998
  901TIP3    H124194   2.891   1.615   0.018  1.0522 -0.6745  2.3228
  901TIP3    H224195   2.813   1.665   0.138 -1.1749 -0.2011  0.7275
  902TIP3   OH224196   5.599   4.761  15.438 -0.1999  0.2972  0.1955
  902TIP3    H124197   5.552   4.845  15.438  0.8207  0.8828 -0.3422
  902TIP3    H224198   5.576   4.721  15.521 -1.6342  0.5879 -0.0583
  903TIP3   OH224199   1.402   1.627  14.620 -0.7996  0.0954 -0.0850
  903TIP3    H124200   1.420   1.687  14.548 -0.4645 -1.0702 -0.9868
  903TIP3    H224201   1.307   1.618  14.622 -0.8691  0.8974  0.2574
  904TIP3   OH224202   1.761   2.986   0.316 -0.2465 -0.5474  0.5618
  904TIP3    H124203   1.747   2.973   0.410 -0.3332  1.8136  0.9070
  904TIP3    H224204   1.680   2.954   0.275  0.0426 -2.1751  1.2155
  905TIP3   OH224205   1.393   0.321   1.244 -0.2831  0.6638  0.8231
  905TIP3    H124206   1.484   0.306   1.220 -0.5472  1.1872 -0.5301
  905TIP3    H224207   1.397   0.379   1.321  0.5287  0.2867  1.0605
  906TIP3   OH224208   3.661   0.479  13.641  0.6081  0.2107 -0.1248
  906TIP3    H124209   3.751   0.448  13.630  1.0147  1.0719  0.7291
  906TIP3    H224210   3.667   0.545  13.710 -0.6052  0.6189 -0.4090
  907TIP3   OH224211   4.688   4.708  14.311 -0.0917  0.8577 -0.5325
  907TIP3    H124212   4.758   4.689  14.248 -1.3312 -1.5235 -1.2329
  907TIP3    H224213   4.608   4.704  14.259 -0.9667  0.8630  0.8030
  908TIP3   OH224214   1.591   0.623   4.621  0.8229  0.5272  0.6017
  908TIP3    H124215   1.571   0.548   4.565  0.4458  1.0593  0.0075
  908TIP3    H224216   1.616   0.585   4.705 -0.1258 -0.2305  0.5446
  909TIP3   OH224217   0.960   6.344  14.992  0.6018  0.1581  0.0961
  909TIP3    H124218   1.036   6.394  15.022  0.4511  0.1296  0.5380
  909TIP3    H224219   0.890   6.409  14.985 -0.0615 -0.2655  2.3791
  910TIP3   OH224220   4.631   5.684  14.997 -0.7896  0.5676  0.0395
  910TIP3    H124221   4.543   5.675  15.032 -0.6119  0.0094  0.3542
  910TIP3    H224222   4.619   5.693  14.902 -1.1327 -0.5401 -0.0353
  911TIP3   OH224223   5.547   0.358   0.416  0.4160  0.2674  0.3079
  911TIP3    H124224   5.549   0.267   0.386 -1.6417  0.0696  0.6726
  911TIP3    H224225   5.634   0.373   0.452  1.3250 -1.0208 -1.2944
  912TIP3   OH224226   6.819   6.297   3.923 -0.3129  0.5031  0.4126
  912TIP3    H124227   6.866   6.218   3.895  2.5320  1.9446  0.9487
  912TIP3    H224228   6.873   6.369   3.891 -2.9151  2.2934 -0.1589
  913TIP3   OH224229   4.864   3.833  13.152  0.5823 -0.3691  0.0803
  913TIP3    H124230   4.770   3.843  13.168  0.9035  2.1034  0.6877
  913TIP3    H224231   4.870   3.791  13.066 -1.0799  0.1386 -0.2921
  914TIP3   OH224232   3.530   1.983   5.074 -0.5962 -0.0962  0.1589
  914TIP3    H124233   3.504   2.075   5.064  1.2125  0.4188  0.1123
  914TIP3    H224234   3.467   1.947   5.137 -0.0998  1.6811  1.6998
  915TIP3   OH224235   3.193   5.899  15.952  1.3243 -0.0218 -0.3009
  915TIP3    H124236   3.132   5.874  16.022  2.6577  1.1118  1.3186
  915TIP3    H224237   3.276   5.860  15.979  1.8641  0.4827 -1.2259
  916TIP3   OH224238   1.143   3.687   0.798  0.4829  0.2790 -0.7410
  916TIP3    H124239   1.114   3.623   0.863  1.3666 -1.1247 -1.7073
  916TIP3    H224240   1.211   3.737   0.843 -0.0669  0.4118 -0.0464
  917TIP3   OH224241   4.684   3.111  10.334 -0.1194 -0.7621 -0.1316
  917TIP3    H124242   4.670   3.030  10.285 -0.0481 -0.7088 -0.2419
  917TIP3    H224243   4.706   3.176  10.266  0.9297 -0.9063  0.0652
  918TIP3   OH224244   0.847   0.675  12.733 -0.6450 -0.1631  0.2491
  918TIP3    H124245   0.886   0.660  12.819 -0.3138 -1.1367 -0.0653
  918TIP3    H224246   0.903   0.628  12.672 -0.5134  1.0498 -0.5871
  919TIP3   OH224247   1.550   3.107  15.249  0.0339 -0.0136 -0.7547
  919TIP3    H124248   1.579   3.198  15.245 -0.9624  0.3183 -0.7793
  919TIP3    H224249   1.456   3.114  15.266  0.0834 -1.0481 -0.0469
  920TIP3   OH224250   2.641   6.553  14.588 -0.0803 -0.0439  0.0980
  920TIP3    H124251   2.716   6.525  14.535  0.0347  0.0729  0.1995
  920TIP3    H224252   2.568   6.501  14.556  0.0194 -0.0718 -0.0816
  921TIP3   OH224253   4.276   1.126  13.470  0.1341 -0.1721  0.2936
  921TIP3    H124254   4.304   1.040  13.439 -1.0147  0.3112 -2.1664
  921TIP3    H224255   4.220   1.160  13.401  0.6583  2.6334  1.1775
  922TIP3   OH224256   4.518   4.868   4.337 -0.6557  0.1551  0.2699
  922TIP3    H124257   4.596   4.918   4.313  0.7339 -0.7461  2.6764
  922TIP3    H224258   4.463   4.932   4.383  1.2258 -0.4991  3.5607
  923TIP3   OH224259   6.322   2.454   4.341  0.1432  0.4973 -0.2035
  923TIP3    H124260   6.229   2.455   4.319  0.0765  3.4253 -0.0243
  923TIP3    H224261   6.326   2.420   4.431 -0.6094 -0.7913 -0.6429
  924TIP3   OH224262   1.537   1.653   3.113  0.2688  0.3203 -1.0795
  924TIP3    H124263   1.495   1.638   3.197 -0.0061  0.6625 -1.1551
  924TIP3    H224264   1.604   1.585   3.107  0.1799  0.1961 -0.6583
  925TIP3   OH224265   5.534   1.555   0.334  0.0844 -0.2460 -0.8868
  925TIP3    H124266   5.497   1.580   0.249  0.4664  0.8602 -0.7443
  925TIP3    H224267   5.622   1.523   0.314 -0.2373 -1.0439 -1.0244
  926TIP3   OH224268   2.711   3.155   5.097 -1.1269 -0.5265  0.3055
  926TIP3    H124269   2.671   3.170   5.183 -3.3352  1.3889 -1.0102
  926TIP3    H224270   2.749   3.240   5.073  0.1220 -1.2439 -0.3080
  927TIP3   OH224271   2.099   2.778  13.989  0.0279 -0.4791 -0.3705
  927TIP3    H124272   2.105   2.763  14.083  0.9027  1.2279 -0.1252
  927TIP3    H224273   2.022   2.729  13.962  0.4246 -1.9161  1.0244
  928TIP3   OH224274   3.728   1.414   2.301  0.4834  0.5556  0.0135
  928TIP3    H124275   3.804   1.444   2.351  2.1290 -1.2875 -1.3040
  928TIP3    H224276   3.760   1.411   2.211 -1.0867 -0.5146 -0.5110
  929TIP3   OH224277   1.397   3.756  15.615 -0.4303 -0.4446  0.1003
  929TIP3    H124278   1.416   3.700  15.690 -0.4459 -1.0904 -0.3731
  929TIP3    H224279   1.346   3.829  15.651 -0.6085 -0.8543  0.6748
  930TIP3   OH224280   4.805   6.139  15.235 -0.1544  0.3714  0.0869
  930TIP3    H124281   4.788   6.201  15.164  0.7331  0.3568 -0.1399
  930TIP3    H224282   4.837   6.192  15.307 -1.4914  0.4427  0.6423
  931TIP3   OH224283   1.169   6.266  15.960 -0.4858 -0.3345  0.7067
  931TIP3    H124284   1.083   6.241  15.926 -0.3236  0.0171  0.0231
  931TIP3    H224285   1.188   6.201  16.027 -1.4135 -0.2483  1.0602
  932TIP3   OH224286   2.692   2.224  13.758  0.1622 -0.2139 -1.0140
  932TIP3    H124287   2.708   2.216  13.664 -1.6948  1.5557 -1.5329
  932TIP3    H224288   2.603   2.258  13.764  0.7310  0.9930  1.3478
  933TIP3   OH224289   4.684   1.197  14.220 -0.1276 -0.5616  0.3032
  933TIP3    H124290   4.618   1.248  14.172  0.5427  0.6899  0.6938
  933TIP3    H224291   4.714   1.132  14.156 -0.1896  0.2374 -0.5591
  934TIP3   OH224292   0.561   0.676  12.788  0.1681  0.0206 -0.8050
  934TIP3    H124293   0.657   0.675  12.785  0.2083  0.4303  0.1773
  934TIP3    H224294   0.536   0.584  12.796  0.4265 -0.1922 -2.3459
  935TIP3   OH224295   4.274   2.281  16.458 -0.1777  0.0638 -0.4315
  935TIP3    H124296   4.180   2.277  16.476 -0.1592 -1.3128 -0.6206
  935TIP3    H224297   4.287   2.368  16.421 -1.7030 -0.4412 -2.2280
  936TIP3   OH224298   3.393   3.197  15.614  0.3869  0.5123 -0.0285
  936TIP3    H124299   3.368   3.235  15.698  2.4947  1.4659  0.2007
  936TIP3    H224300   3.419   3.107  15.634  0.8351  0.7223  0.3229
  937TIP3   OH224301   0.798   6.337   5.096 -0.2314  0.2165 -0.0351
  937TIP3    H124302   0.704   6.320   5.105 -0.6213  1.8336 -0.9336
  937TIP3    H224303   0.810   6.426   5.129  0.8756  0.2743 -0.5727
  938TIP3   OH224304   3.344   5.664  12.382  0.6282 -0.2286  0.0188
  938TIP3    H124305   3.367   5.592  12.441 -1.5180 -0.0872  1.1051
  938TIP3    H224306   3.355   5.743  12.435  0.2101  0.0240 -0.2697
  939TIP3   OH224307   2.658   3.922  13.829  0.2526  0.0827  0.1369
  939TIP3    H124308   2.671   3.840  13.876  1.3478  0.8782  1.2765
  939TIP3    H224309   2.746   3.956  13.813 -0.1848  1.2796  0.1525
  940TIP3   OH224310   5.115   0.247   1.006  0.9638  0.0356  0.8873
  940TIP3    H124311   5.024   0.266   0.983  0.7913  0.2651  1.7538
  940TIP3    H224312   5.134   0.163   0.965  0.8086  0.6599 -0.4965
  941TIP3   OH224313   2.982   0.062  12.146 -0.5750  0.3793  0.2288
  941TIP3    H124314   2.959   0.150  12.114 -1.6068 -0.7653 -2.3120
  941TIP3    H224315   3.021   0.019  12.070  0.9027 -1.0512  1.7564
  942TIP3   OH224316   2.318   1.716  12.604 -0.1472  0.0938  0.2061
  942TIP3    H124317   2.240   1.756  12.565 -0.8075 -1.1302  0.2304
  942TIP3    H224318   2.359   1.786  12.653 -1.5420  0.6355  0.6341
  943TIP3   OH224319   3.519   6.518  10.740 -0.2823  0.3735  1.0764
  943TIP3    H124320   3.569   6.441  10.764  1.7329  1.1895 -0.3600
  943TIP3    H224321   3.576   6.592  10.763 -1.8768  1.4315  1.7599
  944TIP3   OH224322   0.469   5.508  12.304 -0.4287 -0.4082  0.6887
  944TIP3    H124323   0.522   5.432  12.278  1.8492  2.0549 -2.3811
  944TIP3    H224324   0.382   5.489  12.270 -0.1453 -2.0887  0.8565
  945TIP3   OH224325   2.774   6.485  14.824  0.2585  0.3643 -0.3554
  945TIP3    H124326   2.700   6.436  14.858  1.0219  0.0170  0.8395
  945TIP3    H224327   2.742   6.525  14.744 -1.6632  1.4638  0.9401
  946TIP3   OH224328   3.427   5.815   2.341  0.0559  0.2789  0.5886
  946TIP3    H124329   3.512   5.770   2.349  0.3160  0.7888  0.7366
  946TIP3    H224330   3.394   5.791   2.255 -1.7921 -3.6455  2.2712
  947TIP3   OH224331   0.560   3.767   3.495  0.5270 -0.2009 -0.2599
  947TIP3    H124332   0.594   3.821   3.566  2.7668 -1.2274 -0.5002
  947TIP3    H224333   0.564   3.824   3.418 -0.3678  0.3836  0.1204
  948TIP3   OH224334   6.455   5.119  15.691  0.0817 -0.3483  0.1849
  948TIP3    H124335   6.376   5.133  15.638  0.3956 -0.3347 -0.2794
  948TIP3    H224336   6.423   5.120  15.782 -0.3637  0.2412  0.0249
  949TIP3   OH224337   1.768   4.283   4.891 -0.0511  0.2011 -0.0346
  949TIP3    H124338   1.735   4.195   4.877  0.3208  0.1089 -0.3507
  949TIP3    H224339   1.690   4.339   4.882 -0.1350 -0.0181 -0.7399
  950TIP3   OH224340   3.646   4.311  12.617 -0.0586  0.0888  0.0631
  950TIP3    H124341   3.701   4.353  12.551  0.6733 -0.0061  0.6206
  950TIP3    H224342   3.639   4.220  12.588  0.0939  0.0948  0.0083
  951TIP3   OH224343   5.183   3.408  12.183  0.2415  0.1630 -0.0524
  951TIP3    H124344   5.249   3.473  12.205 -0.1823 -0.0470  1.9115
  951TIP3    H224345   5.171   3.417  12.088  3.9439 -0.6371 -0.6566
  952TIP3   OH224346   3.991   4.822   3.304 -1.1414 -0.0507  0.5216
  952TIP3    H124347   3.987   4.726   3.300  1.1094 -0.1467  0.0217
  952TIP3    H224348   4.062   4.840   3.366 -1.0076  1.2960 -0.0156
  953TIP3   OH224349   5.878   5.055   4.061  0.2257 -0.4393 -0.2359
  953TIP3    H124350   5.805   5.026   4.007  0.8125  0.6001 -1.6355
  953TIP3    H224351   5.901   4.979   4.114 -1.3644 -1.0006 -0.3279
  954TIP3   OH224352   3.318   4.056  14.833  0.4672 -0.8032  0.0826
  954TIP3    H124353   3.302   4.114  14.759  0.4574 -0.8934  0.0141
  954TIP3    H224354   3.403   4.083  14.868  0.0680 -0.1884  0.5800
  955TIP3   OH224355   5.694   4.041  11.297  0.2384  0.3930 -0.1793
  955TIP3    H124356   5.609   4.000  11.283  0.1086  0.7616 -0.4933
  955TIP3    H224357   5.741   4.028  11.214  0.4630  0.2466 -0.0296
  956TIP3   OH224358   6.020   1.570   1.831  0.0368  0.5230  0.3345
  956TIP3    H124359   6.043   1.487   1.872 -2.5522 -0.3181  0.1750
  956TIP3    H224360   6.043   1.559   1.739 -0.8032 -0.2417  0.2071
  957TIP3   OH224361   4.059   2.032  14.203 -0.3217  0.0972 -0.5827
  957TIP3    H124362   4.120   1.964  14.231 -1.1224 -1.6518 -2.9374
  957TIP3    H224363   4.040   2.082  14.283  3.0268 -0.2105  0.4668
  958TIP3   OH224364   2.368   1.904   6.946  0.3114  0.4684 -0.2440
  958TIP3    H124365   2.424   1.864   6.880  0.8212 -2.1563  1.6916
  958TIP3    H224366   2.305   1.836   6.968 -0.7477  1.8123  0.9267
  959TIP3   OH224367   5.170   6.159   5.698 -0.3333  0.2882  0.6853
  959TIP3    H124368   5.240   6.219   5.724  0.8770 -1.3523  1.2356
  959TIP3    H224369   5.176   6.087   5.760 -2.6524  0.2115  0.8692
  960TIP3   OH224370   2.797   2.616   0.696  0.2118  0.2409 -0.4851
  960TIP3    H124371   2.831   2.629   0.607  0.6144 -3.4255 -0.9105
  960TIP3    H224372   2.709   2.653   0.693 -0.4822 -1.4969 -2.9651
  961TIP3   OH224373   2.637   1.415   4.082  0.0732  0.1649 -0.3896
  961TIP3    H124374   2.584   1.479   4.033 -1.1353 -0.0573  0.5985
  961TIP3    H224375   2.586   1.334   4.077  0.1839  0.0245  0.8216
  962TIP3   OH224376   3.408   1.430   6.990  0.0210  0.0313 -0.4616
  962TIP3    H124377   3.383   1.394   6.905 -0.6255 -1.6581  0.4359
  962TIP3    H224378   3.326   1.454   7.032  0.2682 -0.1665  0.1403
  963TIP3   OH224379   3.286   3.568  11.070  0.4414 -0.6469  0.2598
  963TIP3    H124380   3.200   3.531  11.085  0.1357 -0.4777 -0.9893
  963TIP3    H224381   3.309   3.611  11.152 -0.1284 -1.7418  0.9955
  964TIP3   OH224382   2.115   6.437  14.264  0.1143 -0.2660  0.1715
  964TIP3    H124383   2.115   6.391  14.348  0.2762 -0.8749 -0.1598
  964TIP3    H224384   2.200   6.417  14.226 -1.6049 -3.6609 -2.1220
  965TIP3   OH224385   5.001   3.460  16.246 -0.3481 -0.4431  0.3494
  965TIP3    H124386   4.979   3.493  16.333 -0.2471 -0.0684  0.2359
  965TIP3    H224387   4.951   3.379  16.237 -2.3522  0.8063 -0.2245
  966TIP3   OH224388   3.019   5.602   1.312  0.1727  0.5932 -0.3245
  966TIP3    H124389   3.045   5.665   1.380 -1.9149  2.5691 -1.3090
  966TIP3    H224390   2.925   5.592   1.324  0.1131 -0.5477 -1.7170
  967TIP3   OH224391   2.345   5.690   4.682 -0.1654  0.0265 -0.2757
  967TIP3    H124392   2.303   5.769   4.716 -0.6617 -0.0690 -0.6520
  967TIP3    H224393   2.296   5.618   4.723  0.9046 -0.0888  0.8151
  968TIP3   OH224394   2.636   4.668  14.575 -0.2617  0.0520 -0.2469
  968TIP3    H124395   2.698   4.596  14.565  1.3465  0.9787  2.4040
  968TIP3    H224396   2.691   4.747  14.570 -1.5088  0.9555  0.1247
  969TIP3   OH224397   3.630   3.320  16.333  0.1707 -0.1239 -0.1156
  969TIP3    H124398   3.667   3.342  16.418  0.7474  0.5905 -0.5495
  969TIP3    H224399   3.560   3.383  16.319 -0.7128 -0.9779  0.3461
  970TIP3   OH224400   2.482   5.757  17.188  0.0082  0.4575 -0.5621
  970TIP3    H124401   2.432   5.712  17.256 -0.3975  2.5817  0.6093
  970TIP3    H224402   2.559   5.703  17.173 -0.8915 -1.0392  0.1688
  971TIP3   OH224403   3.325   5.800   1.970 -0.6549 -0.0461  0.2225
  971TIP3    H124404   3.265   5.797   2.044 -3.5000 -1.1494 -2.0254
  971TIP3    H224405   3.292   5.733   1.910  1.8365  0.5141 -1.8476
  972TIP3   OH224406   2.327   5.218   5.339 -0.3537  0.0248 -0.2506
  972TIP3    H124407   2.378   5.263   5.272 -0.6555  1.6234  0.5798
  972TIP3    H224408   2.239   5.213   5.303 -0.6692  1.4890  0.2991
  973TIP3   OH224409   4.391   3.182  13.815  0.1684  0.2431 -0.4926
  973TIP3    H124410   4.476   3.209  13.782 -0.0435  1.0122 -0.4109
  973TIP3    H224411   4.339   3.165  13.737 -0.3692  2.1795 -0.5689
  974TIP3   OH224412   2.297   3.491  11.590 -0.2092 -0.5337  0.1303
  974TIP3    H124413   2.323   3.404  11.622  0.3647 -0.5981 -0.5101
  974TIP3    H224414   2.201   3.487  11.587 -0.2538 -0.6642  1.4399
  975TIP3   OH224415   0.759   2.982   6.040  0.7522 -0.3743  0.6345
  975TIP3    H124416   0.756   2.907   6.101 -0.1831 -0.5804  0.3462
  975TIP3    H224417   0.824   2.956   5.974 -1.2020 -1.9441 -0.7423
  976TIP3   OH224418   1.706   4.386  13.680 -0.0529 -0.3190 -0.8105
  976TIP3    H124419   1.730   4.325  13.750  0.4733 -1.6685 -2.1466
  976TIP3    H224420   1.618   4.358  13.653  0.6999 -1.2948 -2.2811
  977TIP3   OH224421   4.638   4.441  11.021 -0.7867 -0.1755 -0.3252
  977TIP3    H124422   4.691   4.521  11.014  0.2972 -0.7184  1.3150
  977TIP3    H224423   4.654   4.394  10.940 -0.2054  0.5427 -0.6339
  978TIP3   OH224424   3.509   6.255  12.575  0.4179  0.2654 -0.4362
  978TIP3    H124425   3.510   6.238  12.481 -1.4636  0.3916 -0.5024
  978TIP3    H224426   3.563   6.185  12.612 -2.1418 -2.2955 -1.2840
  979TIP3   OH224427   4.540   2.785  15.260 -0.8483 -0.5669  0.2474
  979TIP3    H124428   4.619   2.823  15.298  0.0482 -1.1844 -0.9451
  979TIP3    H224429   4.528   2.703  15.306 -2.1959  0.6396  2.1070
  980TIP3   OH224430   3.574   0.556   0.497  0.5906 -0.1410 -0.5390
  980TIP3    H124431   3.496   0.575   0.445  0.2033  1.2823  0.5236
  980TIP3    H224432   3.629   0.634   0.488  0.6653 -0.0181  0.9179
  981TIP3   OH224433   5.896   2.448  15.390 -0.3945 -0.4029 -0.3758
  981TIP3    H124434   5.803   2.425  15.393 -0.1213 -1.3848  1.1945
  981TIP3    H224435   5.902   2.528  15.442 -0.3095 -0.5610 -0.1395
  982TIP3   OH224436   4.394   1.081   2.126 -0.1308  0.0159 -0.2415
  982TIP3    H124437   4.419   1.121   2.209  0.5556 -1.2796  0.1886
  982TIP3    H224438   4.407   0.988   2.139  0.4069 -0.1713 -1.9542
  983TIP3   OH224439   3.622   5.997   3.106  0.1119  0.8234 -0.0229
  983TIP3    H124440   3.535   5.959   3.117 -0.6426  2.1889 -1.1431
  983TIP3    H224441   3.633   6.005   3.011  1.6117  0.3391  0.0860
  984TIP3   OH224442   2.591   1.752  13.875 -0.3803 -0.4472  0.2862
  984TIP3    H124443   2.594   1.797  13.790  1.5054  1.6168  1.3973
  984TIP3    H224444   2.680   1.758  13.908 -0.9191 -1.9332  2.0938
  985TIP3   OH224445   4.629   5.024  12.461  0.1662 -0.1923 -0.6038
  985TIP3    H124446   4.586   4.958  12.515  1.0116 -1.7366 -1.7748
  985TIP3    H224447   4.654   5.093  12.522  0.5911 -1.6395  0.8952
  986TIP3   OH224448   0.485   3.527   1.869  0.0819 -0.1898 -0.2613
  986TIP3    H124449   0.390   3.539   1.870  0.1952  0.8617 -1.1314
  986TIP3    H224450   0.498   3.436   1.843 -0.7569 -1.6743  4.1910
  987TIP3   OH224451   5.007   0.597   0.889  0.0910  0.1207  0.5060
  987TIP3    H124452   4.941   0.583   0.957  0.0636  1.1685  0.7021
  987TIP3    H224453   4.987   0.531   0.823 -0.9893  0.2512  0.6854
  988TIP3   OH224454   4.069   6.147   4.473  0.0811 -0.4821  0.4826
  988TIP3    H124455   4.112   6.190   4.398 -0.8063 -1.0767 -0.3814
  988TIP3    H224456   4.130   6.078   4.499  0.4615 -0.1783  0.4077
  989TIP3   OH224457   6.106   4.831   1.483  1.1371 -0.7719  0.0764
  989TIP3    H124458   6.124   4.812   1.391 -0.9585 -0.9963 -0.2892
  989TIP3    H224459   6.114   4.746   1.527 -2.7164 -1.6120 -0.6934
  990TIP3   OH224460   1.246   4.029  12.848  0.1849 -0.0698  0.1072
  990TIP3    H124461   1.278   3.939  12.840  0.0722 -0.1099  0.1066
  990TIP3    H224462   1.155   4.025  12.820  0.5835  0.3146 -1.3348
  991TIP3   OH224463   4.184   3.642  15.103  1.0273 -0.1535  0.8578
  991TIP3    H124464   4.178   3.738  15.109  3.1159  0.0513  0.1315
  991TIP3    H224465   4.273   3.622  15.130  0.8708 -1.8222  0.1813
  992TIP3   OH224466   2.747   2.189  15.415 -0.2059  0.0543 -0.8360
  992TIP3    H124467   2.702   2.272  15.403  0.9523  0.4388 -2.6077
  992TIP3    H224468   2.802   2.202  15.492 -1.8108  0.1425  0.3106
  993TIP3   OH224469   6.654   3.134  13.845  0.2079  0.4634 -0.2398
  993TIP3    H124470   6.658   3.229  13.840 -1.1491  0.4410 -2.9765
  993TIP3    H224471   6.715   3.104  13.777  0.8672 -0.6251  0.8200
  994TIP3   OH224472   0.700   4.985  17.050 -0.0605 -0.4643 -0.5401
  994TIP3    H124473   0.653   5.013  17.128  1.0271 -0.5786  0.1685
  994TIP3    H224474   0.635   4.938  16.998 -0.1964 -2.4965  1.4246
  995TIP3   OH224475   5.081   0.940   1.181  0.2244  0.0895 -0.0706
  995TIP3    H124476   5.132   0.916   1.104 -1.4571  0.3750 -1.2975
  995TIP3    H224477   5.050   0.856   1.216  1.0613 -0.0450  0.3634
  996TIP3   OH224478   1.950   0.448  11.038  0.0762  0.2882  0.0684
  996TIP3    H124479   2.026   0.457  10.981 -0.9340  1.3518 -1.1347
  996TIP3    H224480   1.918   0.359  11.022  2.6494 -1.1973  2.6304
  997TIP3   OH224481   3.314   3.516   5.254 -0.0883 -0.3428 -0.0624
  997TIP3    H124482   3.277   3.446   5.200 -1.4551 -0.3860  0.8984
  997TIP3    H224483   3.396   3.539   5.211  0.2242 -2.3111 -0.5748
  998TIP3   OH224484   0.729   5.286   0.076 -0.1916 -0.3737  0.5400
  998TIP3    H124485   0.819   5.252   0.073  0.7840  2.2455 -2.3792
  998TIP3    H224486   0.727   5.342   0.153  1.0181  0.3329  0.0697
  999TIP3   OH224487   2.184   4.992   3.276 -0.6311  0.1725 -0.2260
  999TIP3    H124488   2.199   4.909   3.229  2.6522  0.8319 -0.4846
  999TIP3    H224489   2.137   5.047   3.213  2.1547  0.4156 -2.1878
 1000TIP3   OH224490   6.771   2.988  14.346  0.4649 -0.5798 -0.3169
 1000TIP3    H124491   6.788   3.081  14.361  1.7052 -0.9377  0.5292
 1000TIP3    H224492   6.698   2.968  14.405  0.6852 -0.3206  0.0480
 1001TIP3   OH224493   5.966   2.778  11.946 -0.0177  0.0377 -1.1330
 1001TIP3    H124494   6.031   2.747  12.009  1.5632  1.1120 -2.2023
 1001TIP3    H224495   5.882   2.751  11.984  0.9377 -0.0245  1.0403
 1002TIP3   OH224496   3.461   1.262  17.134 -0.7354 -0.5283 -0.3309
 1002TIP3    H124497   3.542   1.216  17.158  0.5581  1.8681  0.1531
 1002TIP3    H224498   3.492   1.344  17.094 -2.9433  0.2281 -0.5572
 1003TIP3   OH224499   3.946   0.179   6.200 -0.1290  0.4968  0.1133
 1003TIP3    H124500   3.880   0.141   6.257 -0.1984 -1.5480 -1.2756
 1003TIP3    H224501   3.913   0.266   6.178 -0.4377  1.0293  2.5741
 1004TIP3   OH224502   1.695   5.103   5.184 -0.8466 -1.0118  0.1036
 1004TIP3    H124503   1.671   5.079   5.274  0.0514 -0.0917  0.5966
 1004TIP3    H224504   1.767   5.044   5.162  0.8651  0.6716  1.0468
 1005TIP3   OH224505   0.935   5.847  13.561 -0.3247  0.4398  0.7602
 1005TIP3    H124506   0.884   5.881  13.635 -0.4836  0.0162  0.8451
 1005TIP3    H224507   0.881   5.776  13.525  0.8613 -1.0015  1.7678
 1006TIP3   OH224508   2.902   5.328  10.806 -0.4686 -0.1658 -0.0158
 1006TIP3    H124509   2.897   5.328  10.710 -0.3069  1.1812 -0.0282
 1006TIP3    H224510   2.856   5.407  10.832  0.9227  0.3248  0.9469
 1007TIP3   OH224511   3.784   5.611   2.925 -0.4143 -0.2188  0.5560
 1007TIP3    H124512   3.715   5.579   2.867 -0.6286  0.2229  0.5630
 1007TIP3    H224513   3.862   5.562   2.899 -0.7363 -0.7367  0.5658
 1008TIP3   OH224514   5.824   4.127  13.856  0.2344  0.2912 -0.3067
 1008TIP3    H124515   5.855   4.039  13.877 -1.4342 -0.0944  0.5872
 1008TIP3    H224516   5.896   4.185  13.884  0.1101 -0.5675  1.8813
 1009TIP3   OH224517   6.449   2.615  12.458  0.0573 -0.1610 -0.3821
 1009TIP3    H124518   6.427   2.534  12.413 -1.6232  0.2359 -0.3344
 1009TIP3    H224519   6.373   2.632  12.515  0.7300  1.0199  0.1864
 1010TIP3   OH224520   0.497   0.844  14.414  0.1208 -0.0003 -0.3458
 1010TIP3    H124521   0.419   0.899  14.421  0.2798  0.2730 -0.7263
 1010TIP3    H224522   0.469   0.759  14.447  0.6591  1.0478  2.9132
 1011TIP3   OH224523   1.217   5.959   6.239 -0.3568  0.2542 -0.0689
 1011TIP3    H124524   1.251   6.048   6.226 -0.3716  0.3836  0.7574
 1011TIP3    H224525   1.238   5.913   6.158 -1.3293  1.3207 -0.9296
 1012TIP3   OH224526   5.522   0.199   4.850  0.1762 -0.0470  0.1257
 1012TIP3    H124527   5.445   0.246   4.820 -1.1562 -1.0633  1.8283
 1012TIP3    H224528   5.585   0.268   4.873 -0.6869  0.8303 -0.1118
 1013TIP3   OH224529   3.368   4.826  17.195  0.2949 -0.0986 -0.2251
 1013TIP3    H124530   3.410   4.817  17.281 -0.4756  0.9752  0.2741
 1013TIP3    H224531   3.345   4.737  17.170 -0.9514 -0.2703  1.4503
 1014TIP3   OH224532   4.455   1.401  13.687 -0.8183  0.1631  0.2318
 1014TIP3    H124533   4.476   1.336  13.753 -1.1165 -0.6455 -0.4556
 1014TIP3    H224534   4.540   1.439  13.663 -0.9640  2.1255  2.7475
 1015TIP3   OH224535   2.001   4.371   0.969  0.3351 -0.3691 -0.5173
 1015TIP3    H124536   2.039   4.310   0.905 -2.2409  0.3485 -2.8337
 1015TIP3    H224537   2.022   4.457   0.934 -2.9563  0.0318 -1.6021
 1016TIP3   OH224538   2.462   5.896  11.566 -0.1758 -0.3693 -0.1373
 1016TIP3    H124539   2.386   5.872  11.513  0.5198 -2.1484 -0.3686
 1016TIP3    H224540   2.452   5.846  11.646  0.5218 -0.2785  0.0101
 1017TIP3   OH224541   0.969   3.421   3.511 -0.2677 -0.5547 -0.1430
 1017TIP3    H124542   1.014   3.385   3.435  2.0125 -0.2376  1.0028
 1017TIP3    H224543   0.927   3.501   3.479 -0.5156 -1.1560 -1.3576
 1018TIP3   OH224544   3.838   4.869  13.433  0.0281  0.7099 -0.4520
 1018TIP3    H124545   3.780   4.911  13.369  0.6209 -0.1018 -1.5342
 1018TIP3    H224546   3.918   4.922  13.431 -0.2714  1.1998  0.2666
 1019TIP3   OH224547   0.401   1.408  13.638  0.1660  0.3652 -0.3823
 1019TIP3    H124548   0.431   1.410  13.729  1.3655 -1.7220 -0.6996
 1019TIP3    H224549   0.447   1.480  13.595  1.7509 -0.4003  0.0283
 1020TIP3   OH224550   1.343   4.749   1.454 -0.1716 -0.1236  0.8788
 1020TIP3    H124551   1.288   4.671   1.460 -1.3806  0.7849  2.2606
 1020TIP3    H224552   1.397   4.746   1.533 -0.0878  0.3092  0.8398
 1021TIP3   OH224553   5.473   4.453   0.122 -0.1342  0.1763  0.1882
 1021TIP3    H124554   5.397   4.409   0.083  0.1666 -1.0103  0.8853
 1021TIP3    H224555   5.440   4.490   0.204  0.5306 -2.3496  1.6525
 1022TIP3   OH224556   2.332   3.045   5.193  0.4763  0.0231  0.2856
 1022TIP3    H124557   2.417   3.005   5.175 -0.4779 -1.7936 -0.3474
 1022TIP3    H224558   2.270   2.971   5.190 -1.1777  1.3870  0.2802
 1023TIP3   OH224559   5.041   2.782   1.988 -0.0520 -0.5506  0.2790
 1023TIP3    H124560   4.967   2.840   1.973  1.0810  1.1581  1.1119
 1023TIP3    H224561   5.083   2.774   1.902  1.0276  1.6437  0.5736
 1024TIP3   OH224562   3.412   6.703   2.251 -0.5210 -0.1536  0.4245
 1024TIP3    H124563   3.370   6.618   2.235  0.3400 -0.2540 -1.5616
 1024TIP3    H224564   3.501   6.681   2.279 -0.5835  0.0818  0.8049
 1025TIP3   OH224565   2.991   1.960   3.821 -0.1565 -0.1244  0.0960
 1025TIP3    H124566   2.989   1.924   3.733  1.1335 -0.0727  0.0325
 1025TIP3    H224567   3.084   1.957   3.846 -0.4860  0.0197  1.3743
 1026TIP3   OH224568   0.150   4.872  12.156  0.3608  0.1523  0.3406
 1026TIP3    H124569   0.200   4.947  12.186  0.1663 -0.6576  2.7615
 1026TIP3    H224570   0.097   4.846  12.231  0.1288 -2.1719 -0.5807
 1027TIP3   OH224571   1.982   0.865  14.632 -0.1880 -0.1280 -0.2166
 1027TIP3    H124572   1.915   0.917  14.677 -0.0587 -0.9142  0.8972
 1027TIP3    H224573   2.017   0.925  14.565  0.3341  1.4125  1.3929
 1028TIP3   OH224574   5.751   5.241  17.125  0.0573  0.1941  0.0275
 1028TIP3    H124575   5.680   5.236  17.189 -0.8048  1.5701 -0.8070
 1028TIP3    H224576   5.804   5.315  17.154 -0.0039  0.4508 -0.5155
 1029TIP3   OH224577   4.229   6.089   5.909 -0.0865 -0.1008  0.0906
 1029TIP3    H124578   4.319   6.113   5.931 -0.4120  0.8943  0.4127
 1029TIP3    H224579   4.222   5.996   5.930  1.2095 -0.4791 -1.1041
 1030TIP3   OH224580   6.692   4.244   0.619  0.1748 -0.2137  0.2165
 1030TIP3    H124581   6.673   4.157   0.655 -0.6500  0.3405  1.1564
 1030TIP3    H224582   6.780   4.264   0.649 -0.0606 -0.2592  0.9670
 1031TIP3   OH224583   3.883   4.721  12.201  0.0011 -0.4262  0.2484
 1031TIP3    H124584   3.898   4.629  12.179 -2.3063 -1.1501  1.5704
 1031TIP3    H224585   3.839   4.758  12.125 -0.4301 -0.7899  0.3241
 1032TIP3   OH224586   2.097   5.224   3.074 -0.2238  0.6462  0.5404
 1032TIP3    H124587   2.179   5.226   3.025 -0.6996  0.2938 -0.2962
 1032TIP3    H224588   2.092   5.309   3.117  1.2193  0.1681  1.6901
 1033TIP3   OH224589   5.832   0.722  15.952 -0.2965  0.6431  0.1825
 1033TIP3    H124590   5.926   0.706  15.963 -0.3509  0.0798 -0.1937
 1033TIP3    H224591   5.823   0.816  15.969 -0.1321  0.1504  3.3182
 1034TIP3   OH224592   3.418   4.290   5.950  0.6215 -0.5143 -0.0194
 1034TIP3    H124593   3.457   4.333   6.026  0.0125 -1.0978  0.6218
 1034TIP3    H224594   3.367   4.218   5.986 -1.6732  0.6819 -0.7974
 1035TIP3   OH224595   2.129   1.168   1.427  0.0041 -0.4281  0.4657
 1035TIP3    H124596   2.136   1.263   1.430 -0.8975 -0.3112 -0.7877
 1035TIP3    H224597   2.220   1.137   1.421  0.2489  0.3771  0.0688
 1036TIP3   OH224598   3.620   4.626  16.037  0.6779 -0.0337  0.4815
 1036TIP3    H124599   3.540   4.665  16.072  0.5878  0.6394 -0.4434
 1036TIP3    H224600   3.676   4.700  16.015  0.5857 -0.4027 -1.1128
 1037TIP3   OH224601   2.822   0.082  12.408 -0.1145 -0.5213 -0.0694
 1037TIP3    H124602   2.910   0.045  12.402 -0.2078 -0.9822  1.3156
 1037TIP3    H224603   2.790   0.081  12.317  0.6876 -1.8616 -0.3558
 1038TIP3   OH224604   6.294   5.459  13.566  0.3681  0.0013 -0.0502
 1038TIP3    H124605   6.223   5.397  13.546  0.6517 -0.0372 -0.9496
 1038TIP3    H224606   6.351   5.411  13.626 -0.5212  0.1308  0.8966
 1039TIP3   OH224607   0.219   2.264   1.528 -0.3152 -0.6861 -0.0008
 1039TIP3    H124608   0.201   2.286   1.437 -0.8181 -1.2440 -0.0367
 1039TIP3    H224609   0.301   2.310   1.548 -2.0328  2.2970  0.3563
 1040TIP3   OH224610   0.124   1.783   0.556 -0.0462  0.0581 -0.2228
 1040TIP3    H124611   0.148   1.859   0.504  0.0966 -0.2766 -0.6543
 1040TIP3    H224612   0.202   1.728   0.556  0.9576  1.4208  2.8684
 1041TIP3   OH224613   4.208   6.614   5.381  0.2334 -0.1074  0.2252
 1041TIP3    H124614   4.299   6.589   5.364  0.3096  0.0038  0.4720
 1041TIP3    H224615   4.170   6.537   5.425  0.5406  0.3134  1.2284
 1042TIP3   OH224616   0.032   6.230  17.059  0.7961  0.1234  0.2227
 1042TIP3    H124617  -0.026   6.214  17.134  0.2348 -1.1255 -0.4652
 1042TIP3    H224618  -0.025   6.223  16.983  1.7601 -0.7220 -0.4427
 1043TIP3   OH224619   0.417   1.091  17.002 -0.5700 -0.1018 -0.4072
 1043TIP3    H124620   0.443   1.127  17.087  1.7320  0.7096 -1.3995
 1043TIP3    H224621   0.390   1.002  17.020  1.3458 -0.4296  0.9871
 1044TIP3   OH224622   1.657   1.605  14.817 -0.0672  0.1959  0.6630
 1044TIP3    H124623   1.587   1.663  14.847  0.4255  0.7224  0.8083
 1044TIP3    H224624   1.670   1.629  14.726 -0.5326 -0.3646  0.4481
 1045TIP3   OH224625   6.326   4.536  12.740 -0.2916  0.1889  0.4670
 1045TIP3    H124626   6.286   4.453  12.765  1.3764 -0.9939 -0.7622
 1045TIP3    H224627   6.279   4.563  12.661 -0.8989  0.4994  0.9211
 1046TIP3   OH224628   6.101   0.364  12.402 -0.3527 -0.2795 -0.2180
 1046TIP3    H124629   6.047   0.442  12.387 -1.8894 -1.6109 -1.6787
 1046TIP3    H224630   6.176   0.375  12.344 -0.6790  0.0147 -0.5864
 1047TIP3   OH224631   5.441   3.988   2.109  0.1543  0.1190  0.0989
 1047TIP3    H124632   5.458   4.014   2.019  0.0826  1.1792  0.3799
 1047TIP3    H224633   5.383   4.057   2.143 -0.7910 -0.9019  0.5858
 1048TIP3   OH224634   6.426   6.593  13.225 -0.0773 -0.3977  0.1091
 1048TIP3    H124635   6.440   6.586  13.130  1.1630  0.1743  0.2400
 1048TIP3    H224636   6.471   6.518  13.262 -0.3226 -0.4666  0.2681
 1049TIP3   OH224637   4.027   1.403  12.010  0.4672 -0.2526  0.2474
 1049TIP3    H124638   3.939   1.405  11.971  0.8094 -2.7581 -0.7325
 1049TIP3    H224639   4.017   1.353  12.091  1.0475 -0.8759 -0.0570
 1050TIP3   OH224640   3.891   6.815   6.018  0.4134  0.0096  0.2052
 1050TIP3    H124641   3.934   6.834   6.102  0.5362 -0.6235  0.2889
 1050TIP3    H224642   3.849   6.897   5.993  1.0026  0.4065  0.5205
 1051TIP3   OH224643   0.338   0.951   2.489  0.0703  0.2136  0.0032
 1051TIP3    H124644   0.378   0.920   2.407  1.1759 -0.8043  0.8988
 1051TIP3    H224645   0.354   0.879   2.551 -3.8237 -0.5537  0.2234
 1052TIP3   OH224646   1.148   5.325  11.891 -0.0329  0.1992  0.2402
 1052TIP3    H124647   1.150   5.377  11.810  0.0706 -1.4129 -0.8102
 1052TIP3    H224648   1.236   5.334  11.927  0.3435 -0.2403 -0.5707
 1053TIP3   OH224649   5.844   1.514  11.926  0.1163  0.5435 -0.3196
 1053TIP3    H124650   5.840   1.608  11.912  1.2602  0.5757 -0.4760
 1053TIP3    H224651   5.929   1.500  11.969  0.7555 -0.6228 -1.9260
 1054TIP3   OH224652   3.677   1.402  16.629 -0.4165 -0.3441 -0.1679
 1054TIP3    H124653   3.721   1.327  16.668 -3.0844 -2.1240 -0.4245
 1054TIP3    H224654   3.587   1.396  16.661 -1.4466  0.9514 -2.6785
 1055TIP3   OH224655   3.898   0.508   1.461 -0.5098 -0.0661 -0.0716
 1055TIP3    H124656   3.897   0.422   1.503  0.5610 -0.2135 -0.3335
 1055TIP3    H224657   3.989   0.521   1.435 -0.7695  0.9155 -0.5154
 1056TIP3   OH224658   6.279   0.641   5.380 -0.2736 -0.1246 -0.3032
 1056TIP3    H124659   6.370   0.626   5.356  0.4369  1.3855  1.2569
 1056TIP3    H224660   6.253   0.719   5.330 -0.8112 -0.7255 -0.9695
 1057TIP3   OH224661   1.444   3.185   4.517 -0.0982 -0.1249  0.1759
 1057TIP3    H124662   1.456   3.215   4.607 -0.3366  1.0722 -0.1811
 1057TIP3    H224663   1.391   3.253   4.476  1.9357  0.5218 -1.5050
 1058TIP3   OH224664   6.734   2.312  11.015  0.3633 -0.2278 -0.0290
 1058TIP3    H124665   6.745   2.405  11.034 -0.3347 -0.1560  0.0147
 1058TIP3    H224666   6.640   2.298  11.011  0.3535 -1.5668  3.1242
 1059TIP3   OH224667   6.132   6.244  16.428 -0.2803  0.4545 -0.3847
 1059TIP3    H124668   6.103   6.164  16.474  0.6803  0.2391 -0.1428
 1059TIP3    H224669   6.227   6.244  16.438 -0.3243  1.9746  0.1677
 1060TIP3   OH224670   0.884   2.283  10.868  0.3942  0.3536 -0.8441
 1060TIP3    H124671   0.917   2.361  10.913 -0.7703  0.6109 -0.4034
 1060TIP3    H224672   0.893   2.303  10.775  0.8766  0.6747 -0.7287
 1061TIP3   OH224673   6.396   2.015  16.472  0.2243 -0.6804 -0.8813
 1061TIP3    H124674   6.374   1.935  16.520  1.7848 -1.3925 -1.2949
 1061TIP3    H224675   6.325   2.075  16.492 -1.7825 -2.6688 -1.7645
 1062TIP3   OH224676   5.752   5.318  13.762 -0.0840  0.4244  0.0073
 1062TIP3    H124677   5.818   5.288  13.825 -0.3925 -0.8273 -0.2370
 1062TIP3    H224678   5.795   5.309  13.677  0.2794  1.9673  0.0209
 1063TIP3   OH224679   3.544   5.260   5.687 -0.0113 -0.1705 -0.9221
 1063TIP3    H124680   3.582   5.334   5.640 -2.0214  1.5786  0.1535
 1063TIP3    H224681   3.474   5.298   5.739 -0.0856 -2.6118  0.8277
 1064TIP3   OH224682   3.127   6.472  15.482 -0.2644  0.4659 -0.4876
 1064TIP3    H124683   3.220   6.495  15.473  0.4828 -2.5676 -1.2041
 1064TIP3    H224684   3.119   6.442  15.572  0.1942 -2.1717 -1.2815
 1065TIP3   OH224685   2.709   0.853  11.719  0.0557 -0.4879 -0.0945
 1065TIP3    H124686   2.793   0.899  11.716  0.7055 -1.6861 -0.9637
 1065TIP3    H224687   2.653   0.908  11.774  0.3083  2.1699 -2.3200
 1066TIP3   OH224688   3.522   4.007   4.783  0.2150 -0.4627 -0.2433
 1066TIP3    H124689   3.426   4.003   4.786  0.2315 -0.0490  1.4104
 1066TIP3    H224690   3.543   4.010   4.689 -1.5074  2.1869 -0.6193
 1067TIP3   OH224691   5.214   5.717   2.642 -0.1577 -0.1718  0.6136
 1067TIP3    H124692   5.299   5.756   2.620 -0.7152  0.4303 -0.5351
 1067TIP3    H224693   5.195   5.750   2.729 -0.2528  1.5358 -0.0265
 1068TIP3   OH224694   1.181   2.530   5.031  0.1034  0.4151  0.1630
 1068TIP3    H124695   1.229   2.455   4.998  0.7000  1.1094 -0.5592
 1068TIP3    H224696   1.093   2.497   5.048  0.3118 -0.3911 -0.3353
 1069TIP3   OH224697   4.173   0.983   3.096  0.0352 -0.3325  0.2862
 1069TIP3    H124698   4.187   0.896   3.132 -0.0450 -0.6298 -0.3961
 1069TIP3    H224699   4.258   1.009   3.060 -1.0181 -2.0903 -3.7458
 1070TIP3   OH224700   5.879   6.729   0.174 -0.4222 -0.4218 -0.9144
 1070TIP3    H124701   5.863   6.784   0.098 -0.3390  0.0081 -0.6198
 1070TIP3    H224702   5.973   6.739   0.191 -0.3868 -0.7330 -0.9217
 1071TIP3   OH224703   3.342   1.242  12.376  0.9400  0.0313  0.0916
 1071TIP3    H124704   3.266   1.239  12.434  0.1114 -0.2278 -0.9839
 1071TIP3    H224705   3.375   1.332  12.383 -0.9393  0.8586 -1.2598
 1072TIP3   OH224706   2.548   3.452  11.035  0.3999  0.1667  0.4219
 1072TIP3    H124707   2.608   3.416  10.970  0.4753 -1.3221  1.3171
 1072TIP3    H224708   2.461   3.442  10.995  0.6277  1.3158 -0.3969
 1073TIP3   OH224709   4.325   4.238  10.265 -0.1722  0.2293 -0.1067
 1073TIP3    H124710   4.358   4.280  10.345  0.4655  0.2296 -0.3668
 1073TIP3    H224711   4.317   4.309  10.202 -0.2339  0.1527 -0.1842
 1074TIP3   OH224712   0.770   1.500   0.295  0.1226  0.0139 -0.1378
 1074TIP3    H124713   0.711   1.434   0.333  1.9210 -0.7432  1.4450
 1074TIP3    H224714   0.755   1.578   0.347  1.3217 -0.5228  1.0630
 1075TIP3   OH224715   0.704   4.574   3.843 -0.2541  0.1807 -0.4423
 1075TIP3    H124716   0.608   4.580   3.841 -0.3073 -0.8290 -2.9742
 1075TIP3    H224717   0.728   4.546   3.754  2.3874  0.3418  0.1830
 1076TIP3   OH224718   6.651   1.513   5.085 -0.3804 -0.5551  0.1744
 1076TIP3    H124719   6.564   1.478   5.063 -0.0093 -1.5105  0.2063
 1076TIP3    H224720   6.709   1.437   5.082  0.4397  0.0619  0.2656
 1077TIP3   OH224721   6.646   4.282  14.978 -0.1815  0.4402 -0.5264
 1077TIP3    H124722   6.580   4.346  14.950  1.0086  1.2335 -1.5351
 1077TIP3    H224723   6.716   4.334  15.015  1.0809 -0.2191 -1.9177
 1078TIP3   OH224724   6.312   1.256  12.523  0.2803 -0.3885 -0.9235
 1078TIP3    H124725   6.332   1.348  12.505 -1.3305 -0.2287 -2.0245
 1078TIP3    H224726   6.334   1.244  12.615  0.4511  1.1141 -0.7540
 1079TIP3   OH224727   4.680   6.139  16.126  0.0030 -0.2214  0.3876
 1079TIP3    H124728   4.614   6.186  16.073  0.3645 -0.5364 -0.3478
 1079TIP3    H224729   4.683   6.188  16.208  1.1295  1.6945 -0.7566
 1080TIP3   OH224730   1.498   4.034  15.118 -0.8711 -0.6189 -0.1451
 1080TIP3    H124731   1.498   4.127  15.141 -0.6264 -0.3551 -1.2106
 1080TIP3    H224732   1.406   4.014  15.099 -0.6112 -0.0557 -2.0619
 1081TIP3   OH224733   4.521   3.117  12.223  0.2588  0.0273 -0.1922
 1081TIP3    H124734   4.506   3.042  12.281  2.1525  0.1342  0.4890
 1081TIP3    H224735   4.536   3.191  12.283 -0.3876  0.6974 -0.8466
 1082TIP3   OH224736   3.763   6.355   0.460 -0.3002  0.3512  0.1663
 1082TIP3    H124737   3.847   6.336   0.418 -0.9309 -1.6723 -0.2225
 1082TIP3    H224738   3.704   6.375   0.387 -0.5732  0.1538  0.3344
 1083TIP3   OH224739   1.318   3.336  13.698  0.4720  0.0350  0.2487
 1083TIP3    H124740   1.246   3.399  13.691 -2.2190 -2.9385  0.2163
 1083TIP3    H224741   1.365   3.362  13.776 -1.8265  0.8798  1.3971
 1084TIP3   OH224742   6.522   4.800  15.308 -0.3237 -0.2450 -0.5170
 1084TIP3    H124743   6.562   4.725  15.264  1.0525  0.7143 -0.9176
 1084TIP3    H224744   6.593   4.838  15.360 -0.9422  0.9489 -0.5312
 1085TIP3   OH224745   3.927   1.838   1.798 -0.0364  0.0649  0.1360
 1085TIP3    H124746   3.833   1.849   1.784  0.1425 -0.6434 -1.8327
 1085TIP3    H224747   3.968   1.889   1.728  1.0424  0.5728  1.1369
 1086TIP3   OH224748   4.450   3.914  12.975  0.1539 -0.2964  0.0305
 1086TIP3    H124749   4.433   3.840  12.917  2.2300 -0.2952 -0.6397
 1086TIP3    H224750   4.416   3.886  13.060 -2.6478 -0.4140 -1.0704
 1087TIP3   OH224751   2.577   0.585  13.130 -0.3492  0.3958  0.5653
 1087TIP3    H124752   2.550   0.545  13.213 -0.7876  0.4787  0.4619
 1087TIP3    H224753   2.654   0.638  13.153 -0.6544  0.6605  0.9754
 1088TIP3   OH224754   6.190   1.025   1.997 -0.1233 -0.2280 -0.7211
 1088TIP3    H124755   6.129   1.029   2.071 -0.3190 -0.6484 -0.8583
 1088TIP3    H224756   6.271   0.992   2.035  0.0515  0.4378 -0.5160
 1089TIP3   OH224757   1.317   2.430   3.934  0.8323 -0.0387  0.5311
 1089TIP3    H124758   1.379   2.374   3.981  0.7973 -0.4376  0.1067
 1089TIP3    H224759   1.306   2.506   3.991  2.5483  0.5493  0.1198
 1090TIP3   OH224760   3.217   1.090  15.349 -0.6240  0.0997 -0.2185
 1090TIP3    H124761   3.278   1.017  15.335 -0.5091  0.2501 -0.5095
 1090TIP3    H224762   3.182   1.076  15.437 -0.4783 -0.2159 -0.2105
 1091TIP3   OH224763   3.178   4.007  15.112  0.3298 -0.2307 -0.4088
 1091TIP3    H124764   3.084   4.016  15.127  0.6197  3.0354 -0.0705
 1091TIP3    H224765   3.185   3.975  15.022 -1.1172 -1.7058 -0.0125
 1092TIP3   OH224766   2.076   2.244  14.771  0.2496 -0.2065  0.2927
 1092TIP3    H124767   2.053   2.317  14.829  0.0300 -0.5375  0.6252
 1092TIP3    H224768   2.042   2.167  14.816  1.0950 -0.5898  0.2852
 1093TIP3   OH224769   5.503   4.936  12.572 -0.3947  0.3099 -0.2215
 1093TIP3    H124770   5.579   4.895  12.615 -0.0112  0.8734 -0.3577
 1093TIP3    H224771   5.486   4.880  12.496  1.2815  1.4116 -1.4464
 1094TIP3   OH224772   3.631   3.210   3.555  0.2800 -0.0700  0.2125
 1094TIP3    H124773   3.619   3.186   3.463  0.6535 -1.5691  0.5424
 1094TIP3    H224774   3.665   3.131   3.596  1.1783  0.9316  1.4237
 1095TIP3   OH224775   3.273   2.078  12.413 -0.9738  0.0993  0.0471
 1095TIP3    H124776   3.289   2.082  12.508 -3.3170  0.5594  0.4476
 1095TIP3    H224777   3.303   1.991  12.388 -0.1110  0.0527  1.1716
 1096TIP3   OH224778   0.959   3.851   0.622  0.5111  0.7862 -0.0957
 1096TIP3    H124779   0.916   3.794   0.558  0.7536 -0.9372  1.2264
 1096TIP3    H224780   1.046   3.813   0.632 -0.0524  0.0902  2.4078
 1097TIP3   OH224781   2.707   2.521  11.395  0.2558 -0.2797  0.0171
 1097TIP3    H124782   2.700   2.440  11.445  1.9354 -0.0472  0.6554
 1097TIP3    H224783   2.778   2.570  11.437 -0.4093  1.3154 -0.6511
 1098TIP3   OH224784   3.478   5.730   5.151  0.0810 -0.3461  0.1690
 1098TIP3    H124785   3.572   5.751   5.146  0.3815 -1.1328  2.0374
 1098TIP3    H224786   3.435   5.802   5.105  1.4309  1.5755  1.8151
 1099TIP3   OH224787   1.358   1.405   0.775 -0.1551  0.8660 -0.4351
 1099TIP3    H124788   1.381   1.490   0.738 -0.7844  1.5467  0.7195
 1099TIP3    H224789   1.302   1.425   0.850 -1.3330 -0.6062 -0.8838
 1100TIP3   OH224790   2.004   6.443  15.728  0.2528 -0.2329 -0.3648
 1100TIP3    H124791   1.964   6.402  15.804 -0.0309  1.3086  0.3320
 1100TIP3    H224792   2.042   6.370  15.678  0.0308 -1.2915  0.9997
 1101TIP3   OH224793   3.340   0.358   6.784  0.2751  0.0937  0.1313
 1101TIP3    H124794   3.362   0.450   6.766  0.9897  0.0233  0.6370
 1101TIP3    H224795   3.346   0.315   6.698 -1.4418  0.7772 -0.3753
 1102TIP3   OH224796   3.847   3.190  11.656  0.0471  0.1971 -0.1693
 1102TIP3    H124797   3.912   3.121  11.655 -0.4480 -0.2794  0.1920
 1102TIP3    H224798   3.766   3.148  11.629 -0.6209  0.2493  1.6841
 1103TIP3   OH224799   0.862   3.596  11.102  0.1856  0.1248  0.7165
 1103TIP3    H124800   0.876   3.558  11.015 -0.9549  0.4610  0.3700
 1103TIP3    H224801   0.769   3.582  11.119  0.2566  0.6807  1.5886
 1104TIP3   OH224802   6.422   6.067   6.065 -0.1205  0.3564  0.1041
 1104TIP3    H124803   6.338   6.022   6.075 -0.2892  0.6523 -0.0032
 1104TIP3    H224804   6.425   6.130   6.136  0.2335  0.0009  0.4126
 1105TIP3   OH224805   3.805   4.179   0.510  0.5469  0.0703 -0.0139
 1105TIP3    H124806   3.895   4.211   0.511  0.0419  1.6099 -1.2952
 1105TIP3    H224807   3.754   4.250   0.547 -0.1920 -0.6888  0.4480
 1106TIP3   OH224808   0.089   4.424  15.725  0.0091 -0.4956  0.2136
 1106TIP3    H124809   0.033   4.490  15.766  0.2574 -1.0630  1.4720
 1106TIP3    H224810   0.176   4.440  15.762  0.3435 -0.6989 -0.4705
 1107TIP3   OH224811   1.056   1.463  11.322 -0.4615 -0.5406 -0.4082
 1107TIP3    H124812   1.091   1.416  11.246  0.3872 -0.1881 -0.2388
 1107TIP3    H224813   1.046   1.553  11.291  2.7151  0.2765  0.7619
 1108TIP3   OH224814   6.035   5.537  11.953  0.1242  0.1118  0.1481
 1108TIP3    H124815   6.033   5.442  11.943 -0.4670  0.1441 -0.0665
 1108TIP3    H224816   6.025   5.552  12.047  0.0905 -0.0348  0.1671
 1109TIP3   OH224817   4.610   0.325  12.900  0.4584  0.1142  0.2178
 1109TIP3    H124818   4.527   0.279  12.912  0.6650 -0.2061  0.4035
 1109TIP3    H224819   4.602   0.403  12.956 -0.1766  0.6868 -0.6423
 1110TIP3   OH224820   5.565   0.180   5.460  0.0811  0.1322 -0.4227
 1110TIP3    H124821   5.629   0.248   5.480  1.2230 -1.1215  0.3444
 1110TIP3    H224822   5.577   0.162   5.367 -0.5423  1.3051 -0.7234
 1111TIP3   OH224823   5.368   5.678  15.567 -0.9971  0.4703  0.1606
 1111TIP3    H124824   5.383   5.747  15.502  0.7206 -1.0972 -1.1788
 1111TIP3    H224825   5.273   5.667  15.569 -1.1457  1.2877 -1.3234
 1112TIP3   OH224826   3.029   1.556   6.215  0.3265 -0.4165  0.0558
 1112TIP3    H124827   3.000   1.647   6.227  0.3283 -0.4247  0.1260
 1112TIP3    H224828   3.114   1.563   6.172 -0.6589 -0.4462 -1.9256
 1113TIP3   OH224829   6.527   6.132   4.626 -0.0384  0.2581  0.1108
 1113TIP3    H124830   6.544   6.199   4.559  2.0095 -0.0196  0.3275
 1113TIP3    H224831   6.564   6.052   4.589  1.4462  0.1817  1.7165
 1114TIP3   OH224832   1.212   3.062  15.545  0.2025  0.1640  0.5052
 1114TIP3    H124833   1.306   3.083  15.541  0.2142  0.1339  0.6115
 1114TIP3    H224834   1.209   2.977  15.589  0.0056  1.0189  2.1778
 1115TIP3   OH224835   4.578   4.799  10.446  0.2238 -0.5900 -0.0802
 1115TIP3    H124836   4.588   4.706  10.465 -2.3615 -0.8966 -0.0950
 1115TIP3    H224837   4.561   4.839  10.532  1.2906 -0.1061 -0.0781
 1116TIP3   OH224838   4.027   0.116  14.575 -0.4963 -0.2246  0.4021
 1116TIP3    H124839   4.065   0.028  14.581 -0.3780 -0.1866  0.2404
 1116TIP3    H224840   4.014   0.143  14.665 -2.2079 -1.1252  0.4422
 1117TIP3   OH224841   1.480   3.564   4.937 -0.0522  0.6407  0.0021
 1117TIP3    H124842   1.426   3.624   4.988  0.6297  1.7067 -0.4948
 1117TIP3    H224843   1.427   3.543   4.860 -0.4049  0.3766  0.3142
 1118TIP3   OH224844   1.251   3.426   2.476  0.1614  0.3814 -1.0500
 1118TIP3    H124845   1.299   3.353   2.516 -0.0316  1.2439  0.8274
 1118TIP3    H224846   1.219   3.477   2.551  1.9090  3.4484 -2.2849
 1119TIP3   OH224847   2.989   4.025  10.634 -0.1674 -0.5419  0.1545
 1119TIP3    H124848   2.914   3.976  10.669 -2.2268  0.9738 -1.9490
 1119TIP3    H224849   2.959   4.117  10.633  1.1477 -0.0936 -2.0579
 1120TIP3   OH224850   3.293   6.334  10.805  0.0330  0.5394 -0.2186
 1120TIP3    H124851   3.239   6.406  10.837 -0.8594 -0.6792  1.0955
 1120TIP3    H224852   3.372   6.376  10.771 -2.0647  2.4484 -2.9969
 1121TIP3   OH224853   1.728   2.233   4.747  0.1423 -0.0873 -0.6358
 1121TIP3    H124854   1.679   2.296   4.693  0.1297 -1.0025 -1.6910
 1121TIP3    H224855   1.731   2.153   4.695  1.6469 -0.4502 -0.0171
 1122TIP3   OH224856   4.146   2.508  10.904  0.1368 -0.3268 -0.3989
 1122TIP3    H124857   4.083   2.579  10.892  1.4902  0.4757 -3.0061
 1122TIP3    H224858   4.105   2.432  10.862 -0.5359 -0.6687  0.8486
 1123TIP3   OH224859   5.311   5.061   4.095 -0.4767 -0.3204  0.2323
 1123TIP3    H124860   5.306   5.092   4.004  0.0279  0.7993  0.5749
 1123TIP3    H224861   5.221   5.036   4.116 -0.3339 -2.0628 -1.0641
 1124TIP3   OH224862   1.136   3.575  11.569  0.3404  0.1780 -0.4344
 1124TIP3    H124863   1.211   3.630  11.592  0.0827  0.1322  0.5532
 1124TIP3    H224864   1.161   3.487  11.594 -1.0034  0.5254  2.3516
 1125TIP3   OH224865   2.673   1.857   4.760 -0.1676 -0.2025  0.4717
 1125TIP3    H124866   2.639   1.852   4.849 -2.2740 -1.0816 -0.3706
 1125TIP3    H224867   2.603   1.824   4.704  0.1194  2.7300 -1.7729
 1126TIP3   OH224868   5.308   5.477  14.562 -0.2456 -0.4650  0.4805
 1126TIP3    H124869   5.223   5.520  14.551  0.5076  0.2818 -3.1530
 1126TIP3    H224870   5.357   5.534  14.620 -2.0907 -0.7449  2.3783
 1127TIP3   OH224871   6.496   0.769   2.792 -0.6505 -0.3919  1.0704
 1127TIP3    H124872   6.487   0.753   2.886 -1.1592  0.6768  1.2221
 1127TIP3    H224873   6.406   0.786   2.763 -0.5224 -0.9585  0.3483
 1128TIP3   OH224874   3.093   2.210   0.326  0.1456 -0.4056  0.1689
 1128TIP3    H124875   3.119   2.298   0.300  1.9280 -0.4408  1.7233
 1128TIP3    H224876   3.172   2.158   0.317 -0.6169 -1.6069  0.3265
 1129TIP3   OH224877   4.774   3.974   5.839 -0.0103 -0.1216 -0.0706
 1129TIP3    H124878   4.784   3.879   5.842  0.6251 -0.0572 -0.0710
 1129TIP3    H224879   4.862   4.008   5.851  0.0341  0.4456 -1.8880
 1130TIP3   OH224880   0.221   2.476   1.795 -0.8110  0.6740 -0.2804
 1130TIP3    H124881   0.145   2.451   1.849 -0.8339  1.0026 -0.1582
 1130TIP3    H224882   0.283   2.513   1.858 -0.3586 -0.0219 -0.3128
 1131TIP3   OH224883   6.149   2.545  16.360  0.6672 -0.2312 -0.2598
 1131TIP3    H124884   6.095   2.585  16.292  0.7884  2.5061  1.1740
 1131TIP3    H224885   6.085   2.505  16.420  0.4430 -0.6037 -0.7469
 1132TIP3   OH224886   1.811   2.468  16.934 -0.0724  0.6122 -0.2208
 1132TIP3    H124887   1.885   2.505  16.982  0.2126  0.8167 -0.8210
 1132TIP3    H224888   1.830   2.486  16.842 -0.8588  0.6499 -0.3803
 1133TIP3   OH224889   0.640   4.437   0.094  0.5571 -0.2444 -0.6425
 1133TIP3    H124890   0.720   4.386   0.103  1.6460  1.8123  2.0762
 1133TIP3    H224891   0.670   4.526   0.073 -0.9621  0.6350  0.7346
 1134TIP3   OH224892   1.204   5.910  15.438  0.4698 -0.1065  0.3116
 1134TIP3    H124893   1.244   5.973  15.498 -1.2718 -0.7510  2.1964
 1134TIP3    H224894   1.139   5.864  15.491 -1.8435 -0.0033 -2.3386
 1135TIP3   OH224895   1.941   5.833   0.113  0.4873  0.0416  0.0193
 1135TIP3    H124896   2.021   5.807   0.068  0.9485 -1.2870  1.5810
 1135TIP3    H224897   1.881   5.859   0.042  0.6578 -3.4414 -1.5180
 1136TIP3   OH224898   1.473   6.627   3.748 -0.2130 -0.7335  0.2174
 1136TIP3    H124899   1.568   6.637   3.739 -0.6342  0.8718 -3.2642
 1136TIP3    H224900   1.443   6.604   3.660 -3.1256 -0.6603  1.1490
 1137TIP3   OH224901   1.205   5.776   2.568  0.4985 -0.7656 -0.3894
 1137TIP3    H124902   1.272   5.795   2.634 -1.3074 -0.5198  1.4122
 1137TIP3    H224903   1.161   5.860   2.553 -1.3646 -1.5171  0.6863
 1138TIP3   OH224904   5.181   5.959   2.412 -0.1001  0.6198 -0.1507
 1138TIP3    H124905   5.163   6.051   2.432 -1.0612  0.8308 -1.9633
 1138TIP3    H224906   5.236   5.930   2.485  0.6500  2.7632  0.1786
 1139TIP3   OH224907   1.388   5.661   5.035  0.0573  0.5999 -0.9755
 1139TIP3    H124908   1.294   5.650   5.050  0.1919  1.0867  0.3308
 1139TIP3    H224909   1.399   5.754   5.017  0.3026  0.5785 -0.9412
 1140TIP3   OH224910   3.483   3.011   5.869  0.2097 -0.7164  0.3060
 1140TIP3    H124911   3.557   2.989   5.926  1.0514  0.6302 -0.2557
 1140TIP3    H224912   3.481   3.107   5.868  0.9563 -0.6633 -2.8573
 1141TIP3   OH224913   1.584   1.227   4.411 -0.0977 -0.3275 -0.2102
 1141TIP3    H124914   1.677   1.224   4.390 -0.1480  0.7838 -0.6321
 1141TIP3    H224915   1.566   1.143   4.452  1.3036 -0.1750  0.7557
 1142TIP3   OH224916   4.079   1.693  13.543 -0.4587 -0.3366  0.6343
 1142TIP3    H124917   4.094   1.678  13.637 -1.6781 -0.1717  0.8686
 1142TIP3    H224918   3.994   1.653  13.527 -0.6196  0.3523 -0.2344
 1143TIP3   OH224919   0.304   0.860  15.734  0.0141 -0.2550  0.2064
 1143TIP3    H124920   0.347   0.778  15.758  0.3718  0.3942  1.9119
 1143TIP3    H224921   0.353   0.927  15.782 -1.3518  0.7643  0.2181
 1144TIP3   OH224922   2.192   5.297   5.091 -0.6603  0.1196  0.0925
 1144TIP3    H124923   2.264   5.359   5.105  0.6738 -1.6690  1.5510
 1144TIP3    H224924   2.122   5.349   5.053  1.9800  1.5937 -2.9795
 1145TIP3   OH224925   3.729   6.472  17.136 -0.2912  0.3168  0.0716
 1145TIP3    H124926   3.650   6.507  17.177 -0.9347 -0.8950 -0.1290
 1145TIP3    H224927   3.801   6.511  17.185 -1.0493 -1.2106  2.4572
 1146TIP3   OH224928   4.323   6.197   3.081 -0.0398 -0.6322 -0.3695
 1146TIP3    H124929   4.305   6.113   3.124 -0.0616 -0.8299 -0.7667
 1146TIP3    H224930   4.409   6.222   3.114  0.1646 -1.0292 -0.5977
 1147TIP3   OH224931   6.185   3.760   5.094 -0.2208  0.7925 -0.4058
 1147TIP3    H124932   6.121   3.831   5.101 -0.8566  0.3652 -1.8318
 1147TIP3    H224933   6.237   3.782   5.016 -0.1108 -0.0697 -0.5750
 1148TIP3   OH224934   2.951   0.534  12.719  0.5218  0.1773  0.1428
 1148TIP3    H124935   2.857   0.545  12.731  0.6360 -0.2747  1.6052
 1148TIP3    H224936   2.990   0.591  12.786  1.2922  0.2805 -0.3770
 1149TIP3   OH224937   3.453   6.747   3.613 -0.1126 -0.2879 -0.1678
 1149TIP3    H124938   3.366   6.728   3.647  0.8443 -1.1588  1.8813
 1149TIP3    H224939   3.475   6.833   3.651  0.2458 -0.4348 -0.0407
 1150TIP3   OH224940   4.378   4.764  13.798 -0.2030 -0.1270  0.0048
 1150TIP3    H124941   4.414   4.689  13.751  1.6756  1.6905 -1.5598
 1150TIP3    H224942   4.454   4.816  13.822 -1.4308  0.8997  1.7321
 1151TIP3   OH224943   6.090   4.183   3.036 -0.2322  0.8258 -0.3705
 1151TIP3    H124944   6.139   4.178   3.118  1.2512 -0.3006 -1.3133
 1151TIP3    H224945   6.106   4.099   2.993 -2.3660  0.7399 -1.0612
 1152TIP3   OH224946   1.518   6.503  10.603  0.0321 -0.5643  0.5971
 1152TIP3    H124947   1.510   6.408  10.595 -0.5784 -0.2459 -3.6437
 1152TIP3    H224948   1.434   6.530  10.641 -1.8463 -1.3325 -2.7879
 1153TIP3   OH224949   0.137   6.405  16.661 -0.5465  0.1731  0.1539
 1153TIP3    H124950   0.096   6.346  16.724 -0.1213 -0.1418  0.1349
 1153TIP3    H224951   0.074   6.411  16.589 -0.2501 -0.8602 -0.1944
 1154TIP3   OH224952   2.409   3.770  14.625  0.1206  0.4844  0.0612
 1154TIP3    H124953   2.353   3.833  14.579  0.0378  0.8862  0.7054
 1154TIP3    H224954   2.491   3.770  14.574  0.5068  1.9059  0.6476
 1155TIP3   OH224955   2.884   1.566  13.129 -0.3624 -0.0832  0.1234
 1155TIP3    H124956   2.828   1.531  13.199 -2.2947 -0.1927 -1.4269
 1155TIP3    H224957   2.864   1.511  13.053  1.7432  0.0034 -0.5237
 1156TIP3   OH224958   1.130   1.351   3.378 -0.1446  0.0704 -0.0822
 1156TIP3    H124959   1.091   1.437   3.362 -0.0195  0.3224  0.9782
 1156TIP3    H224960   1.098   1.326   3.464 -2.2376 -2.0612 -1.4071
 1157TIP3   OH224961   5.202   4.210   2.535 -1.2042  0.4672  0.2659
 1157TIP3    H124962   5.266   4.170   2.475 -0.3714  0.9029  0.8604
 1157TIP3    H224963   5.123   4.222   2.481 -0.8342 -0.1975 -0.4354
 1158TIP3   OH224964   2.764   2.842  12.241  0.2869  0.4591  0.0218
 1158TIP3    H124965   2.781   2.775  12.175 -0.7291  0.2118  0.0002
 1158TIP3    H224966   2.830   2.909  12.225  0.4832  0.0705 -0.8022
 1159TIP3   OH224967   6.315   4.923  13.512 -0.0008 -0.6162  0.4394
 1159TIP3    H124968   6.270   4.864  13.451  0.3481  0.3067 -0.7400
 1159TIP3    H224969   6.247   4.982  13.543  0.2074  0.2307 -0.6786
 1160TIP3   OH224970   0.894   2.045  16.884  0.1346 -0.3539 -0.0032
 1160TIP3    H124971   0.932   2.106  16.821 -1.1642 -2.7277 -3.2778
 1160TIP3    H224972   0.845   2.099  16.945  1.4944  2.0462 -0.9929
 1161TIP3   OH224973   3.884   6.344  12.623  0.2412  0.3732 -0.3989
 1161TIP3    H124974   3.809   6.380  12.672  0.7261 -0.8413  1.2693
 1161TIP3    H224975   3.947   6.319  12.690  1.4355 -0.2406 -1.7229
 1162TIP3   OH224976   5.932   6.072  15.919 -0.1532 -0.3861 -0.2604
 1162TIP3    H124977   5.905   6.047  16.007 -0.8430 -0.2946 -0.4463
 1162TIP3    H224978   5.884   6.014  15.861 -0.9249  0.6268 -0.6444
 1163TIP3   OH224979   3.642   5.105  11.562 -0.0523  0.3266  0.1144
 1163TIP3    H124980   3.653   5.020  11.520  1.9985  0.7052 -0.1681
 1163TIP3    H224981   3.672   5.091  11.652 -1.6113  0.2557  0.6280
 1164TIP3   OH224982   1.385   4.358  11.803 -0.2242 -0.4500  0.3020
 1164TIP3    H124983   1.467   4.375  11.757 -0.1221  0.9261  0.9406
 1164TIP3    H224984   1.321   4.345  11.733  0.1900  0.2765 -0.2321
 1165TIP3   OH224985   0.170   5.200   0.523  0.4444 -0.1298  0.3377
 1165TIP3    H124986   0.174   5.238   0.610 -1.7642  0.9430  0.0114
 1165TIP3    H224987   0.229   5.254   0.470 -1.6460  2.0874  0.1807
 1166TIP3   OH224988   4.138   3.630  14.642 -0.1524 -0.0685  0.1223
 1166TIP3    H124989   4.099   3.627  14.729  1.6909  0.6454  1.0178
 1166TIP3    H224990   4.176   3.543  14.630  2.2531  0.7542  1.3629
 1167TIP3   OH224991   6.097   4.573  16.020  0.1503 -0.3256  0.4882
 1167TIP3    H124992   6.190   4.569  16.041  0.0088 -1.1131  0.9785
 1167TIP3    H224993   6.086   4.516  15.944 -0.3522 -2.3394  2.0163
 1168TIP3   OH224994   0.390   4.818   0.242 -0.0004  0.4830 -0.4600
 1168TIP3    H124995   0.387   4.726   0.268  0.7883  0.7066  0.4993
 1168TIP3    H224996   0.381   4.866   0.325 -0.2547  1.2597 -0.9366
 1169TIP3   OH224997   3.600   3.372   0.593  0.8623 -0.0637  0.4381
 1169TIP3    H124998   3.541   3.422   0.537 -0.9530 -1.0180  1.4774
 1169TIP3    H224999   3.658   3.327   0.532  0.0787  0.3374 -0.6138
 1170TIP3   OH225000   5.094   3.174   4.290 -0.3022  0.3992 -0.0458
 1170TIP3    H125001   5.030   3.129   4.236  1.1968 -0.7350 -0.9131
 1170TIP3    H225002   5.114   3.112   4.361  0.1127  0.5740 -0.0039
 1171TIP3   OH225003   4.703   4.362   2.188  0.1647  0.3728  0.0616
 1171TIP3    H125004   4.673   4.336   2.274  1.3809 -0.3775  0.2660
 1171TIP3    H225005   4.747   4.285   2.153 -0.3460  0.6581 -1.2438
 1172TIP3   OH225006   2.840   1.540  15.557 -0.0051 -0.0869 -0.1290
 1172TIP3    H125007   2.786   1.473  15.600 -0.2807 -0.5622 -1.2013
 1172TIP3    H225008   2.847   1.510  15.466  0.2397  1.1183 -0.5107
 1173TIP3   OH225009   0.725   4.506   4.679  0.3229  0.5529 -0.0843
 1173TIP3    H125010   0.795   4.514   4.615  0.6675 -2.7299 -0.2261
 1173TIP3    H225011   0.645   4.523   4.630  0.6698 -0.7976 -1.1435
 1174TIP3   OH225012   3.717   1.308   3.288 -0.2237 -0.0708  0.2526
 1174TIP3    H125013   3.750   1.358   3.363  1.1722  1.0449 -1.0779
 1174TIP3    H225014   3.789   1.308   3.226 -1.8687  0.2541 -1.6921
 1175TIP3   OH225015   2.789   1.051  13.559  0.5638  0.2882 -0.4333
 1175TIP3    H125016   2.798   0.957  13.576  0.9669  0.3673 -0.1949
 1175TIP3    H225017   2.859   1.071  13.497  0.3135  0.3790 -0.6851
 1176TIP3   OH225018   4.177   1.468  11.438  0.0083 -0.2188  0.2519
 1176TIP3    H125019   4.266   1.433  11.440  0.7338  1.6019  0.3232
 1176TIP3    H225020   4.181   1.549  11.489 -1.8352 -0.4362  0.7842
 1177TIP3   OH225021   4.514   6.563   5.813  0.9845 -0.3195 -0.1040
 1177TIP3    H125022   4.562   6.488   5.849  1.2469  0.2508  0.7561
 1177TIP3    H225023   4.423   6.545   5.835  1.1677  0.1447  1.1089
 1178TIP3   OH225024   4.346   5.550   1.794  0.1876  0.5340 -0.2146
 1178TIP3    H125025   4.401   5.628   1.788  1.1515 -0.1735 -0.7352
 1178TIP3    H225026   4.332   5.537   1.888  2.0157 -0.0308 -0.0059
 1179TIP3   OH225027   3.745   5.055   3.202  0.1752  0.4132  0.5068
 1179TIP3    H125028   3.664   5.100   3.179  0.5588  0.5875 -0.5002
 1179TIP3    H225029   3.732   5.029   3.294 -1.8250 -1.3140 -0.2139
 1180TIP3   OH225030   4.792   6.802   2.268  0.8813  0.1765  0.1211
 1180TIP3    H125031   4.769   6.881   2.218  1.9666  1.1647  1.1392
 1180TIP3    H225032   4.793   6.832   2.359  4.5545 -0.1903  0.2513
 1181TIP3   OH225033   5.213   3.690   0.243 -0.1111 -0.7956  0.7242
 1181TIP3    H125034   5.155   3.619   0.270 -0.8688  0.0464  1.3211
 1181TIP3    H225035   5.180   3.767   0.288  1.6862 -0.3608  1.3538
 1182TIP3   OH225036   5.809   1.970   1.530  0.3102  0.4865  0.1304
 1182TIP3    H125037   5.816   1.911   1.605 -0.4592  1.0391  0.6461
 1182TIP3    H225038   5.783   2.054   1.568 -0.0342  0.7854 -0.7504
 1183TIP3   OH225039   4.123   6.698   6.703 -0.3803  0.0053 -0.5404
 1183TIP3    H125040   4.067   6.704   6.781 -1.1273  0.8548 -1.1246
 1183TIP3    H225041   4.063   6.670   6.633  0.6473 -2.5792 -0.4414
 1184TIP3   OH225042   2.694   4.259  11.382  0.3040 -1.0271 -0.3191
 1184TIP3    H125043   2.606   4.222  11.390  0.8995 -2.2505  0.6674
 1184TIP3    H225044   2.723   4.233  11.294 -0.3529 -0.5296 -0.6879
 1185TIP3   OH225045   0.463   5.977   4.676 -0.2393  0.0163  0.2403
 1185TIP3    H125046   0.438   5.886   4.662 -1.3030  0.2401  0.6265
 1185TIP3    H225047   0.555   5.981   4.650 -0.1979 -1.1549  0.1769
 1186TIP3   OH225048   3.030   3.530   4.777  0.2425  0.1973 -0.0498
 1186TIP3    H125049   3.095   3.562   4.840  0.1773  1.7758 -0.7498
 1186TIP3    H225050   3.053   3.438   4.763  1.3106  0.2960  0.9584
 1187TIP3   OH225051   1.361   1.720   1.376  0.1011 -0.9861  0.1989
 1187TIP3    H125052   1.270   1.751   1.377 -0.1620 -1.7550  0.9024
 1187TIP3    H225053   1.408   1.781   1.433  0.3796  0.4169 -1.4851
 1188TIP3   OH225054   4.804   1.711  17.113  0.0983 -0.4508 -0.2888
 1188TIP3    H125055   4.822   1.741  17.202  0.6225 -1.1527 -0.1495
 1188TIP3    H225056   4.790   1.792  17.063  0.1889 -0.0369  0.3455
 1189TIP3   OH225057   6.107   0.945  13.030  0.2791 -0.4122  0.3266
 1189TIP3    H125058   6.063   0.861  13.019  0.9661 -0.8568  0.9623
 1189TIP3    H225059   6.036   1.009  13.024 -0.6647 -1.1965  2.5957
 1190TIP3   OH225060   3.200   1.733  12.094  0.2488 -0.5536 -0.7356
 1190TIP3    H125061   3.272   1.758  12.035  0.1131 -2.4604 -1.7368
 1190TIP3    H225062   3.123   1.731  12.038 -0.4946  0.7976  0.1993
 1191TIP3   OH225063   2.998   3.221   4.882  1.0539 -0.1352 -0.1858
 1191TIP3    H125064   3.073   3.194   4.935  0.6752  0.0104  0.4331
 1191TIP3    H225065   2.994   3.156   4.811  1.6180 -0.2805 -0.0882
 1192TIP3   OH225066   2.386   2.572  14.591 -0.3785 -0.1489 -0.4679
 1192TIP3    H125067   2.378   2.535  14.504 -0.0869 -0.7608 -0.2376
 1192TIP3    H225068   2.399   2.497  14.649  1.2572  0.3670 -0.1235
 1193TIP3   OH225069   2.000   6.002   2.637  0.0218  0.2475 -0.1449
 1193TIP3    H125070   1.996   5.960   2.723 -0.6325 -3.5677 -1.9184
 1193TIP3    H225071   1.910   6.030   2.620 -0.3355 -1.0112 -0.4535
 1194TIP3   OH225072   5.571   4.272  11.027  0.0443 -0.5740 -0.5046
 1194TIP3    H125073   5.625   4.238  11.098  0.2854 -2.1978 -1.4475
 1194TIP3    H225074   5.502   4.206  11.015 -0.1572 -0.1739 -1.5906
 1195TIP3   OH225075   2.280   6.470   2.331  0.2690  0.3429  0.6264
 1195TIP3    H125076   2.281   6.565   2.338  0.2498  0.4136 -0.1997
 1195TIP3    H225077   2.188   6.447   2.316  0.6684  0.4864 -2.4285
 1196TIP3   OH225078   4.086   2.329   0.189  0.4803  0.0170 -0.7615
 1196TIP3    H125079   4.009   2.304   0.137  0.6199  0.6257 -1.2692
 1196TIP3    H225080   4.097   2.257   0.252 -2.9058  1.7175  1.9801
 1197TIP3   OH225081   0.868   1.969   1.843 -0.0340 -0.2587  0.5600
 1197TIP3    H125082   0.887   1.994   1.934  1.2318  0.6873  0.0460
 1197TIP3    H225083   0.925   1.894   1.827  2.7678  2.0294 -0.6954
 1198TIP3   OH225084   2.076   1.646   0.962  0.1728  0.3513  0.4066
 1198TIP3    H125085   2.079   1.628   1.056  0.0250 -0.7785  0.1976
 1198TIP3    H225086   2.025   1.574   0.925 -1.4167  1.7906 -0.3015
 1199TIP3   OH225087   0.442   6.324  15.391 -0.5354  0.2836 -0.2648
 1199TIP3    H125088   0.474   6.282  15.470 -0.6760  1.3080  0.3454
 1199TIP3    H225089   0.474   6.268  15.320 -1.8570 -1.5949  0.5659
 1200TIP3   OH225090   4.839   5.036  16.969  0.1935 -0.4093  0.1558
 1200TIP3    H125091   4.876   4.973  17.031  1.6393  1.5458  1.3550
 1200TIP3    H225092   4.844   5.120  17.015 -2.4470  0.4610 -1.0872
 1201TIP3   OH225093   1.059   4.127   5.518 -0.0360  1.1277  0.3047
 1201TIP3    H125094   1.115   4.118   5.441  0.6407 -1.3684  1.0380
 1201TIP3    H225095   0.970   4.131   5.483  0.0953 -1.9877 -0.5967
 1202TIP3   OH225096   5.641   1.934   0.237  0.4762  0.6011  0.1489
 1202TIP3    H125097   5.697   1.868   0.197  1.1691  1.5267 -0.4448
 1202TIP3    H225098   5.684   1.957   0.319  1.6929  2.2410 -0.9073
 1203TIP3   OH225099   1.224   2.983   2.214 -0.0621 -0.2005 -0.4948
 1203TIP3    H125100   1.207   3.026   2.298  0.8881  2.2682 -1.5004
 1203TIP3    H225101   1.141   2.940   2.192  0.1382 -2.1857  2.4060
 1204TIP3   OH225102   1.471   1.029  13.003 -0.5136 -0.4001 -0.0090
 1204TIP3    H125103   1.427   1.114  13.010 -0.4388 -0.3494 -0.1632
 1204TIP3    H225104   1.486   1.003  13.094  1.5491  0.8225  0.0154
 1205TIP3   OH225105   4.608   2.603   3.690 -0.4994  0.1252 -0.0406
 1205TIP3    H125106   4.554   2.573   3.763 -0.1425 -0.2252  0.0807
 1205TIP3    H225107   4.577   2.552   3.615 -0.1165 -0.3158  0.0980
 1206TIP3   OH225108   5.014   1.416   5.815  0.0396 -0.0485 -0.4535
 1206TIP3    H125109   4.939   1.357   5.806 -1.1876  1.5030 -0.5330
 1206TIP3    H225110   5.089   1.357   5.827 -1.2645 -1.6005  0.2700
 1207TIP3   OH225111   4.882   3.680  12.916 -0.1449  0.3054  0.0604
 1207TIP3    H125112   4.865   3.595  12.957 -0.7502  0.8598  0.9731
 1207TIP3    H225113   4.919   3.658  12.831 -1.4393 -0.8836 -0.2170
 1208TIP3   OH225114   3.989   5.589  12.661  0.6098 -0.7843 -1.0069
 1208TIP3    H125115   4.008   5.527  12.590  1.9165 -2.2704  0.6088
 1208TIP3    H225116   4.032   5.551  12.738  0.3312  1.4842  0.2920
 1209TIP3   OH225117   5.879   6.341  11.267 -0.3235 -0.0901 -0.0021
 1209TIP3    H125118   5.933   6.393  11.326  0.5056 -1.1518  0.1910
 1209TIP3    H225119   5.790   6.348  11.303 -0.1967  1.0796  0.0829
 1210TIP3   OH225120   4.464   6.803  10.657 -0.2569  0.0916  0.0414
 1210TIP3    H125121   4.514   6.731  10.620 -1.0946  0.1005 -1.1288
 1210TIP3    H225122   4.421   6.764  10.734 -1.4104 -0.9218 -1.0823
 1211TIP3   OH225123   2.342   1.064   4.462 -0.3779  0.6268  0.1069
 1211TIP3    H125124   2.317   0.972   4.451  0.5162  0.4561 -0.5980
 1211TIP3    H225125   2.329   1.103   4.376  0.3826  0.8667  0.0920
 1212TIP3   OH225126   4.552   0.815   5.780  0.2598  0.1084  0.2578
 1212TIP3    H125127   4.594   0.900   5.792  1.2084 -0.0726 -1.5852
 1212TIP3    H225128   4.470   0.821   5.829  0.3208  2.0788  0.1443
 1213TIP3   OH225129   0.377   4.576  17.044 -0.3020 -0.8536 -0.3399
 1213TIP3    H125130   0.322   4.652  17.026 -0.5650 -0.8583  0.4069
 1213TIP3    H225131   0.351   4.511  16.980  0.0318 -0.2579 -1.0796
 1214TIP3   OH225132   3.483   4.193   5.699 -0.3996 -0.2514  0.2250
 1214TIP3    H125133   3.565   4.235   5.674 -2.0065  1.3523 -2.6351
 1214TIP3    H225134   3.453   4.243   5.775  0.0573  0.7715 -0.2569
 1215TIP3   OH225135   5.385   0.844   2.640  0.0190  0.3313 -0.5312
 1215TIP3    H125136   5.475   0.811   2.634  0.0734  0.2582  0.4824
 1215TIP3    H225137   5.364   0.838   2.734 -0.5564  1.6121 -0.5697
 1216TIP3   OH225138   6.207   2.571  11.555 -0.1051 -0.4916 -0.4382
 1216TIP3    H125139   6.221   2.570  11.460  0.2585 -0.1089 -0.3907
 1216TIP3    H225140   6.295   2.575  11.592 -0.3095  1.4637 -0.1306
 1217TIP3   OH225141   6.415   4.725  11.612  0.3156  0.0414  0.2622
 1217TIP3    H125142   6.394   4.723  11.706 -1.6006 -0.0548 -0.1540
 1217TIP3    H225143   6.420   4.633  11.587 -0.3419  0.0655  0.0286
 1218TIP3   OH225144   5.887   6.186   1.244 -0.9067  0.2734 -0.0678
 1218TIP3    H125145   5.849   6.118   1.189  0.1976 -0.5359  0.1522
 1218TIP3    H225146   5.927   6.139   1.317  1.2551  1.0211 -0.7288
 1219TIP3   OH225147   1.445   6.104   0.304  0.2039  0.5050  0.3576
 1219TIP3    H125148   1.419   6.170   0.367  0.5671  0.0261  1.0212
 1219TIP3    H225149   1.417   6.021   0.343  0.6874  0.1827  0.0280
 1220TIP3   OH225150   0.723   6.353  13.883 -0.1119  0.0408  0.5170
 1220TIP3    H125151   0.787   6.349  13.812  0.2151  1.1261  0.7293
 1220TIP3    H225152   0.776   6.366  13.962 -0.4757 -1.1112  0.9503
 1221TIP3   OH225153   4.980   0.425  15.803 -0.4782 -0.2522 -0.5936
 1221TIP3    H125154   4.942   0.514  15.804 -0.1207 -0.0945  0.6853
 1221TIP3    H225155   4.939   0.382  15.878  2.3452  0.1437  1.2718
 1222TIP3   OH225156   3.002   3.775  16.194  0.2707  0.5246  0.2154
 1222TIP3    H125157   3.048   3.857  16.173 -0.4495  0.5462 -1.3171
 1222TIP3    H225158   3.059   3.706  16.161  0.1791  0.4624  0.1890
 1223TIP3   OH225159   5.231   0.660  11.855  0.0899  0.0816 -0.1818
 1223TIP3    H125160   5.216   0.690  11.765 -1.8340  0.2660  0.1894
 1223TIP3    H225161   5.252   0.567  11.846 -0.4740  0.0096 -0.7887
 1224TIP3   OH225162   5.635   0.748  14.252 -0.5758  0.4588  0.7362
 1224TIP3    H125163   5.696   0.793  14.192 -1.2712  0.4017 -0.0300
 1224TIP3    H225164   5.548   0.765  14.214 -0.9692 -0.1547  1.3578
 1225TIP3   OH225165   5.649   1.023  11.993  0.2388 -0.5892  0.4069
 1225TIP3    H125166   5.743   1.018  12.014  0.4928  0.0428 -0.5203
 1225TIP3    H225167   5.621   1.106  12.031 -0.0859 -1.0444  1.1769
 1226TIP3   OH225168   5.919   5.116  12.950 -0.5558 -0.5309  0.7331
 1226TIP3    H125169   5.828   5.125  12.977 -1.6023 -0.6041 -2.5546
 1226TIP3    H225170   5.920   5.037  12.894  2.1041 -2.2358  3.0424
 1227TIP3   OH225171   3.571   2.720  12.875  0.0076 -0.0964  0.2510
 1227TIP3    H125172   3.494   2.738  12.929  1.9661 -2.1826  3.9501
 1227TIP3    H225173   3.544   2.646  12.819 -0.7579 -0.6982  1.3891
 1228TIP3   OH225174   4.718   4.736   4.054  0.0245  0.2343 -0.2040
 1228TIP3    H125175   4.787   4.678   4.023  1.7119  1.4710  1.1783
 1228TIP3    H225176   4.763   4.806   4.100 -2.1010  1.5658 -0.0558
 1229TIP3   OH225177   2.448   4.880  12.631 -0.1402 -0.4528 -0.4110
 1229TIP3    H125178   2.512   4.889  12.702 -0.5937  0.7194 -0.1314
 1229TIP3    H225179   2.475   4.801  12.584 -0.7156 -2.0922  1.9426
 1230TIP3   OH225180   1.232   0.197   6.607 -0.3318  0.2173 -0.0413
 1230TIP3    H125181   1.292   0.152   6.667 -0.1116  0.2993 -0.2002
 1230TIP3    H225182   1.268   0.285   6.598  0.7155 -0.3505 -1.7764
 1231TIP3   OH225183   0.915   5.577  11.147 -0.0743  0.2174  0.2357
 1231TIP3    H125184   0.923   5.641  11.077  0.8723  0.2581  0.3824
 1231TIP3    H225185   0.957   5.498  11.113  1.3074  0.5450  1.1364
 1232TIP3   OH225186   2.472   6.661  16.666 -0.1745 -0.0643 -0.2052
 1232TIP3    H125187   2.381   6.679  16.688 -0.6196 -0.2383 -1.8451
 1232TIP3    H225188   2.488   6.713  16.587  1.0862 -0.2054 -0.0600
 1233TIP3   OH225189   2.673   0.522   3.503  0.1419  0.0709 -0.2438
 1233TIP3    H125190   2.764   0.492   3.513  0.2813  0.4143 -0.4572
 1233TIP3    H225191   2.645   0.486   3.420 -0.1966 -0.7316  0.2184
 1234TIP3   OH225192   2.253   3.105   2.567  0.0377  0.8763  0.6216
 1234TIP3    H125193   2.204   3.159   2.629  0.0277  0.3872  1.0464
 1234TIP3    H225194   2.341   3.099   2.605  0.1390  0.8975  0.3902
 1235TIP3   OH225195   0.299   5.742   2.207 -0.0820  0.5777 -0.3915
 1235TIP3    H125196   0.351   5.665   2.231  2.5504  1.6923 -2.2580
 1235TIP3    H225197   0.247   5.713   2.132  0.6051  0.4608 -0.8349
 1236TIP3   OH225198   6.217   2.760  15.245  0.3569  0.2391  0.3700
 1236TIP3    H125199   6.201   2.846  15.283 -0.1484  0.2861  0.0502
 1236TIP3    H225200   6.183   2.699  15.310 -0.4443  0.3174  0.0222
 1237TIP3   OH225201   4.900   6.748   2.614  0.0217  0.3371  0.8191
 1237TIP3    H125202   4.805   6.748   2.622 -0.0349  0.9313  0.1797
 1237TIP3    H225203   4.930   6.810   2.681 -0.1933  2.0049 -0.6011
 1238TIP3   OH225204   3.723   4.325   5.739  0.0048 -0.0733 -0.3862
 1238TIP3    H125205   3.770   4.332   5.822 -1.2057 -1.8012  0.4836
 1238TIP3    H225206   3.759   4.394   5.684 -0.2597  2.1185  2.1268
 1239TIP3   OH225207   1.187   5.179  13.747  0.6958 -0.0090 -0.0008
 1239TIP3    H125208   1.111   5.129  13.775  1.4909 -0.9764  0.4736
 1239TIP3    H225209   1.229   5.207  13.828 -0.8385  3.1878 -0.2396
 1240TIP3   OH225210   5.017   2.572  11.955 -0.7348 -0.1481 -1.0632
 1240TIP3    H125211   4.953   2.612  11.896  0.2638  3.1417 -0.0586
 1240TIP3    H225212   5.014   2.627  12.033  2.9972 -0.1764 -0.8197
 1241TIP3   OH225213   5.698   2.524  12.197 -0.1570 -0.8258  0.0742
 1241TIP3    H125214   5.673   2.501  12.286 -1.5109 -0.8171 -0.2999
 1241TIP3    H225215   5.639   2.594  12.172  1.2385  0.2399 -0.2926
 1242TIP3   OH225216   1.115   3.326   1.900 -0.3873 -0.8071 -0.1997
 1242TIP3    H125217   1.181   3.323   1.830  0.8710 -0.3698  0.9448
 1242TIP3    H225218   1.070   3.409   1.887 -0.5916 -1.0216 -0.8808
 1243TIP3   OH225219   3.677   1.113  10.955  0.3512 -0.0152 -0.1262
 1243TIP3    H125220   3.730   1.084  11.029  0.3657  2.1759  0.7743
 1243TIP3    H225221   3.612   1.172  10.994  1.0284  2.0388 -1.9620
 1244TIP3   OH225222   0.201   6.216   1.851  0.4479 -0.7240 -0.2449
 1244TIP3    H125223   0.152   6.238   1.931  0.3946 -2.1728  0.1504
 1244TIP3    H225224   0.266   6.152   1.881  0.9473 -0.6752 -1.2222
 1245TIP3   OH225225   0.479   4.496   4.516 -0.5462 -0.2113  0.2496
 1245TIP3    H125226   0.527   4.426   4.470 -1.6567 -0.6852 -0.1909
 1245TIP3    H225227   0.436   4.545   4.446 -0.5022  0.3816  0.6330
 1246TIP3   OH225228   6.290   0.872  14.373  0.3078 -0.7443 -0.0035
 1246TIP3    H125229   6.258   0.962  14.361  0.6384 -0.6867 -0.5009
 1246TIP3    H225230   6.379   0.883  14.404  1.0803 -0.8794 -2.0909
 1247TIP3   OH225231   3.113   1.885  16.093 -0.1994  0.0409  0.5735
 1247TIP3    H125232   3.098   1.902  16.186  1.8135 -1.1021  1.1360
 1247TIP3    H225233   3.123   1.790  16.088 -0.8282  0.0418 -0.9031
 1248TIP3   OH225234   3.882   3.100  13.956 -0.4420 -0.2405 -0.5658
 1248TIP3    H125235   3.870   3.017  13.910 -0.1005 -0.7946  0.3374
 1248TIP3    H225236   3.975   3.121  13.944  0.1034 -1.3800  1.5164
 1249TIP3   OH225237   0.588   0.062   1.950  0.1029 -0.1129  0.4629
 1249TIP3    H125238   0.657  -0.004   1.950  1.0546  0.8162  2.7826
 1249TIP3    H225239   0.611   0.120   2.023 -0.8015  2.6750 -1.4152
 1250TIP3   OH225240   5.303   5.541   1.070  0.1064 -0.2023  0.1049
 1250TIP3    H125241   5.272   5.525   1.159  0.4075  1.7936  0.6056
 1250TIP3    H225242   5.392   5.504   1.068  0.3782  0.3873  0.8749
 1251TIP3   OH225243   3.294   5.336   2.407  0.3556 -0.3001 -0.0118
 1251TIP3    H125244   3.338   5.265   2.361  0.5797  0.1440 -0.4834
 1251TIP3    H225245   3.240   5.378   2.340  1.3584  0.8936 -0.0751
 1252TIP3   OH225246   3.625   1.266  12.868 -0.3816  0.2303  0.4908
 1252TIP3    H125247   3.676   1.207  12.812  0.5132  1.1252  0.3606
 1252TIP3    H225248   3.556   1.210  12.904  0.6214 -0.9678  0.5930
 1253TIP3   OH225249   4.457   0.469   1.168  0.1003  0.0460  0.1451
 1253TIP3    H125250   4.424   0.392   1.121 -0.3604  0.4463 -0.1959
 1253TIP3    H225251   4.546   0.480   1.137 -0.4136  0.6970 -1.1396
 1254TIP3   OH225252   0.534   4.181  17.267  0.0794 -0.8030 -0.0060
 1254TIP3    H125253   0.621   4.162  17.231  0.3885 -0.2188  0.4158
 1254TIP3    H225254   0.529   4.277  17.269  0.6079 -0.7873  2.7292
 1255TIP3   OH225255   5.747   3.850   5.254 -0.1900  0.3991  0.3761
 1255TIP3    H125256   5.682   3.821   5.318  0.2240  1.4295  1.2828
 1255TIP3    H225257   5.797   3.918   5.299 -0.4359  1.7549 -1.3248
 1256TIP3   OH225258   4.594   5.826  14.740  0.1283  0.7355 -0.4710
 1256TIP3    H125259   4.519   5.853  14.794  0.0402  0.6709 -0.5600
 1256TIP3    H225260   4.576   5.864  14.654 -0.7076 -0.7860 -0.9804
 1257TIP3   OH225261   1.390   4.073   0.634 -0.3915 -0.0684 -0.3151
 1257TIP3    H125262   1.420   4.146   0.580 -0.2523  1.5235  1.8401
 1257TIP3    H225263   1.304   4.100   0.665 -0.4821 -0.9619  0.2262
 1258TIP3   OH225264   5.542   4.137  10.477  0.7229 -0.2388 -0.2153
 1258TIP3    H125265   5.533   4.220  10.431  0.6092  0.9303  1.8221
 1258TIP3    H225266   5.484   4.077  10.431 -3.3759  2.2549  1.4576
 1259TIP3   OH225267   4.679   6.339  11.281 -0.4112 -0.6810 -0.2963
 1259TIP3    H125268   4.759   6.391  11.272  0.0703 -1.5209 -0.9136
 1259TIP3    H225269   4.702   6.272  11.346 -0.4814 -1.1688 -0.7748
 1260TIP3   OH225270   6.727   5.427   6.065  0.1134 -0.5161 -0.1071
 1260TIP3    H125271   6.743   5.491   6.134 -2.1383  0.0220 -0.0572
 1260TIP3    H225272   6.710   5.480   5.987 -1.9477 -1.0087 -0.0262
 1261TIP3   OH225273   5.453   4.980  15.432 -0.6534 -0.4753  0.1796
 1261TIP3    H125274   5.496   5.063  15.412 -0.7014 -0.2855  0.8523
 1261TIP3    H225275   5.362   5.004  15.448 -0.2661 -0.3712  2.3666
 1262TIP3   OH225276   5.106   2.951   3.457  0.6684 -0.2262 -0.3586
 1262TIP3    H125277   5.190   2.996   3.457 -0.2037  1.4469  1.4301
 1262TIP3    H225278   5.056   2.992   3.527 -1.8404 -0.8653 -1.7080
 1263TIP3   OH225279   6.003   4.525   3.689  0.2544  0.3705 -0.0701
 1263TIP3    H125280   5.998   4.514   3.594 -0.1796  1.1718 -0.1500
 1263TIP3    H225281   5.997   4.437   3.724 -0.6936  0.1560 -0.7443
 1264TIP3   OH225282   5.591   3.891   0.235  0.4078  0.1266 -0.0346
 1264TIP3    H125283   5.517   3.952   0.232  0.8701  0.8020  1.7717
 1264TIP3    H225284   5.574   3.838   0.313  1.2335 -0.4882 -0.2748
 1265TIP3   OH225285   4.607   4.138   1.935 -0.0292  1.1239 -0.2337
 1265TIP3    H125286   4.678   4.152   1.998  0.6708  0.6311 -0.9203
 1265TIP3    H225287   4.607   4.044   1.919 -1.2142  1.0377  0.2023
 1266TIP3   OH225288   0.792   6.716   2.094  0.4124  0.7704 -0.3751
 1266TIP3    H125289   0.779   6.790   2.154 -0.0653  0.3564  0.0262
 1266TIP3    H225290   0.851   6.657   2.141  0.8655  0.9351 -0.7326
 1267TIP3   OH225291   6.350   2.718  13.128  0.0194 -0.0384  0.2267
 1267TIP3    H125292   6.380   2.807  13.147 -1.1984 -0.1910  3.1651
 1267TIP3    H225293   6.344   2.676  13.214 -1.0718 -2.4376 -0.9732
 1268TIP3   OH225294   5.362   3.006   3.100 -0.1133  0.5758  0.4925
 1268TIP3    H125295   5.383   3.084   3.049  0.6415 -0.7661 -1.3479
 1268TIP3    H225296   5.267   3.001   3.099 -0.1733  1.5802  0.8099
 1269TIP3   OH225297   4.889   3.135  14.112  0.4561  0.2668  0.1997
 1269TIP3    H125298   4.835   3.059  14.129 -0.8692  1.0200 -0.5806
 1269TIP3    H225299   4.950   3.106  14.044  1.3182 -0.6940  1.3593
 1270TIP3   OH225300   6.577   2.636   3.412  0.6387  0.0132  0.1008
 1270TIP3    H125301   6.563   2.660   3.504  0.0302  1.2572 -0.3097
 1270TIP3    H225302   6.553   2.714   3.363 -0.4683 -1.1212 -1.2146
 1271TIP3   OH225303   6.583   4.699  16.735  0.5025 -0.2596  0.6553
 1271TIP3    H125304   6.514   4.766  16.741 -1.1517 -1.8726  0.1419
 1271TIP3    H225305   6.639   4.715  16.811 -0.6974  0.8053  1.3442
 1272TIP3   OH225306   3.382   0.954  11.591  0.2836  0.1022  0.2779
 1272TIP3    H125307   3.470   0.965  11.556 -0.4322 -0.7540 -1.8920
 1272TIP3    H225308   3.326   1.003  11.532 -0.9174 -0.9932  0.4729
 1273TIP3   OH225309   3.518   6.256  12.241  0.0165  0.4180 -0.1145
 1273TIP3    H125310   3.606   6.293  12.246 -0.2886  1.0183  0.9519
 1273TIP3    H225311   3.467   6.322  12.195 -0.0930  0.4785  0.0952
 1274TIP3   OH225312   5.166   0.195  15.828  0.0256  0.0952 -0.6195
 1274TIP3    H125313   5.133   0.113  15.791 -2.2986  0.3069  0.8658
 1274TIP3    H225314   5.106   0.262  15.795 -0.1650  0.7077  0.9179
 1275TIP3   OH225315   0.984   1.229  11.877 -0.0265  0.2439  0.1787
 1275TIP3    H125316   0.933   1.227  11.796 -1.6227 -3.8337  1.1476
 1275TIP3    H225317   1.067   1.188  11.855 -1.1103 -2.4956  0.8719
 1276TIP3   OH225318   4.398   6.541   2.825 -0.1332  0.4803  0.3248
 1276TIP3    H125319   4.455   6.467   2.803 -1.6133 -1.0757  1.5857
 1276TIP3    H225320   4.342   6.508   2.894 -1.3342  2.5784  0.3902
 1277TIP3   OH225321   1.356   2.398   0.505 -0.5956  0.2616  0.1253
 1277TIP3    H125322   1.385   2.307   0.508  0.4294  0.6265  2.4476
 1277TIP3    H225323   1.261   2.393   0.500 -0.4825 -0.9415 -0.8442
 1278TIP3   OH225324   5.100   5.698   3.351  0.0371 -0.3999 -0.5325
 1278TIP3    H125325   5.039   5.630   3.321 -2.3423  1.0152  0.9352
 1278TIP3    H225326   5.186   5.657   3.345 -1.1857 -2.9789 -1.2315
 1279TIP3   OH225327   0.226   0.693   2.441  0.0387  0.2112  0.1360
 1279TIP3    H125328   0.237   0.680   2.535  0.5701 -0.2270  0.0172
 1279TIP3    H225329   0.147   0.746   2.433 -1.5862 -2.0283  0.7102
 1280TIP3   OH225330   1.748   6.688   1.410 -0.2069  0.5410 -0.2540
 1280TIP3    H125331   1.751   6.644   1.495  0.4334  0.8510 -0.1091
 1280TIP3    H225332   1.656   6.709   1.397 -0.2725  0.7686  0.5109
 1281TIP3   OH225333   4.329   0.212  13.847  0.0815 -0.2885  0.0558
 1281TIP3    H125334   4.322   0.303  13.877 -0.1608 -0.5784  0.8905
 1281TIP3    H225335   4.351   0.219  13.755 -0.7737  0.6267 -0.0878
 1282TIP3   OH225336   3.825   5.589  14.536 -0.3701  0.2644 -0.5672
 1282TIP3    H125337   3.899   5.607  14.478  0.0338 -0.8772 -0.4181
 1282TIP3    H225338   3.753   5.567  14.477  0.2176 -1.5444 -0.6378
 1283TIP3   OH225339   5.843   4.049  15.240  0.1872  0.2542  0.1156
 1283TIP3    H125340   5.890   4.000  15.307  0.2401  1.2459  0.8113
 1283TIP3    H225341   5.868   4.007  15.158  0.9680 -0.2863  0.6186
 1284TIP3   OH225342   1.131   4.392   2.165 -0.1867  0.2174  0.5573
 1284TIP3    H125343   1.092   4.467   2.120  1.9962  0.9726 -0.1264
 1284TIP3    H225344   1.127   4.416   2.258  0.2827  1.0727  0.3613
 1285TIP3   OH225345   5.416   0.310  13.928 -0.1969 -0.5826  0.0340
 1285TIP3    H125346   5.492   0.363  13.907 -0.7957  1.1302  1.9424
 1285TIP3    H225347   5.448   0.246  13.993 -0.7668  1.4785  2.4312
 1286TIP3   OH225348   1.483   3.361  13.108  0.6973  0.0503  0.0419
 1286TIP3    H125349   1.502   3.454  13.100 -1.0949  0.8791  4.1250
 1286TIP3    H225350   1.522   3.335  13.192  0.8751 -2.7849 -0.8632
 1287TIP3   OH225351   6.744   1.779   5.679  0.4324  0.2275 -0.0396
 1287TIP3    H125352   6.725   1.695   5.636  1.2344  0.9851 -1.9585
 1287TIP3    H225353   6.764   1.838   5.606 -3.2354  2.9372  1.0326
 1288TIP3   OH225354   3.255   1.571   3.242 -0.4685  0.2657 -0.1413
 1288TIP3    H125355   3.335   1.529   3.273 -1.1033 -1.9178 -1.3254
 1288TIP3    H225356   3.234   1.525   3.161 -2.7250  1.0385 -0.0223
 1289TIP3   OH225357   1.896   3.488  12.173  0.3424  0.0617  0.5963
 1289TIP3    H125358   1.807   3.516  12.156 -0.4863 -3.6520 -1.8140
 1289TIP3    H225359   1.891   3.440  12.256  0.2728  0.4669  0.8291
 1290TIP3   OH225360   1.663   6.571   0.235 -0.0269 -0.2277  0.2335
 1290TIP3    H125361   1.631   6.482   0.252  3.2694 -1.2831  1.4227
 1290TIP3    H225362   1.711   6.563   0.153  0.4953  0.3561  0.4784
 1291TIP3   OH225363   0.734   5.044  16.148  0.3913  0.9846 -0.5785
 1291TIP3    H125364   0.765   4.954  16.136 -1.6957 -0.2124  2.2277
 1291TIP3    H225365   0.806   5.088  16.193  1.2536  0.6101 -1.5704
 1292TIP3   OH225366   1.872   6.068   1.646 -0.2419  0.4588 -0.3009
 1292TIP3    H125367   1.927   6.098   1.718 -0.2178  1.4442 -0.7277
 1292TIP3    H225368   1.845   5.980   1.672  1.0668  0.1896  0.1723
 1293TIP3   OH225369   6.729   1.899  15.600  0.1456  0.2255  0.5125
 1293TIP3    H125370   6.671   1.948  15.541 -0.9957 -1.1913  0.4392
 1293TIP3    H225371   6.721   1.943  15.684 -0.6906  0.2928  0.3965
 1294TIP3   OH225372   1.009   5.201   3.318  0.1251  0.2361  0.3632
 1294TIP3    H125373   1.056   5.269   3.269 -0.6292 -1.1266 -2.3425
 1294TIP3    H225374   0.919   5.233   3.323  0.0793  0.1106  0.3460
 1295TIP3   OH225375   1.652   6.450   2.624 -0.3287 -0.7676  0.1444
 1295TIP3    H125376   1.612   6.368   2.595 -1.1940 -0.7800  1.3646
 1295TIP3    H225377   1.625   6.515   2.559 -0.6292 -1.1996 -0.1592
 1296TIP3   OH225378   5.156   0.145  12.018 -0.0687 -0.0827 -0.2352
 1296TIP3    H125379   5.126   0.090  11.946 -0.8227 -0.4806  0.3855
 1296TIP3    H225380   5.193   0.222  11.975 -0.8961 -0.1298 -1.0473
 1297TIP3   OH225381   6.635   4.484  14.161 -0.2775 -0.2620 -0.1893
 1297TIP3    H125382   6.724   4.488  14.126 -1.2521 -0.9156 -2.9238
 1297TIP3    H225383   6.614   4.391  14.161 -1.1385 -0.0693 -0.0926
 1298TIP3   OH225384   0.488   3.778  15.549 -0.1825  0.1275 -0.0360
 1298TIP3    H125385   0.570   3.824  15.534  0.7237 -1.5608 -0.4134
 1298TIP3    H225386   0.496   3.745  15.639  0.4858 -1.8421 -0.7947
 1299TIP3   OH225387   4.139   0.165   6.773 -0.2595 -0.4970  0.1812
 1299TIP3    H125388   4.082   0.129   6.705 -1.1427  0.8391  0.1900
 1299TIP3    H225389   4.212   0.104   6.779 -0.9543 -1.4360 -0.8877
 1300TIP3   OH225390   4.523   1.019  16.169 -0.1940 -0.0407  0.0915
 1300TIP3    H125391   4.531   0.935  16.214  2.6920  0.1698  0.0890
 1300TIP3    H225392   4.609   1.033  16.130 -0.9441  2.4394 -0.7585
 1301TIP3   OH225393   2.759   0.220  16.938 -0.1633  0.2043 -0.4433
 1301TIP3    H125394   2.826   0.157  16.962  0.6347  0.0227 -3.0303
 1301TIP3    H225395   2.677   0.170  16.943  0.5465 -1.3002 -3.3011
 1302TIP3   OH225396   2.461   4.879  10.660 -0.0364 -0.6339 -0.4787
 1302TIP3    H125397   2.543   4.927  10.672 -0.8802  0.5049  0.9375
 1302TIP3    H225398   2.467   4.807  10.723  0.3339 -1.1889 -1.1406
 1303TIP3   OH225399   4.514   0.455  13.312  0.8773  0.0496 -0.0819
 1303TIP3    H125400   4.495   0.506  13.233 -1.0684 -0.6518 -0.0851
 1303TIP3    H225401   4.563   0.515  13.368 -1.1131  1.8259 -0.1976
 1304TIP3   OH225402   1.625   3.783  15.436 -0.2295 -0.0232  0.5139
 1304TIP3    H125403   1.599   3.724  15.366 -1.1764  1.5934 -0.5246
 1304TIP3    H225404   1.546   3.794  15.489 -0.6209  1.8343 -0.4211
 1305TIP3   OH225405   0.057   4.872  15.775  0.2020 -0.1568 -0.2613
 1305TIP3    H125406  -0.017   4.923  15.743  0.1978 -1.4496 -2.4097
 1305TIP3    H225407   0.019   4.789  15.804  0.2666  0.8005  2.8233
 1306TIP3   OH225408   4.835   4.650  13.824  0.6064  0.0288 -0.3966
 1306TIP3    H125409   4.895   4.594  13.774 -1.8073 -0.5688 -2.7299
 1306TIP3    H225410   4.749   4.609  13.814 -0.3210  1.0641  2.5784
 1307TIP3   OH225411   6.300   2.368  14.047 -0.3379  0.1425 -0.1074
 1307TIP3    H125412   6.296   2.319  14.130 -0.8110 -1.0515 -0.8222
 1307TIP3    H225413   6.316   2.458  14.074  2.1557 -0.6271  1.1602
 1308TIP3   OH225414   6.198   0.031   1.548  0.4870 -0.3097 -0.6773
 1308TIP3    H125415   6.189   0.123   1.573  0.5988  0.0069 -1.8079
 1308TIP3    H225416   6.193  -0.017   1.631  0.9901  0.7540 -0.0288
 1309TIP3   OH225417   1.887   3.876  15.384  0.0463  0.0007  0.6054
 1309TIP3    H125418   1.871   3.944  15.319  1.3388  1.4479  1.7645
 1309TIP3    H225419   1.803   3.830  15.392 -1.0765  1.9448  0.3638
 1310TIP3   OH225420   3.880   0.329  10.852 -0.3768 -0.5810  0.6717
 1310TIP3    H125421   3.897   0.237  10.834 -0.0500 -0.0151 -2.1943
 1310TIP3    H225422   3.797   0.347  10.808 -1.1458  0.1667  2.3911
 1311TIP3   OH225423   0.956   2.351   2.668  0.4521 -0.0040  0.4054
 1311TIP3    H125424   0.918   2.368   2.582  0.9114 -0.4641  0.1036
 1311TIP3    H225425   0.933   2.427   2.720 -1.3456 -0.5094  0.4004
 1312TIP3   OH225426   2.978   3.571  14.559  0.4499  0.4306  0.2030
 1312TIP3    H125427   2.947   3.551  14.647  3.1032  1.3281  1.4037
 1312TIP3    H225428   2.953   3.662  14.545 -0.7850  0.0072 -0.3384
 1313TIP3   OH225429   2.786   4.479  15.559  0.5797 -0.0144  0.4714
 1313TIP3    H125430   2.789   4.420  15.484  1.0135  0.4061  0.1559
 1313TIP3    H225431   2.745   4.559  15.525  2.0028  0.6708  0.3314
 1314TIP3   OH225432   4.936   6.280   4.848  0.2583  0.5642  0.2294
 1314TIP3    H125433   4.926   6.220   4.922  0.4073  1.6600  1.1396
 1314TIP3    H225434   4.849   6.318   4.835 -0.0385 -0.4645 -0.8911
 1315TIP3   OH225435   5.409   2.023   5.797 -0.3231  0.2942  0.4591
 1315TIP3    H125436   5.346   2.088   5.829  0.2185  1.2578 -0.3956
 1315TIP3    H225437   5.362   1.978   5.727  0.5919  2.3755 -1.5488
 1316TIP3   OH225438   4.896   0.527  14.155  0.5905 -0.3774  0.0780
 1316TIP3    H125439   4.917   0.455  14.095 -1.2998 -2.0302  1.3251
 1316TIP3    H225440   4.857   0.594  14.099 -0.9721 -1.8139 -0.5949
 1317TIP3   OH225441   3.295   5.942   1.512 -0.7645 -0.3693  0.1826
 1317TIP3    H125442   3.334   5.859   1.483  1.0808  0.2953  0.7177
 1317TIP3    H225443   3.337   6.008   1.457 -0.0570  0.5123  1.7618
 1318TIP3   OH225444   0.929   2.929   5.854 -0.6693  0.1134 -0.5056
 1318TIP3    H125445   0.875   2.991   5.804 -1.4935  0.3412  0.6687
 1318TIP3    H225446   0.968   2.873   5.786  0.2803  2.0414 -1.6077
 1319TIP3   OH225447   5.399   3.657   3.612  0.2726  0.1173  0.0850
 1319TIP3    H125448   5.305   3.642   3.603  0.0921  0.7262  0.8539
 1319TIP3    H225449   5.440   3.574   3.588 -0.4901 -0.3369  0.3661
 1320TIP3   OH225450   4.491   1.790  14.979 -1.0015 -0.2222  0.1957
 1320TIP3    H125451   4.546   1.852  15.026 -0.2336 -0.2068 -0.7142
 1320TIP3    H225452   4.403   1.829  14.981 -0.2571  1.6241 -1.6049
 1321TIP3   OH225453   5.159   1.397  13.795  0.2775  0.4557  0.5410
 1321TIP3    H125454   5.239   1.414  13.844  0.7161 -1.4973  0.5422
 1321TIP3    H225455   5.091   1.389  13.862  0.7326 -1.4061  0.8159
 1322TIP3   OH225456   0.371   0.240  14.548 -0.0300 -0.2416 -0.2688
 1322TIP3    H125457   0.368   0.145  14.548 -0.2729 -0.2350 -0.1273
 1322TIP3    H225458   0.315   0.266  14.475  0.5139 -0.2169 -0.6869
 1323TIP3   OH225459   3.066   0.615   2.316 -0.8219  0.0516  0.6352
 1323TIP3    H125460   3.140   0.669   2.289  0.7400 -1.7208  1.2348
 1323TIP3    H225461   3.054   0.636   2.409 -1.5598  0.8921  0.3503
 1324TIP3   OH225462   0.509   3.130  12.444  0.2054  0.2940 -0.4931
 1324TIP3    H125463   0.557   3.129  12.361 -2.5226  0.4975 -2.1284
 1324TIP3    H225464   0.451   3.055  12.440 -1.1053  1.2233  0.5341
 1325TIP3   OH225465   4.384   6.651   1.829  0.1851 -0.5557  0.2597
 1325TIP3    H125466   4.323   6.613   1.892 -1.9482  1.2696 -0.6065
 1325TIP3    H225467   4.348   6.625   1.744  0.0974  1.2531 -0.2789
 1326TIP3   OH225468   3.441   5.425   5.040 -0.5739 -0.3690 -0.5574
 1326TIP3    H125469   3.385   5.369   5.094 -0.5730 -0.4662 -0.6560
 1326TIP3    H225470   3.410   5.514   5.057 -0.4421 -0.3814 -0.2436
 1327TIP3   OH225471   4.868   3.334  13.579 -0.1565  0.2307  0.4271
 1327TIP3    H125472   4.896   3.403  13.520 -1.7424  0.1614 -0.4452
 1327TIP3    H225473   4.809   3.377  13.642 -2.8829 -0.6587 -1.4312
 1328TIP3   OH225474   2.555   0.902  12.319  0.3574  0.4866  0.2772
 1328TIP3    H125475   2.545   0.821  12.369 -1.9103  0.4663 -0.1112
 1328TIP3    H225476   2.633   0.944  12.354  0.0731 -0.6170  2.2668
 1329TIP3   OH225477   6.598   4.483  16.026 -0.3262  0.3994 -0.9989
 1329TIP3    H125478   6.626   4.511  16.113 -2.2196 -0.0789 -0.2180
 1329TIP3    H225479   6.667   4.423  15.997  1.1854  1.9005 -0.5764
 1330TIP3   OH225480   2.554   6.484  11.672 -0.3514  0.2804  0.5037
 1330TIP3    H125481   2.538   6.393  11.646 -1.0623  0.5993 -0.2263
 1330TIP3    H225482   2.475   6.531  11.643 -0.0176  1.1165  0.9257
 1331TIP3   OH225483   2.841   5.734   2.071 -0.3545 -0.5852 -0.4573
 1331TIP3    H125484   2.899   5.810   2.077 -2.7574  1.0966  2.4565
 1331TIP3    H225485   2.763   5.766   2.026 -1.4914 -1.2404  1.0058
 1332TIP3   OH225486   1.646   2.596  12.060  0.1729 -0.0989  0.0603
 1332TIP3    H125487   1.687   2.585  12.146 -0.4771 -1.5126  0.1959
 1332TIP3    H225488   1.645   2.508  12.022 -1.8681  0.0529 -0.3233
 1333TIP3   OH225489   3.976   2.235   5.771  0.0640  0.0019  0.0765
 1333TIP3    H125490   3.954   2.221   5.678 -0.6751 -0.3064  0.2911
 1333TIP3    H225491   3.972   2.330   5.782 -0.6081 -0.0073 -0.0368
 1334TIP3   OH225492   4.721   1.897  14.429  0.0291  0.1995  0.3581
 1334TIP3    H125493   4.730   1.945  14.511 -1.8854  1.5481 -0.1995
 1334TIP3    H225494   4.730   1.805  14.454 -2.1232  0.4984  2.3444
 1335TIP3   OH225495   1.182   3.424  16.766 -0.4982  0.1609  0.3078
 1335TIP3    H125496   1.184   3.513  16.800  1.9127  0.1394  0.3120
 1335TIP3    H225497   1.143   3.372  16.837 -1.7546  1.1695  0.3654
 1336TIP3   OH225498   1.649   1.343   5.252 -0.5674  0.5333 -0.0825
 1336TIP3    H125499   1.640   1.303   5.338 -3.6895  0.7760 -0.2198
 1336TIP3    H225500   1.700   1.423   5.267  0.0614 -0.1145  1.2962
 1337TIP3   OH225501   0.526   6.675  13.387  0.1042  0.3446  0.2530
 1337TIP3    H125502   0.534   6.733  13.311 -0.5722  0.0862 -0.0215
 1337TIP3    H225503   0.471   6.724  13.448 -0.4010  0.0312  0.0534
 1338TIP3   OH225504   4.602   6.321   4.260 -0.2654 -0.0008  0.7463
 1338TIP3    H125505   4.617   6.238   4.214 -1.5367  0.4677 -0.5722
 1338TIP3    H225506   4.509   6.317   4.283 -0.2188  0.8624  1.0663
 1339TIP3   OH225507   5.065   3.634  14.475 -0.0577 -0.2284 -0.2353
 1339TIP3    H125508   5.093   3.720  14.506 -1.6862  0.4691 -0.6182
 1339TIP3    H225509   5.112   3.622  14.392 -0.3557  0.6107 -0.5353
 1340TIP3   OH225510   4.579   1.445  13.263  0.5179  0.4069  0.3123
 1340TIP3    H125511   4.603   1.395  13.341  0.0596 -1.1435 -0.5269
 1340TIP3    H225512   4.526   1.385  13.211 -0.0060  1.7536 -0.7433
 1341TIP3   OH225513   0.023   1.411   4.093  0.1826 -0.3939  0.2649
 1341TIP3    H125514   0.113   1.387   4.069  0.0282 -0.2161 -0.5003
 1341TIP3    H225515   0.009   1.367   4.177  0.3133 -2.0392 -0.5403
 1342TIP3   OH225516   5.168   2.703   2.972 -0.2276  0.3004  0.1882
 1342TIP3    H125517   5.178   2.715   2.878 -1.5403 -0.2173 -0.0381
 1342TIP3    H225518   5.254   2.673   3.003 -0.1114 -0.6385 -1.0313
 1343TIP3   OH225519   3.141   6.597  13.399  0.3297  0.2660 -0.4784
 1343TIP3    H125520   3.164   6.689  13.411 -0.9182  0.4621  0.4297
 1343TIP3    H225521   3.117   6.591  13.306 -0.2618  1.0025 -0.3794
 1344TIP3   OH225522   6.759   4.977   2.540  0.4142  0.2008  0.2825
 1344TIP3    H125523   6.667   4.982   2.564  0.2930  1.9585 -0.4673
 1344TIP3    H225524   6.759   4.939   2.452  0.4088  0.2309  0.2695
 1345TIP3   OH225525   1.044   3.462  15.213 -0.8346  0.4530 -0.3125
 1345TIP3    H125526   1.104   3.387  15.212 -0.6010  0.6235  0.4207
 1345TIP3    H225527   0.977   3.440  15.149 -0.5025 -0.1659 -0.4555
 1346TIP3   OH225528   6.580   4.634  14.390  0.2552  0.1155  0.0687
 1346TIP3    H125529   6.589   4.720  14.351  0.8639  0.0702  0.1076
 1346TIP3    H225530   6.606   4.573  14.321 -1.2855 -0.1003 -0.3450
 1347TIP3   OH225531   0.967   4.271  15.601 -0.3648 -0.4910  0.0331
 1347TIP3    H125532   1.006   4.353  15.571  0.1295 -0.0801  1.7252
 1347TIP3    H225533   1.030   4.237  15.664 -0.8420 -1.8971 -0.2357
 1348TIP3   OH225534   2.750   3.666  13.833  0.0088 -0.2111  0.4089
 1348TIP3    H125535   2.843   3.680  13.814 -0.6533  3.5766 -0.4272
 1348TIP3    H225536   2.745   3.665  13.929  0.9770 -1.1276  0.4619
 1349TIP3   OH225537   3.474   6.046  14.078  0.1204  0.0889 -0.0681
 1349TIP3    H125538   3.504   6.115  14.020  2.5825 -1.2132 -0.3948
 1349TIP3    H225539   3.437   5.980  14.020 -1.8276  0.8803  0.2145
 1350TIP3   OH225540   4.830   1.776   0.120  0.3013  0.3662 -0.3098
 1350TIP3    H125541   4.844   1.810   0.208  1.0416  1.1847 -0.7422
 1350TIP3    H225542   4.773   1.700   0.132 -0.1966  0.9132  0.7999
 1351TIP3   OH225543   3.958   4.849   2.336  0.2536 -0.5130  0.1171
 1351TIP3    H125544   3.973   4.852   2.430 -1.1456  1.0628  0.2932
 1351TIP3    H225545   3.869   4.816   2.326 -0.0655  0.5559 -0.6196
 1352TIP3   OH225546   1.656   0.375   2.299  0.0139 -0.1648  0.5150
 1352TIP3    H125547   1.720   0.444   2.283 -0.4645  0.0863 -0.3811
 1352TIP3    H225548   1.587   0.391   2.235 -2.9656  2.0237  4.0705
 1353TIP3   OH225549   2.907   0.874  12.860  0.2246  0.0559  0.2006
 1353TIP3    H125550   2.966   0.802  12.883 -1.5777 -1.3537  0.5273
 1353TIP3    H225551   2.930   0.895  12.770  1.5574 -0.1391  0.4798
 1354TIP3   OH225552   0.319   5.032  14.941 -0.2264 -0.3628 -0.0247
 1354TIP3    H125553   0.299   5.076  14.858  0.6227  1.1143  0.5405
 1354TIP3    H225554   0.372   5.095  14.990 -0.0906 -1.5109  1.3447
 1355TIP3   OH225555   5.446   5.047  14.705 -0.4246 -0.2800 -0.3327
 1355TIP3    H125556   5.393   4.994  14.646 -3.1654  1.8341  0.1490
 1355TIP3    H225557   5.529   5.059  14.659 -1.0800 -1.9169 -1.9957
 1356TIP3   OH225558   3.214   0.825   3.827  0.6307  0.4355  0.3981
 1356TIP3    H125559   3.198   0.872   3.746 -1.0555 -0.5350  0.1512
 1356TIP3    H225560   3.167   0.875   3.894 -3.1303 -2.0362 -0.2191
 1357TIP3   OH225561   4.543   2.147   4.742 -0.6259  0.0685  0.2557
 1357TIP3    H125562   4.621   2.132   4.689 -0.3731 -0.0449  0.6575
 1357TIP3    H225563   4.506   2.228   4.708  0.7619  1.1950  1.3958
 1358TIP3   OH225564   6.557   6.384   3.362 -0.4674  0.0183  0.1015
 1358TIP3    H125565   6.484   6.327   3.339 -0.5156  0.0503  0.1751
 1358TIP3    H225566   6.612   6.387   3.283  0.7556 -1.9938  0.8399
 1359TIP3   OH225567   2.451   3.588  13.926  0.2979  0.4437  0.2905
 1359TIP3    H125568   2.483   3.615  13.841 -0.7550 -1.1214 -0.6379
 1359TIP3    H225569   2.515   3.524  13.957 -0.3859 -0.5229 -0.2657
 1360TIP3   OH225570   0.528   2.516  12.477  0.0577  0.1244 -0.2559
 1360TIP3    H125571   0.567   2.571  12.409  1.1519 -0.1106  0.1737
 1360TIP3    H225572   0.591   2.518  12.549 -1.0224  0.2401  0.6856
 1361TIP3   OH225573   1.996   1.177  12.013 -0.2062  0.2668 -0.1285
 1361TIP3    H125574   2.032   1.216  11.933 -1.4022  1.2367 -0.1976
 1361TIP3    H225575   1.959   1.094  11.985 -0.3045  0.4421 -0.5143
 1362TIP3   OH225576   1.713   2.112   3.484 -0.0883 -0.0979 -0.1151
 1362TIP3    H125577   1.660   2.061   3.422 -0.7086  1.9650 -1.3412
 1362TIP3    H225578   1.658   2.187   3.506  1.9144  1.5428 -0.5906
 1363TIP3   OH225579   5.159   6.425  16.652  0.1252 -0.3708  0.1297
 1363TIP3    H125580   5.190   6.515  16.645  1.1096 -0.7537 -0.5482
 1363TIP3    H225581   5.129   6.416  16.742 -0.4065  0.7674  0.0717
 1364TIP3   OH225582   3.974   2.743  16.248 -0.6660  0.2117  0.2390
 1364TIP3    H125583   3.992   2.762  16.341  0.2729  0.7074 -0.0375
 1364TIP3    H225584   3.926   2.660  16.249  2.5916 -1.7339  0.9446
 1365TIP3   OH225585   3.605   2.154   1.321 -0.7090  0.2078 -0.2680
 1365TIP3    H125586   3.581   2.096   1.248 -3.5071 -0.5203  1.1664
 1365TIP3    H225587   3.525   2.203   1.340  0.0390  0.5331  2.1858
 1366TIP3   OH225588   3.329   0.287   5.652 -0.1164  0.5993  0.2678
 1366TIP3    H125589   3.251   0.327   5.690  0.9967  1.9223  1.2278
 1366TIP3    H225590   3.332   0.199   5.689 -0.2703  1.1098  1.5345
 1367TIP3   OH225591   3.407   4.521  17.262  0.4131  0.3783 -0.0339
 1367TIP3    H125592   3.461   4.486  17.333  0.5643  2.1986  0.7646
 1367TIP3    H225593   3.347   4.450  17.241 -1.0798  0.5254  3.3932
 1368TIP3   OH225594   6.210   6.109  16.795  0.4688  0.1425 -0.4488
 1368TIP3    H125595   6.227   6.126  16.702  0.7781 -2.4157 -0.9033
 1368TIP3    H225596   6.127   6.153  16.813 -0.2756 -0.4389 -2.2939
 1369TIP3   OH225597   5.510   4.770   0.201 -0.0272 -0.0150 -0.4711
 1369TIP3    H125598   5.533   4.695   0.146  0.2454 -1.2604  1.3277
 1369TIP3    H225599   5.527   4.742   0.290 -1.7569  1.5137  0.3934
 1370TIP3   OH225600   1.081   5.807   3.387  0.6500 -0.1520  0.4364
 1370TIP3    H125601   1.154   5.786   3.328 -0.6191 -0.3367 -1.1166
 1370TIP3    H225602   1.042   5.722   3.409 -0.8867  0.1033 -1.1344
 1371TIP3   OH225603   6.612   4.585   1.760  0.5381  0.1200  0.4705
 1371TIP3    H125604   6.610   4.489   1.753 -1.8842  0.1006  1.0588
 1371TIP3    H225605   6.628   4.615   1.670  1.2214 -0.8187  0.2679
 1372TIP3   OH225606   2.761   4.787   1.639  0.0661  0.1554  0.2394
 1372TIP3    H125607   2.705   4.789   1.717  1.2838  1.8895  1.0941
 1372TIP3    H225608   2.739   4.704   1.597  0.0128 -1.2350  2.8676
 1373TIP3   OH225609   2.830   4.377   0.818 -0.2578  0.2746  0.6153
 1373TIP3    H125610   2.795   4.446   0.761 -1.2324 -0.0850  0.7566
 1373TIP3    H225611   2.753   4.344   0.864  0.5104  0.5097  2.0953
 1374TIP3   OH225612   1.412   4.784  14.855 -0.4017 -0.3191 -1.0696
 1374TIP3    H125613   1.329   4.769  14.810 -0.1949  0.4851 -1.7249
 1374TIP3    H225614   1.475   4.730  14.807 -0.5648 -1.0374 -0.4863
 1375TIP3   OH225615   1.034   6.634   2.619 -0.2736 -0.0127  0.0139
 1375TIP3    H125616   0.985   6.580   2.557 -0.8928  0.3421  0.1815
 1375TIP3    H225617   1.059   6.575   2.689 -0.0709 -0.2939 -0.2946
 1376TIP3   OH225618   0.110   6.292   6.355  0.4320 -0.0345 -0.3058
 1376TIP3    H125619   0.115   6.200   6.378 -0.0271 -0.2773 -1.1525
 1376TIP3    H225620   0.071   6.334   6.431  1.4170 -0.4092  0.4113
 1377TIP3   OH225621   4.551   2.884   5.585  0.1688 -0.3058  0.1774
 1377TIP3    H125622   4.521   2.795   5.607  1.2051 -0.5989  0.4447
 1377TIP3    H225623   4.644   2.873   5.566 -0.2419  0.2753 -2.4002
 1378TIP3   OH225624   3.015   6.262   2.828 -0.3240 -0.2139  0.5789
 1378TIP3    H125625   3.068   6.292   2.902 -1.5791  0.4710  1.2233
 1378TIP3    H225626   3.066   6.285   2.750  0.5219  0.0125  1.1969
 1379TIP3   OH225627   3.780   6.105   2.843  0.1770  0.6437  0.1968
 1379TIP3    H125628   3.876   6.105   2.843  0.3047  1.9306 -4.6777
 1379TIP3    H225629   3.756   6.186   2.888  1.3837  0.6734  0.8096
 1380TIP3   OH225630   0.855   0.739   5.623  0.7497 -0.0435 -1.2262
 1380TIP3    H125631   0.798   0.807   5.659  1.5563  0.1660 -0.3050
 1380TIP3    H225632   0.796   0.670   5.592 -0.0410  0.7540 -1.5013
 1381TIP3   OH225633   2.520   1.605   1.027 -0.4781  0.2823  0.2099
 1381TIP3    H125634   2.451   1.581   1.088  0.9114 -0.8419  1.3652
 1381TIP3    H225635   2.481   1.592   0.941 -1.4292 -1.1586  0.8434
 1382TIP3   OH225636   0.026   5.504   1.442 -0.0233  0.7807  0.5282
 1382TIP3    H125637  -0.022   5.440   1.495  0.4212  1.6557  2.0235
 1382TIP3    H225638   0.050   5.573   1.504  3.3980  0.2261 -0.0659
 1383TIP3   OH225639   2.518   2.771   4.874  0.0224  0.2952 -0.3688
 1383TIP3    H125640   2.521   2.765   4.779 -0.9528 -1.0074 -0.3204
 1383TIP3    H225641   2.583   2.708   4.905  0.5131  0.8893 -0.1635
 1384TIP3   OH225642   5.072   4.805  11.761  0.4474 -0.0351  0.1938
 1384TIP3    H125643   5.139   4.762  11.815 -0.1362  0.2704  1.1717
 1384TIP3    H225644   5.046   4.881  11.812 -0.4113  0.0326 -0.3424
 1385TIP3   OH225645   6.129   1.368  11.176  0.5322 -0.1735 -0.3741
 1385TIP3    H125646   6.112   1.381  11.270  0.3829  0.2840 -0.4607
 1385TIP3    H225647   6.219   1.335  11.173  0.6111  0.0099 -0.0808
 1386TIP3   OH225648   3.175   6.717   3.719 -0.2816 -0.1662 -0.4040
 1386TIP3    H125649   3.125   6.639   3.693 -1.7646  0.7187 -0.2222
 1386TIP3    H225650   3.194   6.702   3.812 -0.6864 -0.2476 -0.3315
 1387TIP3   OH225651   3.283   6.352   4.688 -0.3187 -0.1164  0.1018
 1387TIP3    H125652   3.292   6.277   4.747 -1.9825 -1.4167 -1.2384
 1387TIP3    H225653   3.336   6.329   4.612  1.1412  1.1782  0.7116
 1388TIP3   OH225654   1.304   0.047  10.454 -0.0758  0.5410  0.2354
 1388TIP3    H125655   1.267  -0.009  10.522 -0.6467  1.4218  0.6564
 1388TIP3    H225656   1.387   0.005  10.431 -0.1845 -0.1113  1.0159
 1389TIP3   OH225657   0.574   4.185   4.683 -0.1826 -0.1489  1.1147
 1389TIP3    H125658   0.584   4.261   4.625 -3.0739  0.2038  1.0249
 1389TIP3    H225659   0.549   4.222   4.767 -0.1387 -0.9339  1.4740
 1390TIP3   OH225660   6.204   6.637  12.535  0.8111 -0.1565 -0.0900
 1390TIP3    H125661   6.184   6.701  12.603 -0.1632 -0.4798 -0.0737
 1390TIP3    H225662   6.287   6.667  12.498  0.5862  0.8623  0.2196
 1391TIP3   OH225663   4.226   1.661   4.999  0.5715  0.5841  0.3566
 1391TIP3    H125664   4.228   1.580   4.949  0.1577 -0.4730  2.0190
 1391TIP3    H225665   4.224   1.730   4.933  1.9649 -0.7138 -1.0684
 1392TIP3   OH225666   1.217   3.102   3.084  0.0982 -0.4811  0.3180
 1392TIP3    H125667   1.200   3.008   3.079  3.3403 -1.0984 -0.7605
 1392TIP3    H225668   1.227   3.119   3.177 -0.3498 -1.2291  0.5141
 1393TIP3   OH225669   1.006   4.247  16.743 -0.6887  0.3293 -0.1435
 1393TIP3    H125670   1.089   4.235  16.789  0.6984  0.7100 -2.4866
 1393TIP3    H225671   0.943   4.268  16.813  1.2986  0.7298  1.5866
 1394TIP3   OH225672   6.015   4.333  11.546  0.1436  0.6757 -0.3405
 1394TIP3    H125673   5.933   4.377  11.525 -1.3003 -1.7559 -0.0510
 1394TIP3    H225674   6.054   4.313  11.461  0.3054  1.5969 -0.4845
 1395TIP3   OH225675   3.585   0.699  13.797  0.3308  0.1222 -0.3040
 1395TIP3    H125676   3.541   0.784  13.799 -1.0556 -0.5641 -1.0241
 1395TIP3    H225677   3.533   0.643  13.854  1.7844 -0.0075  0.9197
 1396TIP3   OH225678   3.968   3.663  12.499  0.2364  0.0386 -0.2341
 1396TIP3    H125679   4.028   3.595  12.468 -0.7340 -0.4763 -1.0135
 1396TIP3    H225680   3.977   3.734  12.436 -0.0590 -0.0820 -0.4109
 1397TIP3   OH225681   1.023   0.895   5.967  0.2766  0.3733 -0.2618
 1397TIP3    H125682   0.990   0.956   6.032  0.1570 -1.2348  1.2307
 1397TIP3    H225683   0.954   0.828   5.959  1.4618 -0.9088 -0.0099
 1398TIP3   OH225684   0.119   3.998   2.706  0.1338  0.1929 -0.4760
 1398TIP3    H125685   0.116   3.909   2.670 -1.3173  0.7807 -1.8561
 1398TIP3    H225686   0.043   4.002   2.765 -0.9423  1.1166 -1.8961
 1399TIP3   OH225687   5.354   6.546  15.619  0.1462  0.6618  0.5902
 1399TIP3    H125688   5.379   6.635  15.645 -0.5711  0.8113  0.7814
 1399TIP3    H225689   5.264   6.536  15.650 -1.0400  1.1100 -2.4974
 1400TIP3   OH225690   5.186   1.813   1.829 -0.6946  0.3288  0.5116
 1400TIP3    H125691   5.115   1.775   1.778 -0.3838  1.8216 -1.0701
 1400TIP3    H225692   5.150   1.820   1.918 -2.3876  0.7019 -0.1751
 1401TIP3   OH225693   6.462   6.353   5.461 -0.6462  0.2590  0.2128
 1401TIP3    H125694   6.428   6.354   5.371 -2.0494 -2.3704  0.6489
 1401TIP3    H225695   6.495   6.442   5.475 -0.3888  0.7327 -2.8880
 1402TIP3   OH225696   6.322   4.667   0.533 -0.2800  0.0249 -0.1334
 1402TIP3    H125697   6.244   4.641   0.583 -1.1730 -0.0234 -1.5349
 1402TIP3    H225698   6.367   4.730   0.590 -0.9515 -0.5079  0.9963
 1403TIP3   OH225699   2.954   1.251  13.129  0.2501 -0.2565 -0.0402
 1403TIP3    H125700   2.933   1.311  13.057  0.1237 -0.7467 -0.4161
 1403TIP3    H225701   3.002   1.179  13.087  2.2507  0.6081  0.7482
 1404TIP3   OH225702   3.375   6.116   0.225  0.1706 -0.1575  0.4211
 1404TIP3    H125703   3.395   6.147   0.313  0.2196 -0.3529  0.4800
 1404TIP3    H225704   3.325   6.035   0.239  2.9458 -1.9464  0.2634
 1405TIP3   OH225705   1.058   1.949  16.302  0.1908 -0.5144 -0.1173
 1405TIP3    H125706   0.992   1.884  16.324 -0.8568  0.1279 -1.2884
 1405TIP3    H225707   1.083   1.929  16.212 -0.0102  0.5805 -0.4294
 1406TIP3   OH225708   2.907   0.724   5.366 -0.5338 -0.1128 -0.7688
 1406TIP3    H125709   3.000   0.703   5.360 -0.1839  1.1212 -0.0917
 1406TIP3    H225710   2.893   0.791   5.299  0.0416  2.7385  1.8211
 1407TIP3   OH225711   2.545   4.150   5.530  0.5058 -0.1161 -0.6830
 1407TIP3    H125712   2.485   4.091   5.575 -0.9202  1.5439 -0.3283
 1407TIP3    H225713   2.632   4.125   5.562 -0.2568 -0.6980  0.9841
 1408TIP3   OH225714   5.225   1.559   2.537  0.2424 -0.3406 -0.2071
 1408TIP3    H125715   5.164   1.549   2.464  1.3586  2.0484 -1.5036
 1408TIP3    H225716   5.282   1.631   2.511  1.2621 -0.0875  2.6189
 1409TIP3   OH225717   5.332   3.669   5.895  0.7400 -0.0384  0.0491
 1409TIP3    H125718   5.396   3.602   5.918  0.0625 -0.6211  0.2716
 1409TIP3    H225719   5.303   3.704   5.980  0.2501 -0.2739 -0.0187
 1410TIP3   OH225720   0.581   4.783  13.140 -0.2411  0.0644 -0.7875
 1410TIP3    H125721   0.541   4.866  13.166 -1.3077 -0.6403 -0.1616
 1410TIP3    H225722   0.636   4.758  13.214  2.3356  1.5898 -2.0785
 1411TIP3   OH225723   0.044   0.233  13.070 -0.1271 -0.2290 -0.2293
 1411TIP3    H125724  -0.016   0.306  13.086  0.1700 -0.5002  2.3900
 1411TIP3    H225725   0.086   0.254  12.987 -2.2299  1.0773 -0.9931
 1412TIP3   OH225726   1.502   0.800   1.102  0.1480  0.0999 -0.4543
 1412TIP3    H125727   1.587   0.759   1.114 -0.3239 -0.3689  1.4936
 1412TIP3    H225728   1.461   0.752   1.030  0.9784 -0.5778 -0.4743
 1413TIP3   OH225729   4.138   2.525  13.866 -0.2323 -0.1312 -0.7363
 1413TIP3    H125730   4.216   2.509  13.919 -0.1284 -0.9315 -1.1279
 1413TIP3    H225731   4.074   2.561  13.928 -0.0726 -0.9538 -0.0873
 1414TIP3   OH225732   6.751   0.343   3.791  0.1089 -0.2428  0.0893
 1414TIP3    H125733   6.737   0.405   3.720 -2.2326  0.8724  1.4735
 1414TIP3    H225734   6.710   0.262   3.761 -1.0632  0.2898  0.2229
 1415TIP3   OH225735   3.988   5.794   1.374 -0.1078 -0.0498  0.3908
 1415TIP3    H125736   3.986   5.727   1.305  1.4207 -0.4224  0.6800
 1415TIP3    H225737   4.043   5.863   1.337 -0.9671  0.6679  0.4438
 1416TIP3   OH225738   4.336   3.398  11.974 -0.4593 -0.2756  0.0839
 1416TIP3    H125739   4.240   3.402  11.971 -0.4020  0.5284 -1.6029
 1416TIP3    H225740   4.357   3.305  11.978 -1.3093 -0.4564  0.3342
 1417TIP3   OH225741   0.422   0.788   4.852  0.0268 -0.2421  0.9902
 1417TIP3    H125742   0.369   0.799   4.773  0.4160  0.6659  0.8484
 1417TIP3    H225743   0.411   0.871   4.900  1.7494  0.1784  0.6925
 1418TIP3   OH225744   5.352   4.211  11.830  0.8438 -0.2158  0.9154
 1418TIP3    H125745   5.399   4.292  11.850  0.3963  0.0581  0.8689
 1418TIP3    H225746   5.349   4.164  11.914 -0.7732  0.7987  1.4530
 1419TIP3   OH225747   1.784   4.564   4.703 -0.3038 -0.3198 -0.1528
 1419TIP3    H125748   1.726   4.585   4.630 -0.9811 -0.4810  0.3356
 1419TIP3    H225749   1.765   4.631   4.769  1.0415  0.4358 -0.5285
 1420TIP3   OH225750   1.777   3.547   5.325 -0.0718  0.1864  0.0520
 1420TIP3    H125751   1.701   3.530   5.268  1.3121  1.7322 -2.3351
 1420TIP3    H225752   1.842   3.482   5.298 -0.5602 -1.2501  2.2196
 1421TIP3   OH225753   4.466   1.354   4.620  0.0920  0.2252 -0.3889
 1421TIP3    H125754   4.507   1.269   4.602  1.6673  1.0102 -0.5883
 1421TIP3    H225755   4.456   1.357   4.715 -1.3427 -0.7922 -0.4890
 1422TIP3   OH225756   3.853   1.185   3.913  0.3435  0.4784  0.6758
 1422TIP3    H125757   3.828   1.223   3.998  0.1571  0.8713  0.4488
 1422TIP3    H225758   3.949   1.188   3.912  0.3102  2.3320  0.0501
 1423TIP3   OH225759   3.992   0.575   1.833  0.0832 -0.4231 -0.3573
 1423TIP3    H125760   4.070   0.566   1.888  0.3913  1.5299 -0.4293
 1423TIP3    H225761   3.999   0.504   1.769  2.0794  0.0004 -0.6606
 1424TIP3   OH225762   1.892   3.765   5.467  0.2732 -0.0126 -0.3781
 1424TIP3    H125763   1.868   3.691   5.411  1.5859 -0.5524 -0.2377
 1424TIP3    H225764   1.868   3.842   5.416 -0.2856 -0.5194 -0.8969
 1425TIP3   OH225765   5.804   6.450   1.221  0.0388  0.2272  0.6866
 1425TIP3    H125766   5.723   6.442   1.272 -0.5621  0.2179 -0.2591
 1425TIP3    H225767   5.838   6.361   1.216 -0.8362 -0.0589 -0.4210
 1426TIP3   OH225768   4.675   5.923  13.876 -0.4468  0.2018  0.1897
 1426TIP3    H125769   4.687   5.933  13.781  0.0100 -2.5098 -0.0706
 1426TIP3    H225770   4.764   5.912  13.910 -0.7487 -0.7232  0.6928
 1427TIP3   OH225771   6.304   0.756   4.578 -0.3501 -0.2889  0.4884
 1427TIP3    H125772   6.306   0.662   4.558 -0.7496 -0.3034  0.5304
 1427TIP3    H225773   6.212   0.777   4.589 -0.3136  0.2694 -0.2461
 1428TIP3   OH225774   3.153   5.762   5.175  0.7641  0.2924 -0.3194
 1428TIP3    H125775   3.207   5.697   5.219 -1.3507 -0.9279  0.5479
 1428TIP3    H225776   3.215   5.817   5.127  2.5777 -2.3402 -1.0509
 1429TIP3   OH225777   2.714   2.631   3.405  0.2158  0.0541 -0.4096
 1429TIP3    H125778   2.629   2.589   3.417 -0.1572  1.4189  1.8524
 1429TIP3    H225779   2.775   2.557   3.397 -0.4434 -1.0388  3.4359
 1430TIP3   OH225780   5.869   5.128   2.114 -0.2317  0.0161  0.1158
 1430TIP3    H125781   5.823   5.125   2.198  1.7144  0.2037  1.2175
 1430TIP3    H225782   5.824   5.065   2.059 -1.2741 -0.4022  1.4462
 1431TIP3   OH225783   0.578   5.594  13.136  0.0151 -0.5302  0.3814
 1431TIP3    H125784   0.648   5.589  13.071 -0.1459  2.4254 -0.0968
 1431TIP3    H225785   0.605   5.534  13.205  2.3558 -0.4765 -0.4303
 1432TIP3   OH225786   5.613   0.535  13.138 -0.1349 -0.3274 -0.2853
 1432TIP3    H125787   5.707   0.526  13.120  0.0100 -0.1239  0.3664
 1432TIP3    H225788   5.581   0.444  13.144  0.2593 -0.4042  0.7226
 1433TIP3   OH225789   5.704   2.058  10.852 -0.5328  0.0260 -0.6561
 1433TIP3    H125790   5.627   2.074  10.798  0.2897  1.6849 -1.3620
 1433TIP3    H225791   5.708   2.131  10.913  0.5438  0.0175 -0.7008
 1434TIP3   OH225792   4.075   0.171  16.890  0.6055  0.3844 -0.0599
 1434TIP3    H125793   4.118   0.101  16.940  2.1537 -0.5760 -2.6568
 1434TIP3    H225794   3.982   0.148  16.891  0.9229 -0.9404  0.3359
 1435TIP3   OH225795   1.693   3.046  16.919 -0.3752  0.9586 -0.4091
 1435TIP3    H125796   1.756   2.983  16.955 -0.3965  1.3447  0.3188
 1435TIP3    H225797   1.683   3.020  16.828  0.2713  0.4318 -0.3402
 1436TIP3   OH225798   4.022   6.135  13.904 -0.6213  0.3052  0.5043
 1436TIP3    H125799   3.944   6.113  13.954  0.9350 -1.0263  2.4187
 1436TIP3    H225800   4.058   6.051  13.876  0.9068  0.8018  0.9010
 1437TIP3   OH225801   5.702   4.160  13.303  0.4446  0.2948  0.4526
 1437TIP3    H125802   5.618   4.157  13.257 -1.2284  1.0720  3.3289
 1437TIP3    H225803   5.735   4.248  13.285  1.2352 -0.3732 -1.5859
 1438TIP3   OH225804   3.407   4.610   2.785  0.4683 -0.0143 -0.4596
 1438TIP3    H125805   3.362   4.695   2.778  1.1484  0.3259 -0.7420
 1438TIP3    H225806   3.492   4.631   2.824  0.9441 -0.4524 -1.2471
 1439TIP3   OH225807   3.667   6.329   2.251  0.5015 -0.4974 -0.0126
 1439TIP3    H125808   3.759   6.319   2.226  0.4794 -1.2741  0.1902
 1439TIP3    H225809   3.668   6.331   2.347  0.4501  1.0447 -0.0324
 1440TIP3   OH225810   0.722   3.109   2.324 -0.7858  0.5483  0.0608
 1440TIP3    H125811   0.633   3.108   2.361 -1.0007  1.5826 -0.4099
 1440TIP3    H225812   0.745   3.201   2.319  1.1110  0.2229  1.9962
 1441TIP3   OH225813   2.629   0.468  15.375  0.7284 -0.2309 -0.3613
 1441TIP3    H125814   2.691   0.463  15.303  0.3182  0.4656 -0.7662
 1441TIP3    H225815   2.594   0.557  15.371 -0.9333 -0.8615 -0.6845
 1442TIP3   OH225816   1.435   5.862  11.496  0.6194 -0.1999 -0.1034
 1442TIP3    H125817   1.475   5.779  11.473 -0.3658 -0.6592 -0.1916
 1442TIP3    H225818   1.363   5.873  11.433  0.3852  0.4336  0.2598
 1443TIP3   OH225819   6.414   3.968  12.038  0.2405  0.4958  0.5718
 1443TIP3    H125820   6.460   4.027  12.098 -2.3331  1.4047  1.6958
 1443TIP3    H225821   6.341   4.020  12.005  0.0835 -0.8835 -1.3192
 1444TIP3   OH225822   1.227   1.129   4.856 -0.1751 -0.2938  0.1413
 1444TIP3    H125823   1.203   1.194   4.791  1.0015 -0.1544 -0.1598
 1444TIP3    H225824   1.225   1.045   4.810 -2.4245 -0.5981  0.7082
 1445TIP3   OH225825   3.672   2.622  14.761 -1.4177 -0.4821 -0.1109
 1445TIP3    H125826   3.593   2.570  14.777 -0.1629 -2.4513 -0.0715
 1445TIP3    H225827   3.708   2.586  14.680 -0.6183  0.4760 -0.1893
 1446TIP3   OH225828   5.586   5.547  11.970 -0.6351 -0.1334 -0.1572
 1446TIP3    H125829   5.498   5.511  11.962 -0.7651  0.2784 -0.6080
 1446TIP3    H225830   5.610   5.533  12.061 -1.2104 -0.1428 -0.0076
 1447TIP3   OH225831   5.171   6.799  14.350  0.2333  0.4940  0.3823
 1447TIP3    H125832   5.230   6.751  14.408  1.1269  1.8101  0.5825
 1447TIP3    H225833   5.160   6.741  14.274  0.8506 -0.2595  0.8606
 1448TIP3   OH225834   1.916   0.622  13.997 -0.1540  0.2081  0.3212
 1448TIP3    H125835   1.989   0.683  13.983  1.0207 -1.1811  0.1744
 1448TIP3    H225836   1.891   0.595  13.908  0.6438 -0.9836  0.4345
 1449TIP3   OH225837   4.212   0.996  15.248  0.5093  0.0376  0.2899
 1449TIP3    H125838   4.132   0.976  15.297 -0.2872 -1.2722 -1.5170
 1449TIP3    H225839   4.252   1.069  15.297 -0.4321 -0.9850  2.6759
 1450TIP3   OH225840   2.427   5.150   3.287  0.2423 -1.0149 -0.8808
 1450TIP3    H125841   2.350   5.097   3.308  0.1191 -0.2495  0.6715
 1450TIP3    H225842   2.498   5.086   3.281 -0.1310 -1.5037 -0.2169
 1451TIP3   OH225843   1.414   0.104   0.447 -0.6234  0.6547  0.2609
 1451TIP3    H125844   1.416   0.072   0.357 -2.8429  3.7121 -0.9578
 1451TIP3    H225845   1.504   0.130   0.465 -0.1225 -0.1570 -1.0012
 1452TIP3   OH225846   1.289   0.355  12.849  0.0987  0.1544 -0.4246
 1452TIP3    H125847   1.240   0.285  12.805 -0.4643  1.3813 -1.7920
 1452TIP3    H225848   1.244   0.366  12.932  0.9352 -1.9302  0.3343
 1453TIP3   OH225849   2.992   0.763  13.942  0.0760  0.0172  0.5313
 1453TIP3    H125850   2.989   0.762  13.846 -0.1862 -1.4754  0.5313
 1453TIP3    H225851   2.903   0.783  13.970  0.1440  0.4136  0.4645
 1454TIP3   OH225852   2.638   2.912  16.493 -0.3729  0.4462 -0.6632
 1454TIP3    H125853   2.719   2.924  16.443  0.3295 -0.4484  0.2460
 1454TIP3    H225854   2.644   2.823  16.528 -1.2289  0.7724  0.3402
 1455TIP3   OH225855   5.462   1.860   1.636 -0.0189  0.1163  0.0236
 1455TIP3    H125856   5.370   1.837   1.648  0.3130 -0.3254  1.8831
 1455TIP3    H225857   5.508   1.776   1.634  0.6327  0.4009  1.8211
 1456TIP3   OH225858   2.863   5.012   4.630 -0.0691  0.8842 -0.0206
 1456TIP3    H125859   2.850   4.934   4.684 -0.1064  0.3872 -0.7348
 1456TIP3    H225860   2.957   5.030   4.636 -0.1839  1.2343  0.7516
 1457TIP3   OH225861   0.944   3.026  14.015  0.0334 -0.5342 -0.9294
 1457TIP3    H125862   0.984   3.074  13.943 -0.8801  0.6559 -0.6626
 1457TIP3    H225863   0.969   3.074  14.093 -2.0163  0.3367 -0.7743
 1458TIP3   OH225864   2.669   6.570   4.042 -0.2278 -0.5713 -0.3042
 1458TIP3    H125865   2.577   6.552   4.062 -0.6590  1.3652 -0.4536
 1458TIP3    H225866   2.678   6.546   3.950 -0.4423 -1.2476 -0.1543
 1459TIP3   OH225867   6.116   5.598  13.257  0.5258  0.0884 -0.0088
 1459TIP3    H125868   6.166   5.602  13.176  0.8817  2.0197  0.2844
 1459TIP3    H225869   6.179   5.622  13.325 -0.9459  3.4298  0.2742
 1460TIP3   OH225870   1.726   1.242  14.398  0.4256  0.3021 -0.2676
 1460TIP3    H125871   1.765   1.327  14.420 -1.8023  0.7785  2.1041
 1460TIP3    H225872   1.638   1.264  14.366  0.1260 -1.0767 -0.3967
 1461TIP3   OH225873   3.599   1.549   1.697  0.1478  0.1346  0.7457
 1461TIP3    H125874   3.597   1.580   1.607  0.0172  0.1541  0.7550
 1461TIP3    H225875   3.692   1.544   1.719  0.1999 -0.6696  0.3408
 1462TIP3   OH225876   0.389   5.674  12.759  0.1634  0.5390 -0.0725
 1462TIP3    H125877   0.402   5.753  12.812  0.8937  0.0822  0.4312
 1462TIP3    H225878   0.295   5.657  12.764  0.0123  1.3438 -0.1298
 1463TIP3   OH225879   2.675   1.461  14.166 -0.0705 -0.0219  0.6866
 1463TIP3    H125880   2.628   1.433  14.087  0.4763 -1.5975  0.8935
 1463TIP3    H225881   2.612   1.513  14.215 -0.7287  0.1545 -0.3335
 1464TIP3   OH225882   5.651   1.532   2.501 -0.5842  0.4498  0.5655
 1464TIP3    H125883   5.613   1.592   2.437 -0.5101 -0.9410 -0.8273
 1464TIP3    H225884   5.713   1.586   2.551 -1.1588  1.7179 -0.0709
 1465TIP3   OH225885   4.288   0.347  15.573  0.3368  0.3171 -0.3558
 1465TIP3    H125886   4.294   0.372  15.665 -1.1290  3.2014 -0.9796
 1465TIP3    H225887   4.202   0.305  15.565 -0.0617  1.1677 -0.6224
 1466TIP3   OH225888   3.417   0.536  14.888  0.3345 -0.1222 -0.1920
 1466TIP3    H125889   3.338   0.520  14.837  0.0853  0.1197  0.1147
 1466TIP3    H225890   3.420   0.630  14.900  0.7714 -0.1128 -0.3584
 1467TIP3   OH225891   0.446   5.452   1.609 -0.3291 -0.1171 -0.0497
 1467TIP3    H125892   0.429   5.516   1.540 -0.0954 -0.4469 -0.4245
 1467TIP3    H225893   0.436   5.500   1.691  0.2767  0.5083 -0.3339
 1468TIP3   OH225894   4.466   5.888  12.811  0.1751 -0.1047 -0.0863
 1468TIP3    H125895   4.430   5.926  12.730 -0.5099 -0.3655  0.0961
 1468TIP3    H225896   4.525   5.955  12.845  0.3482  0.0690 -0.7234
 1469TIP3   OH225897   3.427   4.378   6.220 -0.4984  0.2041 -0.0965
 1469TIP3    H125898   3.375   4.300   6.238 -1.6949  0.7699 -1.0491
 1469TIP3    H225899   3.380   4.449   6.264 -1.6214  1.0401 -2.5800
 1470TIP3   OH225900   3.506   6.463  14.881 -0.1674  0.1087 -0.3379
 1470TIP3    H125901   3.495   6.524  14.808  0.7053  0.3985 -0.2303
 1470TIP3    H225902   3.549   6.387  14.842 -0.1124  0.0776 -0.2166
 1471TIP3   OH225903   3.977   4.679  13.259 -0.2827  0.2124 -0.3178
 1471TIP3    H125904   3.935   4.708  13.340  1.3686  0.2939  0.5211
 1471TIP3    H225905   3.921   4.607  13.229 -1.7696  1.1841  0.0638
 1472TIP3   OH225906   2.152   6.672   2.985 -0.1944 -0.7617 -0.0924
 1472TIP3    H125907   2.147   6.756   2.939 -0.1992  0.0482  1.3661
 1472TIP3    H225908   2.060   6.649   3.002 -0.2001 -1.1474 -0.6244
 1473TIP3   OH225909   3.757   5.852   2.199  0.1237 -0.3598 -0.9827
 1473TIP3    H125910   3.700   5.812   2.264  0.3392  0.6408 -0.1643
 1473TIP3    H225911   3.701   5.863   2.122 -0.4685 -0.4637 -0.5674
 1474TIP3   OH225912   5.419   5.396   2.537 -0.5610 -0.4215 -0.3303
 1474TIP3    H125913   5.487   5.443   2.584 -0.0684  0.5557 -1.9682
 1474TIP3    H225914   5.436   5.414   2.444 -2.8332 -0.4297 -0.7968
 1475TIP3   OH225915   2.219   1.757  11.397  0.2565  0.8378  0.4455
 1475TIP3    H125916   2.230   1.734  11.490  1.7804  0.2094  0.1297
 1475TIP3    H225917   2.175   1.681  11.359  2.5089 -0.3193  0.0314
 1476TIP3   OH225918   3.651   0.375  13.154 -0.1506 -0.0367  0.1630
 1476TIP3    H125919   3.697   0.297  13.123 -0.7751 -0.2131 -0.3153
 1476TIP3    H225920   3.604   0.346  13.232  0.2178  0.0428  0.4144
 1477TIP3   OH225921   4.034   4.204   5.717  0.1124 -0.2432 -0.0659
 1477TIP3    H125922   4.050   4.112   5.701  0.7662 -0.1235 -0.0926
 1477TIP3    H225923   4.107   4.249   5.674 -0.1334  0.2781  0.0591
 1478TIP3   OH225924   6.765   6.218  11.837  0.0928  0.7167  0.1593
 1478TIP3    H125925   6.821   6.173  11.901 -0.4662  1.4375  1.1638
 1478TIP3    H225926   6.770   6.163  11.759 -0.5046 -1.0605  1.3366
 1479TIP3   OH225927   5.288   1.807   1.234  0.3977  0.5911  0.5029
 1479TIP3    H125928   5.379   1.831   1.218  0.6335  0.6278  1.9020
 1479TIP3    H225929   5.287   1.712   1.231  0.2178  0.6208 -0.8755
 1480TIP3   OH225930   0.909   4.420   6.247  0.0937 -0.5204 -0.1877
 1480TIP3    H125931   0.973   4.356   6.214 -0.9282 -1.4457 -0.4119
 1480TIP3    H225932   0.877   4.381   6.329 -0.6451 -0.3740 -0.4066
 1481TIP3   OH225933   3.700   0.786  14.495  0.2350  0.3971 -0.1602
 1481TIP3    H125934   3.740   0.853  14.439  0.3959  1.2371  0.9597
 1481TIP3    H225935   3.771   0.757  14.552 -0.1781  0.2577  0.2817
 1482TIP3   OH225936   4.451   6.777   4.990  0.4353  0.0620  0.0536
 1482TIP3    H125937   4.540   6.797   5.019  0.2619  0.5071  0.2817
 1482TIP3    H225938   4.448   6.808   4.899 -0.5749  3.3688  1.1461
 1483TIP3   OH225939   4.905   3.867   1.256  0.5183  0.0400 -0.4676
 1483TIP3    H125940   4.911   3.902   1.167  0.7506 -0.7232 -0.7520
 1483TIP3    H225941   4.981   3.904   1.301 -0.0004  1.0184 -0.3705
 1484TIP3   OH225942   4.346   0.304   5.689 -0.3115 -0.3701 -0.3392
 1484TIP3    H125943   4.258   0.314   5.725 -0.2017 -0.9314  0.0878
 1484TIP3    H225944   4.378   0.394   5.678 -0.4063 -0.1887  0.8243
 1485TIP3   OH225945   0.083   5.129   3.399 -0.0575 -0.8276 -0.3772
 1485TIP3    H125946   0.049   5.193   3.337 -0.6150  0.2372  1.0046
 1485TIP3    H225947   0.159   5.091   3.355  0.1554  0.6228 -1.2862
 1486TIP3   OH225948   1.392   1.165  14.656  0.0017 -0.1694  0.5610
 1486TIP3    H125949   1.434   1.244  14.692  1.2769 -0.2008 -0.7925
 1486TIP3    H225950   1.464   1.116  14.617 -0.9287 -1.5663  0.5783
 1487TIP3   OH225951   0.324   6.600   3.180  0.1144  0.3569  0.3445
 1487TIP3    H125952   0.334   6.646   3.263 -0.8843 -0.7842  1.1025
 1487TIP3    H225953   0.398   6.540   3.177 -0.6060 -0.5706  1.0468
 1488TIP3   OH225954   1.798   1.991   2.044  0.0104 -0.2550 -0.2563
 1488TIP3    H125955   1.755   1.928   2.102  0.1063 -0.6135 -0.5662
 1488TIP3    H225956   1.779   1.958   1.956 -0.1136  0.2688 -0.4238
 1489TIP3   OH225957   0.136   5.553   3.326  0.1041 -0.0640  0.7985
 1489TIP3    H125958   0.111   5.569   3.417  0.4354 -0.2905  0.9282
 1489TIP3    H225959   0.177   5.634   3.297 -0.2243  0.0951  0.7726
 1490TIP3   OH225960   3.747   5.717   3.717 -0.2114  0.2653 -0.1951
 1490TIP3    H125961   3.834   5.755   3.705  0.1532 -0.1619  1.0539
 1490TIP3    H225962   3.750   5.635   3.668  0.7774 -0.7441  1.5239
 1491TIP3   OH225963   2.012   6.724  14.677  0.3019  0.0399 -0.1874
 1491TIP3    H125964   2.097   6.709  14.719  1.3740 -1.8571 -2.8845
 1491TIP3    H225965   1.999   6.818  14.682  0.5511 -0.0367  3.9795
 1492TIP3   OH225966   2.581   2.522   3.680 -0.1331 -0.6341 -0.3643
 1492TIP3    H125967   2.493   2.512   3.644 -0.7353 -0.5562  1.0682
 1492TIP3    H225968   2.625   2.440   3.659 -0.5063 -0.6419 -1.1498
 1493TIP3   OH225969   0.336   0.704   3.294  0.4899  0.4227 -0.0228
 1493TIP3    H125970   0.380   0.635   3.245 -0.3864 -0.1009 -0.0867
 1493TIP3    H225971   0.348   0.679   3.386 -0.4729 -0.2226 -0.0687
 1494TIP3   OH225972   2.295   4.996  14.277  0.5555 -0.1225  0.1954
 1494TIP3    H125973   2.377   4.956  14.306 -0.6249 -2.1040  0.9167
 1494TIP3    H225974   2.271   5.055  14.348  1.1149  0.1079  0.1965
 1495TIP3   OH225975   4.107   1.165  16.338  0.0471  0.0588 -0.0110
 1495TIP3    H125976   4.186   1.160  16.391  0.3063  1.1920 -0.2878
 1495TIP3    H225977   4.082   1.257  16.340 -0.1578  0.0459 -1.5575
 1496TIP3   OH225978   6.624   4.613  15.559  0.0214  0.4546 -0.5427
 1496TIP3    H125979   6.537   4.599  15.522 -0.1615  0.1312 -0.0038
 1496TIP3    H225980   6.662   4.682  15.505 -0.8637  1.1347 -0.3203
 1497TIP3   OH225981   4.845   2.070  15.360 -0.0076 -0.4127  0.1985
 1497TIP3    H125982   4.936   2.041  15.362 -0.3536 -1.6248 -1.1049
 1497TIP3    H225983   4.822   2.071  15.267 -0.9414  1.1081  0.4317
 1498TIP3   OH225984   5.735   0.344  11.357 -0.0834 -0.1724 -0.4042
 1498TIP3    H125985   5.727   0.354  11.452  0.6959  1.7248 -0.5262
 1498TIP3    H225986   5.671   0.406  11.321 -0.8152 -1.3289 -1.1235
 1499TIP3   OH225987   5.574   0.134   0.878  0.1955 -0.3475 -0.3005
 1499TIP3    H125988   5.514   0.089   0.819 -1.6941  0.4656  0.9476
 1499TIP3    H225989   5.597   0.215   0.833  0.5703 -0.7941 -0.9084
 1500TIP3   OH225990   0.222   1.884   5.790 -0.3201 -0.8432  0.9653
 1500TIP3    H125991   0.166   1.832   5.847 -1.6816 -0.0260  0.4062
 1500TIP3    H225992   0.228   1.835   5.709  0.4332 -1.3073  1.2941
 1501TIP3   OH225993   1.716   1.261  12.267 -0.0173  0.0162 -0.3860
 1501TIP3    H125994   1.748   1.272  12.177  2.7672  0.9192  0.6651
 1501TIP3    H225995   1.665   1.341  12.284  1.7934  1.1875 -0.2602
 1502TIP3   OH225996   5.359   0.082   2.863 -0.1745  0.3364  0.1330
 1502TIP3    H125997   5.288   0.019   2.850 -0.5588  0.8688 -0.3845
 1502TIP3    H225998   5.436   0.041   2.823  0.1786 -0.9190  2.0613
 1503TIP3   OH225999   1.885   4.270   4.592 -0.8966  0.4567  0.4172
 1503TIP3    H126000   1.850   4.295   4.677  1.1694 -0.3063  1.5411
 1503TIP3    H226001   1.935   4.189   4.609  0.4164  0.8629 -1.2911
 1504TIP3   OH226002   2.662   6.523   0.888 -0.2014  0.5179  0.1627
 1504TIP3    H126003   2.679   6.577   0.811 -1.1419  1.6630  0.7389
 1504TIP3    H226004   2.670   6.433   0.857  2.5707  0.9604 -0.5542
 1505TIP3   OH226005   6.109   0.370   3.547  0.9813 -0.0559 -0.3358
 1505TIP3    H126006   6.153   0.313   3.610 -0.5329 -0.7071  0.1456
 1505TIP3    H226007   6.028   0.324   3.524 -0.3393  1.9512  0.1586
 1506TIP3   OH226008   3.562   5.826  13.321  0.0444 -0.2824  0.4607
 1506TIP3    H126009   3.503   5.846  13.248  0.1227 -0.4653  0.3485
 1506TIP3    H226010   3.612   5.750  13.292  3.0005  2.1112 -0.9499
 1507TIP3   OH226011   0.669   2.145  10.363  0.2777 -0.4169 -0.2899
 1507TIP3    H126012   0.737   2.078  10.363  1.9145  1.1916 -1.5001
 1507TIP3    H226013   0.643   2.152  10.455  1.2872 -1.5262  0.0936
 1508TIP3   OH226014   0.187   5.757  13.923 -0.0636  0.1061 -0.8066
 1508TIP3    H126015   0.137   5.796  13.851 -0.6842  0.4168 -0.2162
 1508TIP3    H226016   0.276   5.751  13.889 -0.5090 -0.5104 -1.8928
 1509TIP3   OH226017   2.909   2.745  13.406 -0.3051 -0.1133  0.0181
 1509TIP3    H126018   2.993   2.742  13.360  1.8311 -3.6034  3.8650
 1509TIP3    H226019   2.924   2.802  13.481 -1.3957 -0.7322  0.7229
 1510TIP3   OH226020   2.067   3.307  12.933  0.1074  0.2840 -0.4683
 1510TIP3    H126021   2.150   3.265  12.955 -0.2464 -0.0500  0.2355
 1510TIP3    H226022   2.088   3.365  12.860  0.8878 -0.0576 -0.5137
 1511TIP3   OH226023   3.121   6.697   1.134 -0.3975  0.0854 -0.4785
 1511TIP3    H126024   3.061   6.661   1.068  2.1655 -2.3158 -1.5879
 1511TIP3    H226025   3.184   6.749   1.084  1.7644 -2.0125 -0.0422
 1512TIP3   OH226026   0.813   5.466  11.754  0.0397 -0.7039 -0.0043
 1512TIP3    H126027   0.809   5.374  11.783  0.0949 -0.5235  0.5882
 1512TIP3    H226028   0.738   5.507  11.795 -0.7582 -0.7764 -1.3642
 1513TIP3   OH226029   2.710   6.262  12.518  1.0351  0.2685  0.6577
 1513TIP3    H126030   2.747   6.181  12.484  0.7048  0.6282 -0.5610
 1513TIP3    H226031   2.770   6.330  12.490  0.0593  0.7245 -0.3713
 1514TIP3   OH226032   1.374   4.610   2.358 -0.1164 -0.4603 -0.2376
 1514TIP3    H126033   1.291   4.562   2.366 -0.7940  0.8436  0.8522
 1514TIP3    H226034   1.403   4.622   2.448 -0.6818  2.3629 -0.3823
 1515TIP3   OH226035   5.955   5.815  14.045 -0.2290  0.8132  0.3025
 1515TIP3    H126036   5.897   5.878  14.089 -0.6515  1.5805 -1.3104
 1515TIP3    H226037   6.019   5.869  14.000  0.7116  0.0083  0.6688
 1516TIP3   OH226038   5.709   5.307   1.505 -0.2181  0.4579 -0.0765
 1516TIP3    H126039   5.636   5.273   1.557  0.2537  0.6731  0.7273
 1516TIP3    H226040   5.787   5.270   1.545  0.2377  1.6623  0.1753
 1517TIP3   OH226041   4.540   2.147   1.269 -0.4544  0.4049 -0.9210
 1517TIP3    H126042   4.505   2.223   1.315  0.4808  0.4793 -0.3169
 1517TIP3    H226043   4.492   2.072   1.306  0.5468  0.4245  0.4498
 1518TIP3   OH226044   6.557   3.755   5.104  0.0456  0.0556  0.1502
 1518TIP3    H126045   6.589   3.682   5.052  1.2595 -1.2633  2.6290
 1518TIP3    H226046   6.636   3.802   5.130 -0.7774  2.7609 -2.0815
 1519TIP3   OH226047   5.398   6.365  16.831 -0.4566 -0.8409  0.2583
 1519TIP3    H126048   5.448   6.293  16.869  0.8069 -0.5223 -0.7757
 1519TIP3    H226049   5.413   6.357  16.736  0.8000  1.5647  0.2148
 1520TIP3   OH226050   4.282   3.722  16.127 -0.0716  0.4451 -0.3752
 1520TIP3    H126051   4.292   3.635  16.090  1.8545  0.6661 -0.4071
 1520TIP3    H226052   4.363   3.768  16.105  0.2866  1.2143  2.3473
 1521TIP3   OH226053   4.489   1.280  12.046  0.6998 -0.7600 -1.2108
 1521TIP3    H126054   4.402   1.307  12.020 -0.5351 -1.6280  1.7534
 1521TIP3    H226055   4.538   1.362  12.057 -0.1420 -0.2036 -1.6190
 1522TIP3   OH226056   2.609   1.720  16.602 -0.3157  0.0751 -0.4651
 1522TIP3    H126057   2.700   1.701  16.625 -0.1313 -0.0521 -1.3002
 1522TIP3    H226058   2.558   1.657  16.653 -0.1170  1.9129  2.1181
 1523TIP3   OH226059   5.277   0.015   5.787  0.0791  0.1709  0.0701
 1523TIP3    H126060   5.190  -0.015   5.812  0.1196  0.7712  0.9770
 1523TIP3    H226061   5.277   0.109   5.808  1.2236 -0.0034  0.8747
 1524TIP3   OH226062   2.256   2.064   5.987  0.1512 -0.3388  0.3952
 1524TIP3    H126063   2.238   1.971   5.999 -0.6823 -0.1447  0.7158
 1524TIP3    H226064   2.275   2.073   5.893  2.2447 -1.1375  0.7272
 1525TIP3   OH226065   6.558   2.338   3.399  0.0970 -0.4741 -0.1102
 1525TIP3    H126066   6.534   2.430   3.410 -2.3033 -1.1175  0.3592
 1525TIP3    H226067   6.623   2.322   3.468 -0.0293  0.6823  0.2840
 1526TIP3   OH226068   0.253   0.941   5.820  0.4431 -0.4599  0.0831
 1526TIP3    H126069   0.229   1.033   5.812  2.6096  0.0603 -0.6880
 1526TIP3    H226070   0.233   0.919   5.911 -1.5820  0.3068 -0.1532
 1527TIP3   OH226071   3.979   0.967   5.046  0.2887  0.3854  0.1651
 1527TIP3    H126072   3.898   1.013   5.068 -0.3308 -0.7234  0.2434
 1527TIP3    H226073   3.951   0.878   5.022  1.6500 -0.6920  2.3300
 1528TIP3   OH226074   4.318   6.388   5.880 -0.6383 -0.8139 -0.2727
 1528TIP3    H126075   4.223   6.384   5.874 -0.6022 -1.2436 -0.6217
 1528TIP3    H226076   4.335   6.429   5.965 -1.1398  0.1078 -0.6104
 1529TIP3   OH226077   5.128   0.812   3.236 -0.7517 -0.3366 -0.2550
 1529TIP3    H126078   5.054   0.768   3.195 -0.2671 -1.6917  0.3164
 1529TIP3    H226079   5.177   0.850   3.163 -1.6838  0.0683 -0.6753
 1530TIP3   OH226080   5.220   2.234  16.677 -0.4100  0.4069 -0.6536
 1530TIP3    H126081   5.301   2.207  16.719 -0.7457 -0.6774 -0.6908
 1530TIP3    H226082   5.229   2.329  16.667  0.3207  0.4653  0.4694
 1531TIP3   OH226083   2.219   2.104   1.991  0.5765 -0.0847 -0.8947
 1531TIP3    H126084   2.249   2.069   1.908  1.6580  0.3707 -0.7050
 1531TIP3    H226085   2.279   2.176   2.010 -0.8064  1.0378 -0.6420
 1532TIP3   OH226086   1.436   0.389  10.948 -0.2536 -0.7695 -0.2994
 1532TIP3    H126087   1.370   0.414  10.883 -1.7950 -1.9756  0.7783
 1532TIP3    H226088   1.439   0.294  10.943  1.2115 -0.7418 -0.1228
 1533TIP3   OH226089   3.182   4.606  16.246  0.0697  0.2311 -0.2987
 1533TIP3    H126090   3.128   4.626  16.323  1.5789  1.2613  0.5318
 1533TIP3    H226091   3.232   4.528  16.272  0.2124  0.2882 -0.4007
 1534TIP3   OH226092   6.106   1.278  16.570 -0.3682 -0.3390 -0.1623
 1534TIP3    H126093   6.070   1.254  16.485 -1.2743 -0.1636  0.1639
 1534TIP3    H226094   6.068   1.213  16.630 -0.2007 -0.1011  0.1982
 1535TIP3   OH226095   3.158   3.371   3.763  0.0407 -0.5001 -0.3295
 1535TIP3    H126096   3.248   3.340   3.756 -0.2652 -0.8457 -3.5365
 1535TIP3    H226097   3.160   3.434   3.836  3.4074  1.2550 -1.8226
 1536TIP3   OH226098   3.502   1.644  11.795 -0.3962  0.2839 -0.0129
 1536TIP3    H126099   3.461   1.692  11.867  0.0889  0.6588  0.0148
 1536TIP3    H226100   3.590   1.681  11.788  0.1989 -1.0114  0.4102
 1537TIP3   OH226101   1.428   3.931   3.553 -0.5305 -0.0502  0.0283
 1537TIP3    H126102   1.481   3.869   3.503 -0.0356  0.8923 -0.6357
 1537TIP3    H226103   1.435   4.013   3.505  0.0710  0.9167  1.7196
 1538TIP3   OH226104   4.800   6.411  14.711  0.7172 -0.5930 -0.2436
 1538TIP3    H126105   4.774   6.469  14.640  2.5133 -2.7555 -2.7360
 1538TIP3    H226106   4.842   6.469  14.775 -3.0484  1.7424  0.2869
 1539TIP3   OH226107   6.288   2.437  16.118  0.2449 -0.2121  0.4864
 1539TIP3    H126108   6.216   2.438  16.055  0.5360  1.2376  0.1398
 1539TIP3    H226109   6.265   2.369  16.181 -2.0071  0.9850  1.0367
 1540TIP3   OH226110   6.507   5.789   0.852  0.2775 -0.0528 -1.0665
 1540TIP3    H126111   6.444   5.730   0.893  0.0699 -0.9571 -2.6666
 1540TIP3    H226112   6.534   5.744   0.772  1.0283  1.4777 -1.6945
 1541TIP3   OH226113   4.645   1.856   2.329  0.1956  0.1976 -0.1744
 1541TIP3    H126114   4.689   1.941   2.325 -2.6147  1.7977  1.4434
 1541TIP3    H226115   4.589   1.855   2.251 -2.1909  1.2737  1.4741
 1542TIP3   OH226116   5.342   4.377   4.565  0.3054 -0.1315 -0.1158
 1542TIP3    H126117   5.383   4.357   4.481 -0.3210  1.0097 -0.7106
 1542TIP3    H226118   5.405   4.436   4.608  0.2821 -0.1203 -0.0975
 1543TIP3   OH226119   2.171   3.934   1.160 -0.1216 -0.7366 -0.0085
 1543TIP3    H126120   2.154   3.868   1.228  0.7369  0.1623  1.0924
 1543TIP3    H226121   2.191   4.014   1.209 -2.2801  0.6506 -1.3423
 1544TIP3   OH226122   0.906   1.757   1.177  0.1141 -0.0394 -0.0083
 1544TIP3    H126123   0.834   1.696   1.194 -0.3109 -0.0377 -1.6334
 1544TIP3    H226124   0.873   1.842   1.203  0.9664 -0.5805  2.9482
 1545TIP3   OH226125   4.093   0.113  14.978 -0.1875 -0.1397  0.1907
 1545TIP3    H126126   4.061   0.080  15.062  1.5824  0.5843  1.1708
 1545TIP3    H226127   4.015   0.148  14.935 -1.1283 -0.6176  1.4750
 1546TIP3   OH226128   2.652   0.055   0.822  0.8527 -0.2309 -0.4445
 1546TIP3    H126129   2.730   0.006   0.848  1.0535 -0.4230 -1.3762
 1546TIP3    H226130   2.683   0.112   0.751 -0.3863 -2.1417 -2.5760
 1547TIP3   OH226131   1.788   5.970  12.005  0.0100  0.3164  0.2634
 1547TIP3    H126132   1.823   5.881  12.007  0.9536  0.6992  1.4053
 1547TIP3    H226133   1.859   6.023  11.969  1.0102  1.2397  3.4032
 1548TIP3   OH226134   1.230   1.843   3.632 -0.6335 -0.2082  0.2583
 1548TIP3    H126135   1.252   1.933   3.654 -1.5066  0.6038 -2.0362
 1548TIP3    H226136   1.300   1.790   3.671 -0.4505  1.3907  2.1477
 1549TIP3   OH226137   2.626   0.357  11.316 -0.3967 -0.1190 -0.1214
 1549TIP3    H126138   2.572   0.287  11.281  0.3153 -1.1128  0.7414
 1549TIP3    H226139   2.567   0.432  11.324 -1.6033 -1.1450  0.6363
 1550TIP3   OH226140   0.117   0.559   4.383 -0.4985  1.0892 -0.2034
 1550TIP3    H126141   0.081   0.641   4.418 -0.0900  1.5162 -0.7619
 1550TIP3    H226142   0.206   0.556   4.419 -0.2462  1.2846 -0.8026
 1551TIP3   OH226143   3.059   4.260   5.050 -0.4686 -0.5091 -0.5588
 1551TIP3    H126144   3.128   4.198   5.028 -0.3396 -0.6019  0.0994
 1551TIP3    H226145   2.983   4.206   5.070 -0.7571 -0.4056 -1.3405
 1552TIP3   OH226146   0.103   1.536   1.137 -0.2032  0.3504  0.4437
 1552TIP3    H126147   0.071   1.550   1.048 -0.1508 -1.3302  0.1371
 1552TIP3    H226148   0.193   1.503   1.126 -1.3817 -3.2763  0.9226
 1553TIP3   OH226149   4.270   5.568   3.756  0.0190 -0.5309 -0.1364
 1553TIP3    H126150   4.285   5.527   3.671  0.8758  1.3723 -0.9388
 1553TIP3    H226151   4.337   5.636   3.762 -0.7304  0.0992  1.5874
 1554TIP3   OH226152   0.951   0.345   3.018 -0.6124 -0.2979  0.1128
 1554TIP3    H126153   1.020   0.324   3.081 -2.1991 -0.8905  1.6923
 1554TIP3    H226154   0.898   0.412   3.062 -3.0253 -2.3028  0.3461
 1555TIP3   OH226155   3.158   1.183   2.908  0.2518 -0.2465 -0.2742
 1555TIP3    H126156   3.092   1.191   2.977 -2.4472  2.0321 -2.9694
 1555TIP3    H226157   3.174   1.089   2.901 -0.7287 -0.6400  2.2274
 1556TIP3   OH226158   5.322   3.432   1.399  0.5767  0.6223  0.1040
 1556TIP3    H126159   5.372   3.372   1.344  0.8580  0.9670 -0.0154
 1556TIP3    H226160   5.231   3.405   1.387  0.4374  1.9475 -2.0729
 1557TIP3   OH226161   4.843   3.918   4.988 -0.0844  0.1977 -0.1505
 1557TIP3    H126162   4.841   3.999   5.038  2.3277 -0.5650  1.2789
 1557TIP3    H226163   4.922   3.926   4.933 -0.2405 -0.8506 -0.5333
 1558TIP3   OH226164   2.152   2.813   6.290 -0.4182 -0.1122 -0.3041
 1558TIP3    H126165   2.207   2.842   6.363  2.1072 -0.8255 -1.8690
 1558TIP3    H226166   2.083   2.879   6.285  1.7975  2.3085  0.0355
 1559TIP3   OH226167   0.214   5.708  15.566 -0.0590  0.4550 -0.2546
 1559TIP3    H126168   0.271   5.712  15.643  1.0684 -0.9771 -1.0123
 1559TIP3    H226169   0.237   5.786  15.515  0.4816  0.4319 -0.0461
 1560TIP3   OH226170   0.017   5.683  16.146 -0.3847 -0.7049 -0.1341
 1560TIP3    H126171   0.082   5.748  16.174 -2.2840  0.3225  2.0028
 1560TIP3    H226172   0.053   5.600  16.176 -0.4092 -0.0643  1.7040
 1561TIP3   OH226173   6.618   1.398  12.583 -0.2848 -0.0985 -0.2867
 1561TIP3    H126174   6.667   1.459  12.527  0.5077 -1.0012 -0.5871
 1561TIP3    H226175   6.642   1.423  12.672 -1.0551  0.9333 -0.3639
 1562TIP3   OH226176   5.468   5.408  15.501  0.4561 -0.1357  0.0237
 1562TIP3    H126177   5.432   5.479  15.447 -0.9495 -0.2694  0.7508
 1562TIP3    H226178   5.556   5.438  15.524 -0.5569  1.9777  1.3476
 1563TIP3   OH226179   1.168   4.678   0.367 -0.0976  0.2637 -0.1897
 1563TIP3    H126180   1.151   4.631   0.448 -1.3083  0.7548 -0.1579
 1563TIP3    H226181   1.178   4.609   0.300 -0.2551 -0.0900  0.1528
 1564TIP3   OH226182   2.560   5.797   1.751 -0.4950  0.6990 -0.1406
 1564TIP3    H126183   2.539   5.765   1.839  2.3372 -2.8907 -0.6472
 1564TIP3    H226184   2.622   5.869   1.765 -0.6965  0.6868  0.8133
 1565TIP3   OH226185   5.861   0.206  12.053 -0.0346  0.3201  0.0632
 1565TIP3    H126186   5.942   0.253  12.036  0.9675 -1.2822  0.3747
 1565TIP3    H226187   5.808   0.269  12.103  0.8544  1.4968 -0.4383
 1566TIP3   OH226188   4.788   6.576  11.126  0.6124  0.6857 -0.0614
 1566TIP3    H126189   4.793   6.586  11.031  0.1867 -0.6608 -0.2349
 1566TIP3    H226190   4.853   6.637  11.160  1.4533  0.4794 -1.2597
 1567TIP3   OH226191   4.998   3.887   4.180  0.0861 -0.7781 -0.3048
 1567TIP3    H126192   4.923   3.893   4.239 -0.4256 -0.2788 -0.9997
 1567TIP3    H226193   4.975   3.943   4.106  2.6858  2.3529  1.1384
 1568TIP3   OH226194   6.440   4.115  15.838  0.0993  0.3329 -0.3721
 1568TIP3    H126195   6.421   4.171  15.763 -0.4450 -0.2457 -0.6735
 1568TIP3    H226196   6.376   4.044  15.831  1.2752 -0.7486 -0.4471
 1569TIP3   OH226197   4.038   3.067  13.341 -0.2573  0.4787 -0.5110
 1569TIP3    H126198   4.076   3.033  13.260  1.5136  0.1662  0.4189
 1569TIP3    H226199   4.039   2.992  13.401 -1.0341  0.8523 -0.0194
 1570TIP3   OH226200   5.566   2.963   3.724 -0.5291 -0.1548  0.5339
 1570TIP3    H126201   5.661   2.957   3.713 -0.5394  0.2681  0.2019
 1570TIP3    H226202   5.533   2.878   3.694 -0.3549  0.1488 -0.5392
 1571TIP3   OH226203   5.145   1.783  10.615 -0.2664 -0.0573 -0.1679
 1571TIP3    H126204   5.182   1.871  10.627  1.0924 -0.7355  0.7556
 1571TIP3    H226205   5.126   1.753  10.703  0.6545 -1.2658 -0.3671
 1572TIP3   OH226206   5.629   2.943   2.811  0.2640  0.3037 -0.3515
 1572TIP3    H126207   5.602   2.957   2.901  0.9246 -0.5739 -0.0137
 1572TIP3    H226208   5.554   2.970   2.758  0.0092  1.1586  0.4409
 1573TIP3   OH226209   1.063   5.627  14.142  0.8307 -0.0605 -0.4876
 1573TIP3    H126210   1.115   5.678  14.079  0.2847  0.6750 -0.3471
 1573TIP3    H226211   1.080   5.536  14.118  0.9252  0.2036 -1.4600
 1574TIP3   OH226212   4.061   4.842  15.453  0.3016 -0.0624 -0.5953
 1574TIP3    H126213   4.112   4.874  15.528 -0.2485 -1.2292  0.2929
 1574TIP3    H226214   4.012   4.919  15.423 -1.6466 -0.1887  2.0458
 1575TIP3   OH226215   0.834   0.501  15.412 -0.7635 -0.0049 -0.4330
 1575TIP3    H126216   0.781   0.472  15.338 -1.5570  0.8325 -0.1942
 1575TIP3    H226217   0.870   0.585  15.385  0.3710 -0.5225 -0.5526
 1576TIP3   OH226218   6.357   1.295   0.994  0.2061  0.6257  0.3958
 1576TIP3    H126219   6.365   1.347   1.074  0.7357  0.0963  0.6901
 1576TIP3    H226220   6.369   1.358   0.923 -1.1284  1.2592  0.7107
 1577TIP3   OH226221   4.045   2.254   4.853  0.0047 -0.4228  0.3511
 1577TIP3    H126222   3.967   2.308   4.852 -0.3244 -0.8826 -2.0166
 1577TIP3    H226223   4.046   2.215   4.940 -1.9951  0.1631  0.6638
 1578TIP3   OH226224   4.178   5.482  13.748  0.0932 -0.4334  0.1984
 1578TIP3    H126225   4.110   5.417  13.731  0.6386 -1.6474  2.3638
 1578TIP3    H226226   4.200   5.469  13.841  2.3262  0.8310 -0.1188
 1579TIP3   OH226227   3.369   2.056  16.833 -0.4493  0.4239 -0.5868
 1579TIP3    H126228   3.336   2.137  16.872  1.0980  1.6932 -1.8048
 1579TIP3    H226229   3.356   2.068  16.739  0.9051 -0.2016 -0.8664
 1580TIP3   OH226230   1.508   1.668   5.395  0.0858 -0.3896  0.0948
 1580TIP3    H126231   1.526   1.602   5.463  0.8646 -0.4262 -0.1441
 1580TIP3    H226232   1.419   1.697   5.413 -0.1957 -1.3782  0.3203
 1581TIP3   OH226233   0.784   2.821   5.205  0.3472 -0.7147 -0.5656
 1581TIP3    H126234   0.863   2.870   5.182 -0.0105  1.7201  2.9404
 1581TIP3    H226235   0.715   2.860   5.151  0.7519  0.2136 -0.4210
 1582TIP3   OH226236   2.757   5.361  12.552  0.3601  0.0598 -0.2240
 1582TIP3    H126237   2.740   5.393  12.464 -1.6886  0.9465  0.4507
 1582TIP3    H226238   2.790   5.438  12.599 -0.8490  0.2223  0.3859
 1583TIP3   OH226239   1.578   2.546   6.694 -0.0906 -0.3425  0.4766
 1583TIP3    H126240   1.625   2.535   6.611 -0.8767  1.1735 -0.1828
 1583TIP3    H226241   1.595   2.464   6.742  2.4564 -0.2130 -0.1125
 1584TIP3   OH226242   6.466   0.321   3.362  0.4513 -0.5000  0.2180
 1584TIP3    H126243   6.460   0.239   3.411  1.1845 -0.8189 -0.2081
 1584TIP3    H226244   6.430   0.300   3.275 -1.4517  0.2373  0.8154
 1585TIP3   OH226245   2.422   2.847   5.383  0.0089  0.3028 -0.6963
 1585TIP3    H126246   2.390   2.765   5.345 -0.1542 -1.4314  2.9435
 1585TIP3    H226247   2.516   2.846   5.367  0.1174 -0.9951 -0.0668
 1586TIP3   OH226248   6.713   5.575  16.392 -0.0011  0.1959 -0.3308
 1586TIP3    H126249   6.775   5.617  16.452 -1.0847  1.0435  0.2216
 1586TIP3    H226250   6.746   5.596  16.305  2.4537 -2.3452 -0.0606
 1587TIP3   OH226251   2.699   5.092  12.451 -0.1399 -0.2319 -0.7483
 1587TIP3    H126252   2.635   5.119  12.385 -0.8459 -0.4827 -0.1805
 1587TIP3    H226253   2.754   5.169  12.466 -1.0865  0.3764 -0.3536
 1588TIP3   OH226254   5.896   2.760  12.950  0.1554 -0.0552  0.3768
 1588TIP3    H126255   5.815   2.759  12.900  0.9656 -1.3582 -0.9628
 1588TIP3    H226256   5.939   2.842  12.925 -0.6312  0.5175  0.8981
 1589TIP3   OH226257   6.106   3.851  16.941 -0.5530 -0.3122  0.7794
 1589TIP3    H126258   6.167   3.919  16.914  0.3223 -0.9911  0.9956
 1589TIP3    H226259   6.127   3.836  17.034  0.7996 -2.4169  0.1828
 1590TIP3   OH226260   1.627   2.883  11.156  0.4352  0.1478 -0.3445
 1590TIP3    H126261   1.664   2.797  11.133  1.2300  0.8895 -1.9061
 1590TIP3    H226262   1.702   2.942  11.156 -0.0083  0.7126  1.4434
 1591TIP3   OH226263   1.726   3.582   0.653 -0.2547 -0.3021 -0.6418
 1591TIP3    H126264   1.742   3.672   0.625 -1.9362  0.3746  0.4421
 1591TIP3    H226265   1.707   3.589   0.746 -0.1996 -1.8144 -0.5020
 1592TIP3   OH226266   6.222   2.164   6.619  0.1305 -0.0504  0.0490
 1592TIP3    H126267   6.306   2.185   6.578 -1.0905  1.8101 -1.6296
 1592TIP3    H226268   6.244   2.109   6.694  2.9431  1.4819  0.3990
 1593TIP3   OH226269   1.325   0.346   0.143  0.3572  0.4363  0.0808
 1593TIP3    H126270   1.417   0.356   0.170  0.3006  2.7395 -0.4628
 1593TIP3    H226271   1.279   0.413   0.194 -1.0810 -0.9272  0.5881
 1594TIP3   OH226272   4.660   0.046   4.392 -0.1287  0.0080  0.0386
 1594TIP3    H126273   4.709   0.087   4.320 -0.0943 -0.8938 -0.4706
 1594TIP3    H226274   4.710  -0.032   4.413  0.0977  0.5000  1.3624
 1595TIP3   OH226275   4.361   6.457   0.805  0.2293  0.1192 -0.0462
 1595TIP3    H126276   4.393   6.529   0.750 -1.1145  0.4801 -0.3987
 1595TIP3    H226277   4.368   6.380   0.748 -1.5911  0.5683 -0.9278
 1596TIP3   OH226278   5.062   4.399  16.149 -0.0229 -0.2913  0.5403
 1596TIP3    H126279   5.095   4.486  16.127 -0.6631 -0.0861  0.3886
 1596TIP3    H226280   5.137   4.354  16.188  0.2800  0.3616  0.7144
 1597TIP3   OH226281   4.822   2.009  13.867 -0.7400  0.0634  0.7250
 1597TIP3    H126282   4.816   1.930  13.920 -0.1323 -0.3166  0.2311
 1597TIP3    H226283   4.809   2.081  13.929  1.9676 -0.2778  1.7735
 1598TIP3   OH226284   2.208   4.691  15.820  0.3245  0.7216  0.0351
 1598TIP3    H126285   2.130   4.723  15.866  0.0935 -0.3101  0.3792
 1598TIP3    H226286   2.189   4.708  15.727  0.4433  2.0560  0.2358
 1599TIP3   OH226287   0.055   6.129  13.769  0.1002 -0.1569 -0.0712
 1599TIP3    H126288   0.134   6.166  13.731 -0.5200  0.8015 -0.4423
 1599TIP3    H226289  -0.012   6.197  13.759 -0.1434  0.0625  2.4966
 1600TIP3   OH226290   5.375   0.851   5.670  0.0149 -0.5796  0.4532
 1600TIP3    H126291   5.399   0.861   5.762 -0.6253 -0.8154  0.6492
 1600TIP3    H226292   5.388   0.758   5.652  1.9327 -0.2024 -0.2157
 1601TIP3   OH226293   2.461   0.234   6.359  0.3629 -0.1012 -0.3085
 1601TIP3    H126294   2.505   0.256   6.441 -0.8224  0.1107  0.2716
 1601TIP3    H226295   2.494   0.299   6.296  0.3232  0.5041  0.2969
 1602TIP3   OH226296   4.684   2.607  10.740 -0.7274  0.0127 -0.0204
 1602TIP3    H126297   4.629   2.683  10.760 -0.1291  0.4355  0.0510
 1602TIP3    H226298   4.704   2.616  10.647  0.1326  0.4794  0.1981
 1603TIP3   OH226299   3.455   6.077   2.431  0.1439  0.4598  0.0160
 1603TIP3    H126300   3.448   5.987   2.399 -1.6920  0.8847 -0.8465
 1603TIP3    H226301   3.495   6.125   2.358  2.1727  0.1467  0.8937
 1604TIP3   OH226302   3.016   5.771  14.910 -0.4964  0.2216 -0.0005
 1604TIP3    H126303   2.954   5.700  14.931 -0.0674  0.2610  1.4450
 1604TIP3    H226304   3.053   5.746  14.826  0.4861 -1.8744  1.0099
 1605TIP3   OH226305   6.379   0.232   4.625  0.9689 -0.0051 -0.1074
 1605TIP3    H126306   6.455   0.238   4.682  0.8798 -1.7373  0.2058
 1605TIP3    H226307   6.310   0.196   4.680 -0.0789  1.4957 -0.4076
 1606TIP3   OH226308   4.756   6.699  15.105 -0.1328  0.1298  0.2785
 1606TIP3    H126309   4.729   6.623  15.157 -0.8757 -1.0426 -1.7614
 1606TIP3    H226310   4.686   6.763  15.117  0.9334  0.8971  2.7394
 1607TIP3   OH226311   5.916   2.442  15.089 -0.1024 -0.0978  0.1531
 1607TIP3    H126312   5.940   2.429  15.180 -1.8752 -2.1452  0.3811
 1607TIP3    H226313   5.959   2.371  15.042  1.6753  1.5603 -0.8010
 1608TIP3   OH226314   0.682   3.771   4.054 -0.1079  0.2528 -0.1957
 1608TIP3    H126315   0.655   3.700   4.113  0.9806 -0.0969 -0.1028
 1608TIP3    H226316   0.617   3.770   3.984 -0.0710 -0.8848 -0.2265
 1609TIP3   OH226317   5.391   3.392  15.696  0.0885 -0.2214  0.2723
 1609TIP3    H126318   5.398   3.322  15.631 -2.3008  0.4861 -0.7820
 1609TIP3    H226319   5.321   3.448  15.664 -0.7918  0.4336  3.2017
 1610TIP3   OH226320   5.360   6.390   4.490 -0.6804 -0.0527 -0.0640
 1610TIP3    H126321   5.285   6.376   4.547 -0.1500 -0.4992  0.5248
 1610TIP3    H226322   5.321   6.410   4.404 -1.5194 -3.8174 -0.6683
 1611TIP3   OH226323   1.595   1.879  13.172 -0.3262 -0.2037 -0.6891
 1611TIP3    H126324   1.563   1.928  13.248  1.0043 -0.2519 -0.0880
 1611TIP3    H226325   1.630   1.798  13.209 -0.0720 -0.4290 -1.4156
 1612TIP3   OH226326   6.196   0.083  11.431  0.1333  0.8554  0.5509
 1612TIP3    H126327   6.160   0.139  11.362 -1.1134 -0.0600  0.4599
 1612TIP3    H226328   6.287   0.114  11.440  0.5310  0.5767 -1.9556
 1613TIP3   OH226329   6.762   4.969   0.257  0.1388 -0.1754  0.3916
 1613TIP3    H126330   6.714   4.897   0.299 -1.9678  0.5502 -0.6946
 1613TIP3    H226331   6.739   5.046   0.309  1.4069 -0.0613  0.8028
 1614TIP3   OH226332   1.773   1.479   0.235 -0.0467  0.5895 -0.1727
 1614TIP3    H126333   1.725   1.451   0.157  3.1716 -1.3297 -1.6013
 1614TIP3    H226334   1.761   1.408   0.298  1.3185 -0.1616 -0.7399
 1615TIP3   OH226335   2.922   0.100  11.353  0.1374  0.7856 -0.8173
 1615TIP3    H126336   2.957   0.176  11.306  0.0377  1.6122  0.4234
 1615TIP3    H226337   2.830   0.121  11.368  0.0196  0.2542 -0.7954
 1616TIP3   OH226338   0.010   1.010   0.285  0.0379  0.2749  0.2662
 1616TIP3    H126339   0.003   0.940   0.220 -1.7317  1.4354 -0.8362
 1616TIP3    H226340   0.098   0.999   0.322  0.8409 -0.8006 -1.8531
 1617TIP3   OH226341   2.462   4.868   5.819  0.0712  0.5903 -0.2813
 1617TIP3    H126342   2.467   4.793   5.760  0.0306 -1.1424  1.8290
 1617TIP3    H226343   2.539   4.921   5.798  0.1410 -0.0845 -1.7475
 1618TIP3   OH226344   3.883   3.676   4.070  0.5662 -0.1851  0.1014
 1618TIP3    H126345   3.923   3.636   3.992  0.8178 -1.7523  1.0134
 1618TIP3    H226346   3.950   3.736   4.104  1.3722 -1.2771  0.4574
 1619TIP3   OH226347   5.309   0.385  11.842 -0.2048  0.8480  0.0800
 1619TIP3    H126348   5.346   0.327  11.776 -0.9402 -0.6881  1.0059
 1619TIP3    H226349   5.354   0.362  11.923 -0.8108  1.2604  0.5389
 1620TIP3   OH226350   4.248   4.003  15.994  0.1914  0.1518  0.2429
 1620TIP3    H126351   4.299   3.945  15.937  0.2492  0.9819 -0.5678
 1620TIP3    H226352   4.209   4.067  15.934  1.6579  2.0857  1.2874
 1621TIP3   OH226353   6.688   2.777   5.466 -0.0136  0.1670  0.2689
 1621TIP3    H126354   6.603   2.792   5.506 -0.5729 -0.2410 -0.7620
 1621TIP3    H226355   6.686   2.686   5.437  0.5089  0.3484 -0.3690
 1622TIP3   OH226356   2.418   2.566   4.703 -0.0348  0.9583 -0.1150
 1622TIP3    H126357   2.365   2.487   4.689  0.8167  0.3778 -0.0611
 1622TIP3    H226358   2.356   2.638   4.691 -1.2421  0.2448  1.7280
 1623TIP3   OH226359   0.364   6.141  15.917 -0.1662 -0.3711 -0.7318
 1623TIP3    H126360   0.452   6.122  15.950  0.5345  0.1033 -2.2444
 1623TIP3    H226361   0.339   6.061  15.870 -0.9307 -0.8406  0.4462
 1624TIP3   OH226362   3.228   5.229  11.239  0.2015  0.6145 -0.2502
 1624TIP3    H126363   3.296   5.208  11.174 -1.3403 -1.0831 -1.3799
 1624TIP3    H226364   3.214   5.323  11.230  0.1074  0.4223 -2.3128
 1625TIP3   OH226365   1.080   4.740   1.852  0.5214  0.3684  0.4423
 1625TIP3    H126366   1.042   4.828   1.858 -0.4767 -0.0197 -0.0668
 1625TIP3    H226367   1.151   4.740   1.917 -0.4918  1.0336  1.5746
 1626TIP3   OH226368   0.263   4.938   2.290 -0.0297  0.0793  0.0983
 1626TIP3    H126369   0.354   4.957   2.312 -0.1480  1.4876 -0.5703
 1626TIP3    H226370   0.267   4.890   2.207  0.1594 -0.8211  0.6303
 1627TIP3   OH226371   4.352   1.144  16.463  0.2600  0.1694  0.7627
 1627TIP3    H126372   4.389   1.170  16.548  0.9821 -0.0152  0.5041
 1627TIP3    H226373   4.425   1.151  16.402 -0.1298 -0.2110  0.2532
 1628TIP3   OH226374   2.993   0.385  13.652  0.1398  0.1050  0.2459
 1628TIP3    H126375   3.045   0.395  13.572 -0.3392  0.4288 -0.0242
 1628TIP3    H226376   3.028   0.452  13.712 -1.6676  2.0556 -0.8323
 1629TIP3   OH226377   1.607   1.359   4.942 -0.1008  0.2968  0.4270
 1629TIP3    H126378   1.513   1.349   4.955 -0.2002  1.0940  0.3669
 1629TIP3    H226379   1.640   1.270   4.935 -1.4266 -0.0040 -3.4438
 1630TIP3   OH226380   4.339   6.360   5.573  0.2388  0.1054 -0.4767
 1630TIP3    H126381   4.252   6.338   5.539  0.0808 -1.1981  0.7322
 1630TIP3    H226382   4.326   6.370   5.667  0.3567  5.2262 -0.8458
 1631TIP3   OH226383   1.980   5.506  14.799  0.2169  0.1597 -0.1003
 1631TIP3    H126384   1.941   5.540  14.719  0.3370 -1.6083 -0.9134
 1631TIP3    H226385   1.910   5.458  14.842  0.3397  0.5369  0.5369
 1632TIP3   OH226386   1.964   2.676  12.185  0.1956 -0.2477 -0.2978
 1632TIP3    H126387   2.034   2.710  12.242 -0.2980 -0.5745  0.5153
 1632TIP3    H226388   1.895   2.742  12.192 -0.1751 -0.6773  0.1019
 1633TIP3   OH226389   3.474   2.383  14.770 -0.4549 -0.2700 -0.7498
 1633TIP3    H126390   3.446   2.368  14.680  1.5286 -2.5327 -1.0636
 1633TIP3    H226391   3.484   2.295  14.807 -1.9081  0.6245  1.9317
 1634TIP3   OH226392   4.186   1.419   2.433 -0.1015 -0.1651  0.5748
 1634TIP3    H126393   4.265   1.369   2.414  0.5308  1.1358 -0.2311
 1634TIP3    H226394   4.126   1.396   2.362  0.7170  1.3457 -0.6260
 1635TIP3   OH226395   1.372   1.921  15.828  0.0798 -0.0643 -0.0641
 1635TIP3    H126396   1.409   1.852  15.772  0.7473 -0.3475  0.7035
 1635TIP3    H226397   1.311   1.874  15.885 -1.1248  0.3306 -1.0090
 1636TIP3   OH226398   5.001   0.918  16.701 -0.9494  0.0557 -0.4412
 1636TIP3    H126399   4.964   1.004  16.683  0.3362  0.8708  0.6387
 1636TIP3    H226400   4.929   0.868  16.740 -0.9928  1.5503  1.4849
 1637TIP3   OH226401   5.671   6.667   3.214  0.6607  0.2414 -0.2961
 1637TIP3    H126402   5.630   6.735   3.160  0.4273 -0.4271 -0.9740
 1637TIP3    H226403   5.755   6.704   3.239  0.5693  0.7490 -0.7298
 1638TIP3   OH226404   2.956   4.350   0.049 -0.5162 -0.2182 -0.5045
 1638TIP3    H126405   3.019   4.382   0.113 -0.7670 -1.1172  0.1978
 1638TIP3    H226406   3.009   4.307  -0.018 -0.0807  2.5303 -2.0210
 1639TIP3   OH226407   6.642   3.563  11.855  0.0502  0.4320 -0.3958
 1639TIP3    H126408   6.637   3.560  11.951 -0.0272  0.2620 -0.4041
 1639TIP3    H226409   6.691   3.643  11.836 -1.4856  1.4371 -0.2709
 1640TIP3   OH226410   2.275   1.565   6.871  0.0022  0.1109  0.4607
 1640TIP3    H126411   2.216   1.544   6.799  0.7416  1.1601 -0.4708
 1640TIP3    H226412   2.223   1.622   6.928 -0.8085 -1.2839  1.1216
 1641TIP3   OH226413   5.330   1.748  12.931 -0.0863 -0.2486  0.0452
 1641TIP3    H126414   5.354   1.670  12.882  1.8614 -0.4351  1.2618
 1641TIP3    H226415   5.347   1.821  12.871 -0.9503 -0.6652 -0.7277
 1642TIP3   OH226416   3.916   0.269   4.801  0.8854 -0.3598  0.2238
 1642TIP3    H126417   3.837   0.216   4.804  0.1666  0.6568 -0.4904
 1642TIP3    H226418   3.988   0.206   4.803  0.0818 -1.2533  1.9332
 1643TIP3   OH226419   4.457   1.444   4.339 -0.1580 -0.1349  0.5545
 1643TIP3    H126420   4.507   1.383   4.285  1.5416  1.5291  0.1883
 1643TIP3    H226421   4.441   1.397   4.421 -0.0714 -1.5471 -0.2262
 1644TIP3   OH226422   1.898   1.291  16.686  0.0126  0.0650 -0.1019
 1644TIP3    H126423   1.869   1.272  16.596 -0.5792  1.0558 -0.1318
 1644TIP3    H226424   1.821   1.330  16.728  0.5680  0.4510  0.5673
 1645TIP3   OH226425   1.785   3.122  14.197 -0.3407  0.9041  0.6759
 1645TIP3    H126426   1.796   3.217  14.203 -0.9005  0.8995  1.9632
 1645TIP3    H226427   1.870   3.086  14.222 -0.4199  1.0424  1.1352
 1646TIP3   OH226428   4.809   0.557  11.049  0.2753  0.1579  0.0251
 1646TIP3    H126429   4.891   0.601  11.025  0.1959  0.1424 -0.2812
 1646TIP3    H226430   4.743   0.597  10.992  0.0612  0.2075  0.3090
 1647TIP3   OH226431   0.891   3.701   2.267 -0.2020 -0.2823  0.2052
 1647TIP3    H126432   0.853   3.626   2.221 -0.0762  0.2362 -0.7375
 1647TIP3    H226433   0.979   3.671   2.291 -1.8854 -2.3459  4.4202
 1648TIP3   OH226434   4.641   0.048   2.522  0.3336  0.0151  0.3022
 1648TIP3    H126435   4.569   0.038   2.461  1.2616 -2.2001 -0.4958
 1648TIP3    H226436   4.606   0.018   2.606 -0.1474  0.5123  0.2805
 1649TIP3   OH226437   2.007   0.212  11.852 -0.4841 -0.2392  0.2212
 1649TIP3    H126438   2.012   0.228  11.757 -0.4296  0.0099  0.2649
 1649TIP3    H226439   2.084   0.255  11.888 -1.2684  0.9566  0.5370
 1650TIP3   OH226440   3.154   5.716  16.298  0.7203 -0.4927  0.1175
 1650TIP3    H126441   3.059   5.704  16.299  0.8163 -1.2774  0.5887
 1650TIP3    H226442   3.188   5.627  16.287  1.3877 -0.1569 -0.5137
 1651TIP3   OH226443   4.969   1.246   3.057 -0.3999  0.0772 -0.0580
 1651TIP3    H126444   4.943   1.337   3.073  1.3751  0.9124 -1.6590
 1651TIP3    H226445   4.916   1.219   2.982  0.2285  0.3381 -0.5995
 1652TIP3   OH226446   4.158   6.317  13.636 -0.1878 -0.5184 -0.1256
 1652TIP3    H126447   4.201   6.238  13.667  2.5344  1.4500  1.3071
 1652TIP3    H226448   4.207   6.342  13.557 -1.5237 -0.6407 -1.0232
 1653TIP3   OH226449   3.906   0.592   5.548  0.5784  0.0131 -0.3409
 1653TIP3    H126450   3.945   0.649   5.614 -1.2120  0.8504  0.0145
 1653TIP3    H226451   3.881   0.651   5.477  1.3252 -0.7197 -1.2338
 1654TIP3   OH226452   3.769   4.519  12.897 -0.4470 -0.2010 -0.0152
 1654TIP3    H126453   3.747   4.426  12.899 -1.5228  0.0665  1.7001
 1654TIP3    H226454   3.814   4.535  12.980 -0.6070  0.8811 -0.1290
 1655TIP3   OH226455   2.423   0.250   3.977  0.1931 -0.3469  0.1437
 1655TIP3    H126456   2.489   0.266   3.909 -0.5573 -0.2701 -0.5808
 1655TIP3    H226457   2.443   0.162   4.009 -0.5120 -1.1033 -1.4228
 1656TIP3   OH226458   0.596   5.395   1.017 -0.8958  0.1096 -0.2285
 1656TIP3    H126459   0.508   5.426   1.037 -0.4220 -0.3473  2.7438
 1656TIP3    H226460   0.653   5.470   1.038 -0.5242  0.2531 -1.7039
 1657TIP3   OH226461   5.527   2.451  13.446  0.4741 -0.4220  0.2624
 1657TIP3    H126462   5.594   2.519  13.440 -0.2596  0.2620 -0.3393
 1657TIP3    H226463   5.445   2.499  13.450 -0.0581 -1.2770 -0.2776
 1658TIP3   OH226464   5.182   3.717  11.626 -0.6294  0.1007  0.5116
 1658TIP3    H126465   5.135   3.696  11.546  0.4891  1.1084 -0.4218
 1658TIP3    H226466   5.114   3.722  11.693 -1.7951  1.0674 -0.7160
 1659TIP3   OH226467   3.341   2.680  16.575  0.0622  0.0927 -0.1626
 1659TIP3    H126468   3.379   2.659  16.489 -1.1164 -1.6894 -0.2657
 1659TIP3    H226469   3.248   2.693  16.557 -0.3065 -0.9945  0.9670
 1660TIP3   OH226470   4.065   3.384   5.129 -0.1454  0.1059  0.2871
 1660TIP3    H126471   3.985   3.434   5.113  0.5780  1.0838 -0.4135
 1660TIP3    H226472   4.043   3.294   5.104 -1.3267  0.1473  1.1093
 1661TIP3   OH226473   3.048   3.183  12.851  0.0525 -0.0409  0.0734
 1661TIP3    H126474   2.994   3.111  12.818 -0.1313  0.0623  0.1511
 1661TIP3    H226475   3.130   3.141  12.877 -1.2505 -0.7240  3.2381
 1662TIP3   OH226476   6.219   2.110   0.524  0.1186  0.2941 -0.1043
 1662TIP3    H126477   6.209   2.205   0.523  1.2167  0.4415 -3.6668
 1662TIP3    H226478   6.251   2.088   0.436 -1.3363 -3.5140  0.2206
 1663TIP3   OH226479   0.839   3.984   3.952 -0.1222  0.5002 -0.1965
 1663TIP3    H126480   0.787   3.909   3.980 -0.5551  1.6617  2.3225
 1663TIP3    H226481   0.795   4.060   3.991  2.0850  1.7523 -0.0128
 1664TIP3   OH226482   2.091   0.754   2.495  0.0171 -0.1723 -0.1743
 1664TIP3    H126483   2.131   0.727   2.578 -1.0712  1.3128  0.8625
 1664TIP3    H226484   2.049   0.674   2.462  0.0704 -0.6751  0.9421
 1665TIP3   OH226485   2.388   5.320   5.652  0.7079  0.2579  0.4084
 1665TIP3    H126486   2.344   5.283   5.728  0.0183  1.5091  0.6267
 1665TIP3    H226487   2.319   5.330   5.587  0.9602  0.8080  0.2211
 1666TIP3   OH226488   5.641   3.565  10.284  0.0421 -0.2373 -0.1447
 1666TIP3    H126489   5.609   3.475  10.279  0.2613 -0.5030  2.4722
 1666TIP3    H226490   5.736   3.557  10.272 -0.0489 -0.2583 -0.8320
 1667TIP3   OH226491   5.930   3.677   2.469  0.0498  0.0047 -0.3806
 1667TIP3    H126492   5.979   3.736   2.526  1.5170  0.3762 -2.0245
 1667TIP3    H226493   5.995   3.616   2.435 -1.1430 -1.4119 -0.1625
 1668TIP3   OH226494   6.227   5.690  11.831  0.4607 -0.0586  0.0693
 1668TIP3    H126495   6.172   5.619  11.864  0.1548 -0.1545 -0.6319
 1668TIP3    H226496   6.316   5.658  11.840  0.2842 -0.9482 -1.1679
 1669TIP3   OH226497   1.927   1.258   5.760 -0.4613 -0.6907  0.5847
 1669TIP3    H126498   1.866   1.225   5.826  0.5690 -0.3471  1.7279
 1669TIP3    H226499   1.889   1.342   5.732 -0.7151 -0.6703  0.9888
 1670TIP3   OH226500   4.914   2.260   3.735 -0.2306  0.2806 -0.0674
 1670TIP3    H126501   4.997   2.251   3.688 -0.4036 -2.5934  0.0752
 1670TIP3    H226502   4.852   2.289   3.668 -0.0384 -1.8384 -1.1949
 1671TIP3   OH226503   1.176   5.427   3.863  0.0370 -0.1711 -0.4000
 1671TIP3    H126504   1.107   5.382   3.911  0.7771 -0.2740  0.5725
 1671TIP3    H226505   1.155   5.520   3.871 -1.0304 -0.2825 -1.7077
 1672TIP3   OH226506   2.626   6.019   6.367  1.4158 -0.4830 -0.1281
 1672TIP3    H126507   2.720   6.039   6.356  1.2684  0.9990  1.1326
 1672TIP3    H226508   2.595   6.084   6.430 -0.7441 -0.1763 -1.4413
 1673TIP3   OH226509   0.662   2.921   1.048  0.0900  0.7739 -0.6235
 1673TIP3    H126510   0.593   2.882   0.995  1.6256  0.3986 -2.3816
 1673TIP3    H226511   0.664   2.868   1.128  1.4893 -2.1906 -2.5507
 1674TIP3   OH226512   1.357   6.179   6.099 -0.3178 -0.5996  0.4420
 1674TIP3    H126513   1.309   6.204   6.021  0.8947 -2.2334 -0.8461
 1674TIP3    H226514   1.448   6.170   6.070  0.2692 -0.5421  2.1826
 1675TIP3   OH226515   2.616   4.732   5.269 -0.1715 -0.0049 -0.2920
 1675TIP3    H126516   2.557   4.793   5.313  2.8577  1.8466  1.4685
 1675TIP3    H226517   2.700   4.778   5.267  1.5696 -3.0626 -1.3742
 1676TIP3   OH226518   1.208   2.364  13.222 -0.2262 -0.1241 -0.5196
 1676TIP3    H126519   1.226   2.350  13.129 -1.3292 -0.8883 -0.6338
 1676TIP3    H226520   1.112   2.362  13.228 -0.2832  2.3269  0.2680
 1677TIP3   OH226521   2.277   5.263   4.585  0.4003  0.4610  0.3144
 1677TIP3    H126522   2.295   5.328   4.653  0.8174  0.0847  0.5683
 1677TIP3    H226523   2.359   5.215   4.575  1.2468  2.3912 -2.5194
 1678TIP3   OH226524   6.024   0.657   2.507 -0.2567  0.4031 -0.2182
 1678TIP3    H126525   6.068   0.584   2.552  1.5940  1.4910 -0.1964
 1678TIP3    H226526   6.083   0.680   2.435 -1.3941  1.1148 -0.9341
 1679TIP3   OH226527   4.478   2.557   4.241 -0.3450 -0.0448  0.1999
 1679TIP3    H126528   4.524   2.511   4.171 -1.1030 -2.3687  1.1742
 1679TIP3    H226529   4.545   2.575   4.306 -0.4118 -1.7392  0.7711
 1680TIP3   OH226530   3.995   0.765   3.389  0.5170  0.7444 -0.1871
 1680TIP3    H126531   3.936   0.837   3.366  1.6693  0.9393 -2.6609
 1680TIP3    H226532   3.939   0.688   3.394 -0.3039  1.3353 -0.1756
 1681TIP3   OH226533   6.097   6.013  12.381  0.5303 -0.4739  0.1411
 1681TIP3    H126534   6.068   5.925  12.405  0.2189 -0.7892 -1.3158
 1681TIP3    H226535   6.166   6.034  12.443 -2.3832  0.0436  3.3282
 1682TIP3   OH226536   1.783   4.548   4.082  0.1734 -0.5052 -0.2387
 1682TIP3    H126537   1.840   4.514   4.152 -0.3037 -0.2717  0.2662
 1682TIP3    H226538   1.837   4.543   4.003  1.8201  2.0124  0.6426
 1683TIP3   OH226539   5.579   4.159   3.040  0.7100  0.1983  0.5776
 1683TIP3    H126540   5.606   4.138   2.951 -1.8009 -0.5983 -0.0130
 1683TIP3    H226541   5.592   4.254   3.046  0.4756  0.3355 -0.7961
 1684TIP3   OH226542   4.605   6.188  13.160  0.0579 -0.2258 -0.0258
 1684TIP3    H126543   4.529   6.245  13.167  1.7423  2.2249 -1.2095
 1684TIP3    H226544   4.631   6.171  13.251 -1.7508 -0.9542  0.3837
 1685TIP3   OH226545   2.385   0.940  12.908  0.6593  0.0357 -0.3833
 1685TIP3    H126546   2.418   1.018  12.951 -0.0443 -0.1597  0.5415
 1685TIP3    H226547   2.290   0.948  12.914  0.5715 -0.4890 -1.0172
 1686TIP3   OH226548   6.579   0.654  17.142  0.1704 -0.1077 -0.2677
 1686TIP3    H126549   6.490   0.629  17.117  1.0745 -1.7142 -2.0137
 1686TIP3    H226550   6.589   0.743  17.107 -0.0364 -0.7491 -2.0403
 1687TIP3   OH226551   5.708   6.377  13.100  0.3831 -0.0247 -0.0294
 1687TIP3    H126552   5.703   6.303  13.161 -0.8417  1.0218  1.1534
 1687TIP3    H226553   5.674   6.342  13.018  1.8132 -1.3750 -0.0964
 1688TIP3   OH226554   2.126   2.427  16.113 -0.1381  0.1083  0.6145
 1688TIP3    H126555   2.194   2.393  16.171  1.8057  2.2965 -0.3345
 1688TIP3    H226556   2.085   2.349  16.076  1.6059 -1.2381  1.4695
 1689TIP3   OH226557   1.083   0.974  17.068  0.2252 -0.0241 -0.4365
 1689TIP3    H126558   1.057   0.930  17.149 -0.1316  3.3051  1.3657
 1689TIP3    H226559   1.017   0.948  17.004  0.3479 -2.4762  0.3846
 1690TIP3   OH226560   3.987   3.709  16.259  0.0618  0.4553 -0.1536
 1690TIP3    H126561   4.078   3.709  16.229  0.4493  0.0005  0.9604
 1690TIP3    H226562   3.945   3.639  16.208  0.5366  0.1411 -0.1223
 1691TIP3   OH226563   4.219   6.593   2.018 -0.1718  0.7890 -0.2549
 1691TIP3    H126564   4.142   6.537   2.025  0.3725  0.3289  2.5851
 1691TIP3    H226565   4.189   6.679   2.047 -0.1795  1.1885 -1.4231
 1692TIP3   OH226566   0.948   4.891   3.127 -0.5583  0.7077 -0.2735
 1692TIP3    H126567   0.930   4.802   3.099 -0.8433  0.7323 -0.1665
 1692TIP3    H226568   0.981   4.882   3.217 -1.0503  0.7505 -0.0894
 1693TIP3   OH226569   4.831   0.484  14.900  0.8626 -0.1695  0.3766
 1693TIP3    H126570   4.760   0.420  14.896 -0.1319  0.9130  0.5136
 1693TIP3    H226571   4.821   0.537  14.821  1.2638  0.2538  0.6026
 1694TIP3   OH226572   2.683   3.499   1.516 -0.1387 -0.0890 -0.3350
 1694TIP3    H126573   2.600   3.470   1.477  0.0719  0.1180 -0.9264
 1694TIP3    H226574   2.670   3.591   1.536 -1.0075 -0.6770  2.0624
 1695TIP3   OH226575   2.873   2.319   2.903  0.1764  0.3324  0.7090
 1695TIP3    H126576   2.812   2.282   2.838 -0.3547 -2.2586  2.5773
 1695TIP3    H226577   2.953   2.335   2.854 -0.5501 -0.5995 -0.8355
 1696TIP3   OH226578   3.450   2.125   2.419 -0.9018  0.2401 -0.1730
 1696TIP3    H126579   3.366   2.106   2.377 -0.1569 -0.3861 -1.4343
 1696TIP3    H226580   3.508   2.148   2.346 -0.3341  1.9925  0.8268
 1697TIP3   OH226581   6.096   2.462   0.815  0.3898  0.1410  0.6048
 1697TIP3    H126582   6.185   2.429   0.804  0.2095  0.1733 -0.9747
 1697TIP3    H226583   6.097   2.549   0.777  0.3022  1.1618  2.8433
 1698TIP3   OH226584   4.353   3.524   2.810  0.0063 -0.6398  0.6233
 1698TIP3    H126585   4.360   3.460   2.739  0.7511 -0.1222  0.2270
 1698TIP3    H226586   4.285   3.488   2.867 -2.0287 -0.1029 -1.3465
 1699TIP3   OH226587   6.000   5.106  15.649 -0.5277  0.6308  0.3912
 1699TIP3    H126588   5.910   5.104  15.619 -0.6393  1.2374  0.6820
 1699TIP3    H226589   6.020   5.015  15.672  0.0796 -0.1550 -3.0237
 1700TIP3   OH226590   1.456   2.063   4.890 -0.0142 -0.1319 -0.1243
 1700TIP3    H126591   1.410   2.090   4.811  1.6896  1.0406 -0.7470
 1700TIP3    H226592   1.455   1.968   4.888 -1.4145 -0.1096 -0.7025
 1701TIP3   OH226593   4.382   4.484   3.217 -0.0461 -0.2444  0.2261
 1701TIP3    H126594   4.365   4.507   3.126 -2.4622 -0.2040  0.6439
 1701TIP3    H226595   4.339   4.399   3.228  1.5496 -0.9775  0.9353
 1702TIP3   OH226596   5.674   4.391   3.282  0.2535 -0.0066 -0.5845
 1702TIP3    H126597   5.739   4.328   3.252  1.5069  0.5011  1.0138
 1702TIP3    H226598   5.613   4.399   3.209  1.1464 -1.6176 -1.5332
 1703TIP3   OH226599   0.216   0.297   1.367  0.1898  0.0561  0.2854
 1703TIP3    H126600   0.310   0.296   1.382  0.5063 -0.1482 -1.5362
 1703TIP3    H226601   0.192   0.205   1.356 -0.0052  0.1846 -0.4168
 1704TIP3   OH226602   2.641   4.865  11.692 -0.0062 -0.2204  0.7627
 1704TIP3    H126603   2.602   4.820  11.618  2.6818  0.6236 -1.2649
 1704TIP3    H226604   2.715   4.810  11.718  2.7688  2.4366 -1.1740
 1705TIP3   OH226605   2.909   6.529  17.057 -0.3703  0.1386 -0.7834
 1705TIP3    H126606   2.888   6.438  17.081  0.0308 -0.2206 -1.7723
 1705TIP3    H226607   2.985   6.521  17.000 -1.5833  0.9434 -2.5544
 1706TIP3   OH226608   2.677   3.813  15.694  0.3873 -0.1860 -0.3303
 1706TIP3    H126609   2.734   3.822  15.617  0.8883 -0.1699  0.0377
 1706TIP3    H226610   2.724   3.859  15.764 -0.9389  1.3898 -0.4574
 1707TIP3   OH226611   0.878   1.802   4.912  0.3281 -0.4481  0.3896
 1707TIP3    H126612   0.954   1.861   4.907 -1.0330  1.2041 -1.1540
 1707TIP3    H226613   0.821   1.843   4.977  0.0721 -0.9094  0.4527
 1708TIP3   OH226614   0.641   6.210   2.382  0.1290 -0.5274 -0.2986
 1708TIP3    H126615   0.681   6.263   2.312  0.0506  0.3194  0.2890
 1708TIP3    H226616   0.705   6.142   2.399  0.0426 -0.8914 -1.3711
 1709TIP3   OH226617   1.881   0.298  16.123 -0.0003 -0.7124  0.9133
 1709TIP3    H126618   1.971   0.322  16.105 -1.2549  1.7258 -2.7934
 1709TIP3    H226619   1.860   0.341  16.206  1.3063  1.4445  0.1663
 1710TIP3   OH226620   1.778   4.787  13.034 -0.5037  0.2719 -0.1588
 1710TIP3    H126621   1.725   4.825  13.103  0.2201  0.9561  0.0349
 1710TIP3    H226622   1.726   4.715  12.999 -0.7500 -0.2603  1.2936
 1711TIP3   OH226623   6.011   1.449   1.568  0.3887  0.3361 -0.0051
 1711TIP3    H126624   6.088   1.393   1.565  0.7456  0.8842 -1.8276
 1711TIP3    H226625   6.011   1.494   1.484 -2.8420 -0.8867 -0.7503
 1712TIP3   OH226626   2.299   6.210   6.855 -0.8066  0.3400 -0.2570
 1712TIP3    H126627   2.358   6.263   6.909 -1.1171  1.0756 -0.6389
 1712TIP3    H226628   2.217   6.208   6.904 -0.7838  0.1885 -0.2264
 1713TIP3   OH226629   1.474   2.457  17.198  0.6648  0.6074  0.2329
 1713TIP3    H126630   1.437   2.519  17.136 -0.7263 -0.0017  0.4437
 1713TIP3    H226631   1.410   2.452  17.269 -0.5541 -3.0222 -1.0160
 1714TIP3   OH226632   3.398   4.901   1.156  0.4853 -0.1621 -0.1053
 1714TIP3    H126633   3.323   4.851   1.187  1.5145 -1.3672  0.4847
 1714TIP3    H226634   3.432   4.849   1.082  0.9245  0.2037 -0.1628
 1715TIP3   OH226635   0.750   2.309   2.478 -0.5220  0.0394 -0.1213
 1715TIP3    H126636   0.681   2.373   2.499  0.5463  0.7868  1.2145
 1715TIP3    H226637   0.727   2.232   2.530  0.9273  1.1286  2.2056
 1716TIP3   OH226638   2.892   2.812  10.879 -0.3490 -0.5058 -0.5726
 1716TIP3    H126639   2.912   2.871  10.806 -0.3102 -0.3109 -0.4067
 1716TIP3    H226640   2.797   2.817  10.889 -0.0247  2.1889  1.6406
 1717TIP3   OH226641   0.758   2.988  13.634 -0.5533 -0.4921 -0.3177
 1717TIP3    H126642   0.688   2.981  13.698  1.2525  0.6855  1.8675
 1717TIP3    H226643   0.745   3.074  13.593 -1.1485 -0.8456 -0.8881
 1718TIP3   OH226644   4.519   5.668   0.224 -0.1621 -0.5325  0.1353
 1718TIP3    H126645   4.593   5.635   0.172 -0.6163  0.4401 -1.1569
 1718TIP3    H226646   4.441   5.639   0.176 -0.5856  1.0725 -0.1710
 1719TIP3   OH226647   3.482   2.915   3.133 -0.2857  0.3057  0.2300
 1719TIP3    H126648   3.389   2.934   3.147 -0.8268 -1.5517 -0.7406
 1719TIP3    H226649   3.513   2.986   3.076 -1.1441  0.8187  0.3986
 1720TIP3   OH226650   4.001   3.138  16.005 -0.3055  0.5111  0.6895
 1720TIP3    H126651   3.925   3.154  16.061 -1.8452 -0.5633 -1.0519
 1720TIP3    H226652   4.030   3.050  16.028 -0.0084  0.6395  0.8226
 1721TIP3   OH226653   1.868   3.251  15.189  0.4496 -0.7341  0.2816
 1721TIP3    H126654   1.853   3.170  15.141 -1.7319 -0.3628  0.3251
 1721TIP3    H226655   1.902   3.222  15.274  1.0115 -1.5237 -0.2035
 1722TIP3   OH226656   5.558   2.890  17.140  0.1805  0.4558  1.1062
 1722TIP3    H126657   5.488   2.953  17.150  1.3426  2.1300 -0.8742
 1722TIP3    H226658   5.616   2.906  17.214  0.8669  2.3050  0.2131
 1723TIP3   OH226659   1.874   4.146   1.547 -0.1785 -0.5016  0.2661
 1723TIP3    H126660   1.922   4.063   1.547 -0.1043 -0.4636  1.3440
 1723TIP3    H226661   1.785   4.122   1.573 -0.1001 -0.2181  0.8040
 1724TIP3   OH226662   2.520   5.692   2.751 -0.3007  0.4031  0.1375
 1724TIP3    H126663   2.477   5.744   2.684  0.0533  0.5672  0.0379
 1724TIP3    H226664   2.612   5.691   2.726 -0.3992 -0.7944 -0.2095
 1725TIP3   OH226665   1.996   1.417  13.232  0.3348 -0.8071 -0.2254
 1725TIP3    H126666   1.988   1.509  13.257  0.6761 -1.4787  2.5838
 1725TIP3    H226667   1.909   1.393  13.201  0.1672  0.3700 -0.6983
 1726TIP3   OH226668   5.299   4.653   2.527  0.2695  0.0699 -0.6707
 1726TIP3    H126669   5.218   4.704   2.521  1.1916  1.3695 -2.5174
 1726TIP3    H226670   5.273   4.570   2.566 -1.6814  1.0608  0.1785
 1727TIP3   OH226671   0.206   2.502   0.386 -0.3673  0.1288 -0.8491
 1727TIP3    H126672   0.274   2.569   0.394 -1.4244  1.2151 -0.8501
 1727TIP3    H226673   0.235   2.446   0.315  0.7061  0.3700 -0.6098
 1728TIP3   OH226674   3.746   5.534  16.349  0.3967 -0.1636 -0.3952
 1728TIP3    H126675   3.809   5.599  16.381  0.5535 -0.0697 -0.8879
 1728TIP3    H226676   3.799   5.462  16.316  0.2074 -0.9668  1.0010
 1729TIP3   OH226677   4.781   6.684  13.470 -0.0767 -0.3846 -0.4897
 1729TIP3    H126678   4.758   6.696  13.562  1.6055 -0.8520  0.0089
 1729TIP3    H226679   4.858   6.739  13.457  0.8896 -1.8719 -1.1038
 1730TIP3   OH226680   5.004   5.805   3.120  0.0835 -0.2122  0.2297
 1730TIP3    H126681   4.915   5.829   3.145 -0.9886 -2.1155 -1.6184
 1730TIP3    H226682   5.044   5.774   3.201 -0.8028  0.9439  1.1372
 1731TIP3   OH226683   4.631   6.048   6.186 -0.4835 -0.5924  0.1808
 1731TIP3    H126684   4.579   6.129   6.190 -0.1208 -0.3730  0.4942
 1731TIP3    H226685   4.585   5.987   6.244 -0.6715 -0.5594  0.0659
 1732TIP3   OH226686   6.363   2.501   3.205  0.1177  0.9680 -0.1869
 1732TIP3    H126687   6.345   2.419   3.249 -0.0993  0.9340 -0.3432
 1732TIP3    H226688   6.441   2.483   3.152 -0.5894  0.5596 -1.0745
 1733TIP3   OH226689   1.588   0.228   3.933 -0.3446 -0.3288  0.9199
 1733TIP3    H126690   1.663   0.188   3.977  0.8371  0.8860  0.0422
 1733TIP3    H226691   1.627   0.280   3.863 -2.1056 -1.1455 -0.7085
 1734TIP3   OH226692   1.231   2.166  13.401 -0.0065  0.0026 -0.0540
 1734TIP3    H126693   1.270   2.207  13.478  1.1689 -0.7347 -0.2353
 1734TIP3    H226694   1.227   2.236  13.336  0.4289  0.2490  0.1812
 1735TIP3   OH226695   5.061   3.543   3.136  0.1081  0.2648 -0.7542
 1735TIP3    H126696   5.067   3.447   3.139 -1.1797  0.1392 -1.9106
 1735TIP3    H226697   4.994   3.565   3.201  1.7268  0.5442  0.8744
 1736TIP3   OH226698   6.780   4.801   3.301 -0.4627 -0.2550 -0.4023
 1736TIP3    H126699   6.747   4.712   3.319 -1.1284  0.2263  0.7923
 1736TIP3    H226700   6.811   4.832   3.386 -0.1196  0.6134 -0.8502
 1737TIP3   OH226701   1.385   5.958  16.952  0.6272 -0.5130 -0.1377
 1737TIP3    H126702   1.390   5.863  16.961  0.2048 -0.4564  0.6538
 1737TIP3    H226703   1.322   5.972  16.880 -1.3062 -0.7687  1.4680
 1738TIP3   OH226704   3.196   4.518   3.619 -0.1137  0.0565  0.1832
 1738TIP3    H126705   3.110   4.493   3.651 -0.1859 -1.9347 -1.4810
 1738TIP3    H226706   3.257   4.480   3.682 -0.3378 -1.9430 -0.7627
 1739TIP3   OH226707   3.724   0.876   6.199  0.1058  0.2203 -0.1852
 1739TIP3    H126708   3.750   0.788   6.226  1.5710  0.0879 -1.9349
 1739TIP3    H226709   3.633   0.866   6.169 -0.3834 -0.2945  1.4296
 1740TIP3   OH226710   1.305   3.234   2.097 -0.5243 -0.1944  0.1085
 1740TIP3    H126711   1.306   3.139   2.108  0.3910 -0.2398 -0.2542
 1740TIP3    H226712   1.213   3.258   2.100 -0.6943 -0.9609  1.3336
 1741TIP3   OH226713   0.969   1.242   2.348  0.8252  0.0929  0.7963
 1741TIP3    H126714   0.994   1.195   2.268 -2.6810 -2.6140  1.1546
 1741TIP3    H226715   1.016   1.198   2.418 -0.1798 -1.0159  0.7894
 1742TIP3   OH226716   5.181   1.223   0.914 -0.5578  0.6288 -0.0411
 1742TIP3    H126717   5.128   1.224   0.994 -2.2824  2.4447 -1.1618
 1742TIP3    H226718   5.265   1.261   0.941 -0.8938  0.5865  1.0752
 1743TIP3   OH226719   5.994   0.584  11.619  0.2889  0.3354  0.1646
 1743TIP3    H126720   5.977   0.496  11.652 -0.5222  0.9012  1.3191
 1743TIP3    H226721   5.920   0.603  11.562  1.8060 -0.7285 -2.2314
 1744TIP3   OH226722   2.299   0.084  13.123  0.1426 -0.1868  0.0539
 1744TIP3    H126723   2.244   0.017  13.082  0.4865  1.8730 -4.0516
 1744TIP3    H226724   2.239   0.157  13.140  0.8792  0.7183 -1.1296
 1745TIP3   OH226725   0.500   4.061  11.069 -0.0802  0.1762  0.1534
 1745TIP3    H126726   0.590   4.029  11.066 -0.0146  0.3361  0.3427
 1745TIP3    H226727   0.498   4.133  11.006  0.7449  2.1820  2.3359
 1746TIP3   OH226728   3.625   4.785   6.216 -0.1512  0.0321 -0.1388
 1746TIP3    H126729   3.720   4.773   6.212 -0.0868 -0.5088  2.1282
 1746TIP3    H226730   3.614   4.879   6.233  0.0481 -0.1071  0.8193
 1747TIP3   OH226731   6.476   1.573  16.721 -0.1077  0.2127  0.1708
 1747TIP3    H126732   6.564   1.535  16.726  0.7844  2.1708  0.0970
 1747TIP3    H226733   6.432   1.545  16.801  0.6459 -0.6632  0.2839
 1748TIP3   OH226734   5.651   0.650  11.707 -0.3958 -0.0524 -0.1809
 1748TIP3    H126735   5.677   0.559  11.721 -1.7254 -0.1483  1.6843
 1748TIP3    H226736   5.702   0.676  11.630  1.3699 -1.8040  0.3247
 1749TIP3   OH226737   3.409   5.623   6.055  0.6099  0.3346  0.7689
 1749TIP3    H126738   3.471   5.598   6.123 -1.3905 -0.7591  2.2302
 1749TIP3    H226739   3.362   5.698   6.091 -1.0363 -0.7625  0.9761
 1750TIP3   OH226740   1.647   2.331  15.960 -0.8548  0.2544  0.4376
 1750TIP3    H126741   1.658   2.316  16.054 -1.0039  0.4993  0.4940
 1750TIP3    H226742   1.701   2.407  15.941 -0.8617  0.2340  0.3332
 1751TIP3   OH226743   5.484   2.788   3.023  0.1469 -0.4152  0.3588
 1751TIP3    H126744   5.443   2.865   3.062  1.0006 -0.4429  1.3412
 1751TIP3    H226745   5.454   2.715   3.078 -0.1700 -0.7166 -0.2028
 1752TIP3   OH226746   6.375   4.404   3.601  0.2554  0.4997 -0.0522
 1752TIP3    H126747   6.327   4.364   3.673 -2.0280  2.3424 -0.4932
 1752TIP3    H226748   6.362   4.498   3.613  0.3811  0.8676 -2.5162
 1753TIP3   OH226749   6.555   2.277   0.825 -0.6803 -0.3039 -0.2175
 1753TIP3    H126750   6.520   2.210   0.765  0.4998  0.0031 -1.2670
 1753TIP3    H226751   6.491   2.348   0.821 -0.7294 -0.3834 -0.9198
 1754TIP3   OH226752   0.618   3.731   5.495 -0.5274  0.0756 -0.3153
 1754TIP3    H126753   0.531   3.767   5.514 -0.2171  1.1348 -0.8323
 1754TIP3    H226754   0.674   3.808   5.488  0.2022 -0.5331 -1.2502
 1755TIP3   OH226755   2.655   5.695  11.480 -0.4662  0.4738  0.2826
 1755TIP3    H126756   2.687   5.674  11.568  0.9438 -0.3111 -0.3890
 1755TIP3    H226757   2.593   5.766  11.493 -1.9144 -1.0754  2.1444
 1756TIP3   OH226758   4.999   4.003  15.772  0.1223 -0.3998 -0.1754
 1756TIP3    H126759   4.920   3.984  15.721  0.8336 -1.3058 -0.9602
 1756TIP3    H226760   4.979   3.970  15.860 -1.1255  1.2118  0.1657
 1757TIP3   OH226761   3.819   3.640  11.143 -0.1850  0.1514  0.2589
 1757TIP3    H126762   3.726   3.636  11.164 -0.2538 -1.4705 -0.2491
 1757TIP3    H226763   3.845   3.729  11.165 -1.8761  0.6523  0.3069
 1758TIP3   OH226764   4.440   3.288  12.498 -0.1655 -0.1324  0.0435
 1758TIP3    H126765   4.532   3.268  12.516 -0.2718  0.1069  0.8884
 1758TIP3    H226766   4.443   3.349  12.425  0.4010  0.6695  0.7285
 1759TIP3   OH226767   2.249   1.663  10.729  0.0542 -0.5516 -0.4429
 1759TIP3    H126768   2.322   1.628  10.677 -0.0666 -0.3861 -0.7242
 1759TIP3    H226769   2.174   1.660  10.671  0.8755  4.0009 -1.9061
 1760TIP3   OH226770   2.537   2.028   1.788  0.2774 -0.2687  0.6726
 1760TIP3    H126771   2.518   2.114   1.828 -2.4201  0.0002 -1.0563
 1760TIP3    H226772   2.497   1.965   1.848  0.2553 -0.1813  0.7506
 1761TIP3   OH226773   4.898   5.416  12.721 -0.5682  0.3341  0.5402
 1761TIP3    H126774   4.946   5.401  12.640 -0.1849  1.1185  0.6139
 1761TIP3    H226775   4.961   5.397  12.790 -0.8910 -0.3265  0.6617
 1762TIP3   OH226776   2.010   0.577  12.489 -0.9184  0.7376 -0.2833
 1762TIP3    H126777   1.987   0.524  12.565 -2.4122  0.4213 -0.9415
 1762TIP3    H226778   2.039   0.514  12.424 -0.1684  0.9609 -0.1643
 1763TIP3   OH226779   2.513   5.308   0.659 -0.3148 -0.4772 -0.4239
 1763TIP3    H126780   2.573   5.318   0.733 -1.6992  1.6154  0.4600
 1763TIP3    H226781   2.427   5.295   0.700 -1.0482  0.4290 -1.6563
 1764TIP3   OH226782   2.068   2.921  16.902  0.0154 -0.8404  0.2017
 1764TIP3    H126783   2.021   2.921  16.985  0.8546 -1.2250  0.6953
 1764TIP3    H226784   2.161   2.915  16.928  0.4561  1.6243 -0.6910
 1765TIP3   OH226785   4.537   5.245  14.512  0.3511 -0.4158  0.2743
 1765TIP3    H126786   4.535   5.300  14.590  1.6813  0.5509 -0.3378
 1765TIP3    H226787   4.563   5.305  14.442 -2.6358 -0.8600 -1.2743
 1766TIP3   OH226788   5.536   1.718   3.523 -0.2500  0.2559 -0.5779
 1766TIP3    H126789   5.631   1.707   3.518 -0.4003 -0.3783 -2.3604
 1766TIP3    H226790   5.501   1.633   3.497 -1.3201  0.9769 -1.5019
 1767TIP3   OH226791   4.202   4.546   2.749 -0.6439 -0.0857  0.0153
 1767TIP3    H126792   4.232   4.633   2.721  2.1171 -1.0229 -0.0778
 1767TIP3    H226793   4.191   4.497   2.667  1.8665 -1.0593  0.2059
 1768TIP3   OH226794   4.130   2.602   0.971 -0.4130  0.1701 -0.3884
 1768TIP3    H126795   4.039   2.608   0.940 -0.7067  1.4630  0.6347
 1768TIP3    H226796   4.157   2.694   0.981  0.7211 -0.2152  0.1115
 1769TIP3   OH226797   4.091   1.967  11.483 -0.1213  0.1586  0.1220
 1769TIP3    H126798   4.054   1.960  11.395  3.1645  0.6936 -1.3666
 1769TIP3    H226799   4.078   2.058  11.507 -2.8769 -0.4418  1.1061
 1770TIP3   OH226800   2.813   3.851  10.721 -0.4812  0.0317 -0.4706
 1770TIP3    H126801   2.725   3.872  10.691 -0.3315 -0.3011 -1.1426
 1770TIP3    H226802   2.827   3.761  10.691 -1.6884 -1.6752  3.5701
 1771TIP3   OH226803   5.526   6.471   3.716 -0.8585 -0.0473 -0.1048
 1771TIP3    H126804   5.434   6.464   3.691 -0.6652 -0.4698 -0.7230
 1771TIP3    H226805   5.533   6.557   3.758 -1.7956 -0.5501  1.1148
 1772TIP3   OH226806   0.461   4.998  16.087 -0.6890  0.8745 -0.1133
 1772TIP3    H126807   0.431   4.934  16.022 -1.0245 -0.6599  1.4954
 1772TIP3    H226808   0.554   5.010  16.066 -0.4517 -0.6697 -0.0402
 1773TIP3   OH226809   1.223   2.725  14.831  0.4848 -0.3603 -0.1168
 1773TIP3    H126810   1.148   2.664  14.827 -0.5403  0.8841 -0.2267
 1773TIP3    H226811   1.275   2.703  14.754 -0.4886 -0.3239 -0.7914
 1774TIP3   OH226812   6.475   0.114  11.216  0.2069  0.0750  0.1508
 1774TIP3    H126813   6.502   0.062  11.140 -1.0224 -0.6400  0.1948
 1774TIP3    H226814   6.434   0.192  11.178 -0.1316 -0.1360  0.0880
 1775TIP3   OH226815   2.688   5.654   3.882  0.3653  0.2018  0.3431
 1775TIP3    H126816   2.646   5.669   3.966  0.2535 -1.2612  0.5723
 1775TIP3    H226817   2.630   5.592   3.837  1.6139 -0.8653  0.1529
 1776TIP3   OH226818   1.189   5.135   3.978 -0.0320 -0.1553 -0.0667
 1776TIP3    H126819   1.282   5.133   4.000 -0.1451 -0.5068  0.3853
 1776TIP3    H226820   1.145   5.153   4.061 -0.1226  4.2838 -0.9830
 1777TIP3   OH226821   5.042   6.728  16.018  0.1503 -0.0268 -0.0068
 1777TIP3    H126822   5.125   6.730  16.065  0.2152  0.0668 -0.1241
 1777TIP3    H226823   5.064   6.693  15.932 -0.0188 -0.4702  0.1343
 1778TIP3   OH226824   1.501   6.638  15.242 -0.1501 -0.0753  0.4613
 1778TIP3    H126825   1.556   6.663  15.316 -0.3251  0.3551  0.4477
 1778TIP3    H226826   1.557   6.580  15.189  1.3732  2.7664 -1.1613
 1779TIP3   OH226827   4.934   1.689   5.265  0.2044  0.4146  0.0705
 1779TIP3    H126828   4.870   1.692   5.336 -1.5209 -3.5526 -1.1391
 1779TIP3    H226829   4.905   1.756   5.203 -1.8602 -0.2267  0.3120
 1780TIP3   OH226830   1.388   5.597  11.649 -0.9631  0.2476 -0.1596
 1780TIP3    H126831   1.439   5.598  11.568 -0.7799  2.2483 -0.0211
 1780TIP3    H226832   1.342   5.513  11.646  2.3303 -1.6709 -0.2675
 1781TIP3   OH226833   6.337   6.403  16.778  0.2702 -0.5574 -0.0780
 1781TIP3    H126834   6.342   6.313  16.809  1.1458 -0.5458 -0.1678
 1781TIP3    H226835   6.367   6.399  16.687  1.3035 -0.0265  0.2312
 1782TIP3   OH226836   6.551   5.962  11.617 -0.5973 -0.0923  0.9277
 1782TIP3    H126837   6.539   6.053  11.589  1.1317  0.2579  1.3246
 1782TIP3    H226838   6.466   5.921  11.597 -0.4402  0.8602 -2.0513
 1783TIP3   OH226839   0.066   6.684   5.068 -0.6012  0.5002  0.5929
 1783TIP3    H126840   0.022   6.631   5.002 -0.8060 -0.8292  1.7867
 1783TIP3    H226841   0.043   6.774   5.045  1.0733  0.2286 -2.4071
 1784TIP3   OH226842   4.840   3.621  14.618  0.0327 -0.2188  0.1677
 1784TIP3    H126843   4.927   3.633  14.581  0.5673 -0.9701  1.1733
 1784TIP3    H226844   4.822   3.528  14.607 -0.9640  0.0754 -0.7357
 1785TIP3   OH226845   4.360   5.140   4.997  0.4002  0.7218 -0.3544
 1785TIP3    H126846   4.284   5.095   4.960 -0.3887  0.4260  1.5237
 1785TIP3    H226847   4.432   5.121   4.937 -0.2166 -1.9298 -0.2958
 1786TIP3   OH226848   0.274   5.451  11.474 -0.2047 -0.3994 -0.2429
 1786TIP3    H126849   0.369   5.456  11.458 -0.5931  1.7713 -2.1794
 1786TIP3    H226850   0.236   5.433  11.388 -1.5167 -2.2190  0.6877
 1787TIP3   OH226851   5.349   1.166   5.938  0.4195 -0.6215  0.0951
 1787TIP3    H126852   5.386   1.124   6.015  0.6634 -0.5447  0.0218
 1787TIP3    H226853   5.365   1.260   5.952 -2.0564 -0.3548  1.2781
 1788TIP3   OH226854   3.858   5.107   1.165 -0.1005  0.4563 -0.5532
 1788TIP3    H126855   3.811   5.175   1.117 -0.4457  0.3424 -0.3779
 1788TIP3    H226856   3.818   5.025   1.135 -0.1303  0.3703 -0.2758
 1789TIP3   OH226857   2.212   0.834   4.405 -0.1344  0.1131  0.2908
 1789TIP3    H126858   2.178   0.857   4.318  2.1552 -1.0194 -0.9642
 1789TIP3    H226859   2.155   0.762   4.435  0.8744 -1.5427 -1.6284
 1790TIP3   OH226860   6.150   6.215  14.468 -0.2144  0.2607  0.3077
 1790TIP3    H126861   6.210   6.289  14.467 -0.7716  0.7252 -1.1004
 1790TIP3    H226862   6.186   6.154  14.404 -2.6651  1.7610 -2.6181
 1791TIP3   OH226863   5.414   2.856  13.144  0.0502  0.2208 -0.6084
 1791TIP3    H126864   5.392   2.820  13.229  0.9059  0.5587 -0.2405
 1791TIP3    H226865   5.330   2.860  13.097 -0.2107 -1.1929 -0.2680
 1792TIP3   OH226866   6.343   1.985  11.754 -0.4874  0.3260 -0.2753
 1792TIP3    H126867   6.335   1.934  11.673  1.7957  0.1642 -0.4182
 1792TIP3    H226868   6.391   2.063  11.728  0.0564  0.3830  0.8800
 1793TIP3   OH226869   0.445   2.292  14.950  0.0995 -0.3063  0.4318
 1793TIP3    H126870   0.396   2.210  14.959 -0.4178  0.1980  2.3356
 1793TIP3    H226871   0.379   2.361  14.960  0.5175  0.3622 -1.2378
 1794TIP3   OH226872   0.481   1.556  13.031 -0.3733 -0.1608 -0.7906
 1794TIP3    H126873   0.494   1.633  12.976 -0.9074 -0.7545 -1.7618
 1794TIP3    H226874   0.529   1.486  12.987  1.2493 -0.1018  0.7929
 1795TIP3   OH226875   5.428   0.698  15.920 -0.1784  0.7704 -0.1877
 1795TIP3    H126876   5.373   0.772  15.949 -0.2844  0.6926 -0.1883
 1795TIP3    H226877   5.480   0.675  15.996 -1.6877 -0.5563  0.4730
 1796TIP3   OH226878   0.174   5.809   3.805 -0.3418  0.1935  0.0250
 1796TIP3    H126879   0.126   5.737   3.847 -0.9865  0.6818  0.1452
 1796TIP3    H226880   0.222   5.768   3.733  0.9051 -0.6792  1.3358
 1797TIP3   OH226881   0.609   5.836  14.189 -0.5042 -0.8460 -0.0626
 1797TIP3    H126882   0.572   5.915  14.151 -0.5800  0.7183  3.0997
 1797TIP3    H226883   0.663   5.867  14.262  0.8229 -3.5972  0.1974
 1798TIP3   OH226884   4.241   2.265  15.642 -0.3591 -1.1337 -0.1109
 1798TIP3    H126885   4.150   2.262  15.612 -0.2782 -1.1998 -0.3554
 1798TIP3    H226886   4.274   2.177  15.626 -0.5727 -1.4218  1.0038
 1799TIP3   OH226887   4.355   5.508  16.701  0.1258 -0.1864 -0.8765
 1799TIP3    H126888   4.439   5.465  16.686  0.2213  0.8156 -3.2841
 1799TIP3    H226889   4.372   5.569  16.772  0.8846 -1.5013  0.1005
 1800TIP3   OH226890   4.879   1.051   0.930 -0.1178  0.0431 -0.4976
 1800TIP3    H126891   4.886   0.998   0.851  1.1905 -0.1040 -0.2925
 1800TIP3    H226892   4.926   1.132   0.908  0.3140 -0.0311  0.1558
 1801TIP3   OH226893   1.405   5.705  16.513 -0.7570 -0.1694  0.5353
 1801TIP3    H126894   1.357   5.668  16.586  1.8887 -1.3543  1.7515
 1801TIP3    H226895   1.382   5.651  16.438 -0.0171 -1.8199  1.4707
 1802TIP3   OH226896   5.678   2.173  12.400  0.4464 -0.3639 -0.0551
 1802TIP3    H126897   5.759   2.218  12.373  0.0493 -0.3537 -1.2452
 1802TIP3    H226898   5.613   2.198  12.334 -1.1103  1.3292  2.0569
 1803TIP3   OH226899   0.372   3.942  15.847  0.1172 -0.3763 -1.0713
 1803TIP3    H126900   0.390   4.017  15.903  1.8423 -1.1803 -0.4990
 1803TIP3    H226901   0.459   3.905  15.828 -0.5564 -0.9259 -3.1377
 1804TIP3   OH226902   2.898   6.510  12.874 -0.2846  0.0902 -0.3367
 1804TIP3    H126903   2.948   6.451  12.931 -0.0091 -0.1065 -0.7755
 1804TIP3    H226904   2.945   6.508  12.791 -0.3589  0.8258 -0.3936
 1805TIP3   OH226905   2.942   3.139  15.179  0.0128  0.4443  0.5527
 1805TIP3    H126906   2.974   3.055  15.212 -2.4530 -0.4902  0.6566
 1805TIP3    H226907   2.953   3.199  15.252  3.8709  0.8138 -0.2162
 1806TIP3   OH226908   5.170   6.422  17.269 -0.0415 -0.0815  0.1129
 1806TIP3    H126909   5.234   6.385  17.330 -0.4730 -0.1723  0.5084
 1806TIP3    H226910   5.171   6.516  17.288 -0.3913 -0.1490  0.4599
 1807TIP3   OH226911   1.730   2.416  16.213 -0.1329 -0.3807 -0.4918
 1807TIP3    H126912   1.675   2.359  16.267 -0.8740  0.3465 -0.4779
 1807TIP3    H226913   1.813   2.422  16.262 -1.4187  1.7581  1.5401
 1808TIP3   OH226914   1.143   0.300   5.725  0.2040 -0.1168  0.8646
 1808TIP3    H126915   1.062   0.350   5.726  1.2972  1.7010 -0.2910
 1808TIP3    H226916   1.186   0.322   5.808  0.8623  1.1666  0.1866
 1809TIP3   OH226917   1.740   3.360  11.867 -0.2187 -0.0421 -0.0068
 1809TIP3    H126918   1.822   3.329  11.827 -0.8980 -2.9045  0.7246
 1809TIP3    H226919   1.681   3.372  11.793 -0.3700 -1.9248 -0.2233
 1810TIP3   OH226920   5.337   5.698  16.047 -0.1217  0.5777  0.3884
 1810TIP3    H126921   5.324   5.632  16.116 -0.7829  0.6611  0.3506
 1810TIP3    H226922   5.249   5.715  16.013  0.1912  0.6131 -0.4125
 1811TIP3   OH226923   4.075   3.343  11.829 -0.2003  0.2434  0.1302
 1811TIP3    H126924   3.981   3.337  11.816 -0.2954 -0.3390  1.0917
 1811TIP3    H226925   4.096   3.273  11.891  0.7303  0.9303  0.6018
 1812TIP3   OH226926   4.495   0.789  11.262  0.4025 -0.1434 -0.3018
 1812TIP3    H126927   4.564   0.764  11.200  2.3682  0.0823  1.6970
 1812TIP3    H226928   4.516   0.740  11.341 -0.5941  1.4132  0.9624
 1813TIP3   OH226929   1.429   4.436  12.585 -0.1495  0.4054  0.0834
 1813TIP3    H126930   1.439   4.390  12.669 -0.7679  0.6917  0.3105
 1813TIP3    H226931   1.496   4.396  12.529 -0.1782 -0.2533  0.5062
 1814TIP3   OH226932   2.241   3.017  13.965 -0.5138 -0.3762 -0.0585
 1814TIP3    H126933   2.305   3.011  14.036 -0.2559  0.0492 -0.2516
 1814TIP3    H226934   2.192   2.935  13.970  0.7890 -1.2147 -0.6219
 1815TIP3   OH226935   3.020   4.680   2.174 -0.8165 -0.4336  0.5146
 1815TIP3    H126936   3.021   4.590   2.205  5.3665  0.0437  2.3209
 1815TIP3    H226937   2.985   4.730   2.248 -1.5864 -1.0497  0.5730
 1816TIP3   OH226938   2.526   3.266   0.284 -0.1207 -0.1374 -0.2771
 1816TIP3    H126939   2.601   3.283   0.228 -0.2596  1.2361 -0.0484
 1816TIP3    H226940   2.489   3.184   0.250  0.5283  0.0305 -1.3990
 1817TIP3   OH226941   6.677   1.497  17.015  0.0526 -0.1614  0.3202
 1817TIP3    H126942   6.598   1.548  17.031  0.9757  0.8001  1.9660
 1817TIP3    H226943   6.736   1.557  16.971  1.1721  0.2732  2.3268
 1818TIP3   OH226944   0.146   1.798   2.526 -0.8295  0.1089 -0.3609
 1818TIP3    H126945   0.064   1.756   2.502 -2.0366  0.4599  2.8923
 1818TIP3    H226946   0.213   1.734   2.502 -2.2488 -1.3976 -0.4125
 1819TIP3   OH226947   4.322   4.340  16.005 -0.2292 -0.1392  0.4249
 1819TIP3    H126948   4.376   4.400  15.955 -0.2620  0.2038  0.7975
 1819TIP3    H226949   4.359   4.254  15.988 -1.0022 -0.1682 -1.1737
 1820TIP3   OH226950   6.434   2.540   5.236 -0.4967  0.8677  0.2010
 1820TIP3    H126951   6.353   2.591   5.224 -1.7598 -1.4073 -1.3666
 1820TIP3    H226952   6.424   2.502   5.323 -0.3048  1.9455  0.7103
 1821TIP3   OH226953   0.502   5.034   2.162  0.3896  0.2006 -0.0135
 1821TIP3    H126954   0.553   5.110   2.131 -0.1154  0.8060  0.6175
 1821TIP3    H226955   0.533   5.020   2.251 -0.1124  0.1895  0.1609
 1822TIP3   OH226956   6.397   0.037  12.991  0.0212 -0.0965 -0.2431
 1822TIP3    H126957   6.388  -0.050  13.029  1.4563 -0.5932 -1.0106
 1822TIP3    H226958   6.435   0.021  12.904 -1.1862  1.1699 -1.0225
 1823TIP3   OH226959   6.199   6.089   0.831  0.0283  0.1843  0.2298
 1823TIP3    H126960   6.130   6.118   0.890  0.1502  1.1853 -0.1018
 1823TIP3    H226961   6.278   6.089   0.884  0.6062  3.5148 -0.5071
 1824TIP3   OH226962   2.479   3.929   1.540  0.5071 -0.5756  0.6526
 1824TIP3    H126963   2.470   3.956   1.632 -1.1436 -0.2849  0.4125
 1824TIP3    H226964   2.409   3.976   1.494  0.1928 -2.0937 -0.4544
 1825TIP3   OH226965   5.898   2.578   0.237  0.1940 -0.6580 -0.0404
 1825TIP3    H126966   5.831   2.645   0.251  1.8545  0.9733  0.3584
 1825TIP3    H226967   5.876   2.508   0.299 -0.0013  0.7181  1.4751
 1826TIP3   OH226968   1.433   4.818   6.127  0.3607  0.3274  0.1690
 1826TIP3    H126969   1.417   4.906   6.160  0.2133  0.3269  0.1026
 1826TIP3    H226970   1.528   4.808   6.128  0.3141 -0.0516  1.5895
 1827TIP3   OH226971   4.955   5.999   3.806  0.0213 -0.8552 -0.2206
 1827TIP3    H126972   4.879   6.056   3.816 -0.7263 -1.9008  0.0750
 1827TIP3    H226973   4.966   5.990   3.711  1.0954  1.0310 -0.3007
 1828TIP3   OH226974   2.996   1.016   5.516 -0.4263  0.5591  0.5880
 1828TIP3    H126975   3.019   1.043   5.428  0.8727  0.1777  0.7962
 1828TIP3    H226976   3.052   0.940   5.533 -3.8064 -2.1846  0.0891
 1829TIP3   OH226977   4.270   0.026  11.244  0.4077 -0.1650  0.2283
 1829TIP3    H126978   4.293  -0.002  11.155 -0.2788 -2.0183  0.6046
 1829TIP3    H226979   4.180  -0.004  11.256 -0.7407  3.1469  0.3427
 1830TIP3   OH226980   6.020   0.866   5.439 -0.1179 -0.0676  0.2954
 1830TIP3    H126981   6.090   0.875   5.503 -1.1836 -1.0971  1.6349
 1830TIP3    H226982   6.061   0.889   5.355  2.6323 -3.4717  0.5905
 1831TIP3   OH226983   5.686   1.264  14.930  0.3581 -0.0223  0.1112
 1831TIP3    H126984   5.639   1.321  14.991  1.2005  0.7889  0.0226
 1831TIP3    H226985   5.709   1.322  14.857  0.2967 -0.7369 -0.4778
 1832TIP3   OH226986   1.488   0.031  11.256 -0.0132 -0.6229 -0.0531
 1832TIP3    H126987   1.519   0.038  11.166 -0.9212  0.6162 -0.2850
 1832TIP3    H226988   1.454  -0.058  11.264  1.8741 -1.3890 -0.3436
 1833TIP3   OH226989   2.269   2.508   3.304  0.2508  0.3986  0.0086
 1833TIP3    H126990   2.255   2.415   3.321  1.2209 -0.2677 -2.5147
 1833TIP3    H226991   2.218   2.526   3.225  0.2483  1.9618  0.3401
 1834TIP3   OH226992   6.773   2.731   1.910 -0.1684  0.3118 -0.2295
 1834TIP3    H126993   6.832   2.670   1.953 -0.4344 -0.4084 -0.8886
 1834TIP3    H226994   6.745   2.687   1.830 -1.0370  0.9307 -0.2835
 1835TIP3   OH226995   5.751   4.776  11.351  1.2644 -0.2488  0.0888
 1835TIP3    H126996   5.666   4.738  11.325  2.3738 -1.6028 -1.7182
 1835TIP3    H226997   5.734   4.870  11.354 -0.2153 -0.4550 -0.7079
 1836TIP3   OH226998   4.308   0.577   5.613 -0.0225 -0.1251  0.6095
 1836TIP3    H126999   4.242   0.627   5.661 -0.6135 -0.5742  0.2823
 1836TIP3    H227000   4.289   0.595   5.521 -0.0255 -0.6808  0.4989
 1837TIP3   OH227001   6.552   5.400   1.191  0.1247 -0.5582  0.2782
 1837TIP3    H127002   6.569   5.410   1.097  2.8502 -0.7289  0.6908
 1837TIP3    H227003   6.620   5.339   1.221 -1.8940 -2.0113  2.0188
 1838TIP3   OH227004   1.826   5.012   0.275  0.3129 -0.7073  0.5080
 1838TIP3    H127005   1.768   4.942   0.245  0.3578 -1.2120  1.5584
 1838TIP3    H227006   1.769   5.088   0.287 -0.3244 -1.4608  2.4568
 1839TIP3   OH227007   0.568   5.488  10.920 -0.2578  0.1712 -0.2575
 1839TIP3    H127008   0.508   5.428  10.876 -0.8605  0.3721  0.2860
 1839TIP3    H227009   0.531   5.501  11.007 -0.3902  1.6715 -0.5150
 1840TIP3   OH227010   4.043   3.141   0.713  0.6449  0.4499 -0.0071
 1840TIP3    H127011   4.111   3.083   0.749 -0.6416 -0.9946  0.1483
 1840TIP3    H227012   4.039   3.118   0.620 -0.1085  0.0382  0.1247
 1841TIP3   OH227013   0.700   5.955  13.626  0.5312 -0.1095 -0.0608
 1841TIP3    H127014   0.695   5.868  13.666  1.4869  0.1535  0.6519
 1841TIP3    H227015   0.756   6.005  13.685 -1.1694  1.4258  0.3064
 1842TIP3   OH227016   3.583   4.892  13.830  0.6948 -0.1862 -0.1387
 1842TIP3    H127017   3.558   4.873  13.739  0.9431 -1.2168  0.0077
 1842TIP3    H227018   3.516   4.953  13.861  1.1327  0.9155 -1.3169
 1843TIP3   OH227019   2.352   1.462   1.979 -0.7072  0.1536 -0.8881
 1843TIP3    H127020   2.381   1.551   1.997 -2.7003  0.8576 -1.0936
 1843TIP3    H227021   2.353   1.418   2.064 -3.6923  1.5733 -0.0531
 1844TIP3   OH227022   3.152   5.141  14.577  0.7121  0.1936 -0.7992
 1844TIP3    H127023   3.224   5.182  14.625 -1.0636  0.2066  1.9363
 1844TIP3    H227024   3.115   5.213  14.524  0.9945  0.8550 -0.1096
 1845TIP3   OH227025   5.003   1.353   0.147 -0.1462 -0.3301 -0.3371
 1845TIP3    H127026   5.026   1.273   0.194 -0.1929 -0.4889 -0.5901
 1845TIP3    H227027   5.083   1.405   0.147 -0.0607 -0.4629 -0.3514
 1846TIP3   OH227028   5.228   0.960   0.799 -0.1944  0.0033 -0.9716
 1846TIP3    H127029   5.241   0.976   0.706  0.4156 -0.7091 -1.0160
 1846TIP3    H227030   5.181   1.037   0.831 -0.0348  0.4386 -1.7801
 1847TIP3   OH227031   5.990   5.197  11.200  0.3096 -0.3032 -0.0811
 1847TIP3    H127032   6.012   5.222  11.111  0.3175  0.1159  0.0347
 1847TIP3    H227033   6.013   5.105  11.206  1.7173  0.0345 -0.0620
 1848TIP3   OH227034   1.836   2.902   1.700 -0.3819  1.0035 -0.2724
 1848TIP3    H127035   1.768   2.890   1.633  0.2918  1.1712 -0.9876
 1848TIP3    H227036   1.918   2.880   1.656 -0.0177  0.2717  0.7456
 1849TIP3   OH227037   2.609   3.111  14.539 -0.6760  0.2370  0.2723
 1849TIP3    H127038   2.696   3.074  14.521 -1.2243 -1.6932  1.4578
 1849TIP3    H227039   2.605   3.117  14.634 -1.7101  0.6907  0.2037
 1850TIP3   OH227040   0.674   2.957  13.136 -0.0542 -0.3366  0.2540
 1850TIP3    H127041   0.636   2.942  13.049 -1.3918  0.0622  0.7526
 1850TIP3    H227042   0.717   3.043  13.128  0.5838 -0.6989 -0.2582
 1851TIP3   OH227043   1.282   1.918  14.139  0.1623 -0.2414  0.1849
 1851TIP3    H127044   1.268   2.012  14.130  0.1332 -0.4186 -1.9990
 1851TIP3    H227045   1.219   1.890  14.205  1.0371  1.4698  1.7608
 1852TIP3   OH227046   5.889   2.304   5.018  0.1842 -0.1585  0.1001
 1852TIP3    H127047   5.940   2.267   4.946 -0.9235 -1.8913  0.1673
 1852TIP3    H227048   5.946   2.369   5.057  0.0806  2.3907 -3.6719
 1853TIP3   OH227049   6.117   5.468   1.379 -0.5179 -0.1799 -0.3365
 1853TIP3    H127050   6.097   5.533   1.312 -3.3939  0.7827  1.3422
 1853TIP3    H227051   6.139   5.519   1.457 -3.4387 -1.1251  1.1887
 1854TIP3   OH227052   6.422   1.851   4.130 -0.8622  0.4551  0.5452
 1854TIP3    H127053   6.449   1.932   4.086 -1.3446 -0.0080 -0.6215
 1854TIP3    H227054   6.329   1.844   4.112 -0.4597 -1.3723 -1.0435
 1855TIP3   OH227055   1.740   5.692  13.715 -0.6391  0.1589 -0.4287
 1855TIP3    H127056   1.745   5.657  13.627  0.3892  0.5197 -0.5168
 1855TIP3    H227057   1.802   5.765  13.716  1.1125 -1.3013  1.2543
 1856TIP3   OH227058   4.963   0.484  16.552 -0.8551 -0.2449 -0.0774
 1856TIP3    H127059   4.876   0.444  16.557 -0.9706 -0.0259 -0.3453
 1856TIP3    H227060   4.954   0.553  16.486 -0.5523 -0.0374  0.0990
 1857TIP3   OH227061   4.306   1.470  11.967 -0.2886 -0.1405 -0.6941
 1857TIP3    H127062   4.262   1.555  11.962 -0.6373 -0.3280 -0.8841
 1857TIP3    H227063   4.234   1.406  11.966 -0.1572 -0.3714  1.7240
 1858TIP3   OH227064   3.657   4.119   3.929  0.5012 -0.0653  0.2866
 1858TIP3    H127065   3.649   4.031   3.966 -0.1659 -0.0626  0.1560
 1858TIP3    H227066   3.584   4.126   3.867 -0.4520  1.1897  1.5266
 1859TIP3   OH227067   3.614   3.654   3.763  0.0610  0.8129  0.1065
 1859TIP3    H127068   3.666   3.576   3.742 -0.3999  0.5290  0.0107
 1859TIP3    H227069   3.531   3.640   3.717 -1.2038 -0.0912  2.5959
 1860TIP3   OH227070   2.401   5.354  11.585  0.2854 -0.0304  0.4386
 1860TIP3    H127071   2.424   5.272  11.629  0.9787 -0.9693 -1.6385
 1860TIP3    H227072   2.405   5.333  11.492 -0.3903  2.1489 -0.0971
 1861TIP3   OH227073   6.609   6.085  15.230  0.2526 -0.5218 -0.3592
 1861TIP3    H127074   6.527   6.105  15.184  0.2234 -3.1238 -1.5255
 1861TIP3    H227075   6.594   6.118  15.319 -0.8310  1.8758 -1.3738
 1862TIP3   OH227076   3.444   1.898   5.803 -0.4690 -0.8245  0.5337
 1862TIP3    H127077   3.444   1.911   5.708 -1.2394  1.5336  0.8220
 1862TIP3    H227078   3.526   1.940   5.832  0.1203 -2.1726  0.8417
 1863TIP3   OH227079   5.972   2.307  13.095 -0.6071  0.2837 -0.1921
 1863TIP3    H127080   6.024   2.320  13.015 -1.6921  0.7147 -0.8450
 1863TIP3    H227081   5.917   2.386  13.100  0.2478  0.7867  1.5958
 1864TIP3   OH227082   1.986   2.592   1.490  0.3939 -0.1712 -0.0152
 1864TIP3    H127083   1.892   2.608   1.497  0.2732 -1.1922  0.8710
 1864TIP3    H227084   2.027   2.672   1.524 -0.1664 -0.1195  0.5505
 1865TIP3   OH227085   2.496   4.713   4.180 -0.0877  0.3963 -0.0897
 1865TIP3    H127086   2.464   4.802   4.169 -0.3083  0.3958  0.5194
 1865TIP3    H227087   2.543   4.694   4.099 -0.0701  1.0528 -0.2345
 1866TIP3   OH227088   4.311   1.116   3.690  0.4430  0.2490 -0.3229
 1866TIP3    H127089   4.284   1.107   3.781  0.7502  1.4903 -0.1085
 1866TIP3    H227090   4.379   1.049   3.679 -2.5498 -2.9003 -0.8611
 1867TIP3   OH227091   1.906   4.648  13.707  0.4437  0.0551 -0.3149
 1867TIP3    H127092   1.841   4.718  13.703  0.0786 -0.1996  0.9300
 1867TIP3    H227093   1.889   4.596  13.629 -1.2131 -0.3161  0.2722
 1868TIP3   OH227094   2.644   1.602   5.225 -0.1681 -0.0544  0.1683
 1868TIP3    H127095   2.617   1.527   5.171 -1.3712  0.7388 -0.3628
 1868TIP3    H227096   2.679   1.563   5.304  0.6335 -1.2246 -0.7438
 1869TIP3   OH227097   2.717   3.482   5.181 -0.1885 -0.1129  0.0073
 1869TIP3    H127098   2.804   3.442   5.170  0.0081  0.5173 -0.8064
 1869TIP3    H227099   2.702   3.528   5.098 -2.2160 -1.9816 -0.6957
 1870TIP3   OH227100   5.929   1.787  11.851  0.8308  1.1596  0.3612
 1870TIP3    H127101   5.975   1.869  11.870 -0.7406  1.5090  2.7521
 1870TIP3    H227102   5.837   1.811  11.847  0.4130 -0.3853  0.4121
 1871TIP3   OH227103   0.617   2.872  16.040 -0.2687 -0.4427  0.1453
 1871TIP3    H127104   0.665   2.920  15.971  0.1012  0.1197  0.7866
 1871TIP3    H227105   0.677   2.802  16.066  0.3087  0.4028  1.1113
 1872TIP3   OH227106   6.739   2.236   0.581  0.2129  1.2221 -0.8982
 1872TIP3    H127107   6.694   2.289   0.646 -2.5531 -1.5338 -0.4529
 1872TIP3    H227108   6.802   2.183   0.631  1.0173  2.0592 -1.0089
 1873TIP3   OH227109   6.664   1.833   4.935 -0.2017  0.1512  0.1612
 1873TIP3    H127110   6.707   1.768   4.991  0.4407  0.6307  0.2432
 1873TIP3    H227111   6.606   1.782   4.878  0.4929 -0.5180  0.0385
 1874TIP3   OH227112   0.482   2.804  16.279  0.3778  0.3904  0.4403
 1874TIP3    H127113   0.509   2.878  16.225  0.0063  0.2034 -0.0035
 1874TIP3    H227114   0.439   2.744  16.218 -0.7207  0.5211  1.0720
 1875TIP3   OH227115   5.931   3.229  14.028  0.2781 -0.3706  0.1758
 1875TIP3    H127116   5.860   3.190  14.080  0.9738  1.7970  2.8766
 1875TIP3    H227117   6.009   3.179  14.055  0.3185 -0.5502 -0.2765
 1876TIP3   OH227118   6.486   2.051   2.906 -0.1921 -0.1943  0.1900
 1876TIP3    H127119   6.537   2.091   2.977  1.2439 -2.2050  0.3460
 1876TIP3    H227120   6.441   1.977   2.947  0.0697 -0.9326 -0.8229
 1877TIP3   OH227121   0.570   2.161  15.787  0.7639  0.6460 -0.1624
 1877TIP3    H127122   0.643   2.220  15.767  0.9423 -0.1118 -1.8752
 1877TIP3    H227123   0.494   2.201  15.746  0.9650 -0.4816 -1.7008
 1878TIP3   OH227124   2.556   1.404  16.027  0.2880 -0.5247 -0.0616
 1878TIP3    H127125   2.648   1.408  16.051  1.0187  0.8279 -2.9053
 1878TIP3    H227126   2.539   1.485  15.978 -2.7495 -0.1259  1.4975
 1879TIP3   OH227127   5.317   6.617  12.961 -0.6995  0.1723 -0.1011
 1879TIP3    H127128   5.339   6.652  12.875 -0.8200 -3.1877 -1.6084
 1879TIP3    H227129   5.222   6.604  12.957 -0.5373 -1.1351  0.0387
 1880TIP3   OH227130   3.377   3.099   1.435  0.4539 -0.1867 -0.2357
 1880TIP3    H127131   3.289   3.102   1.471  0.4041  0.8110 -0.4331
 1880TIP3    H227132   3.367   3.058   1.349  0.2512 -0.4730 -0.0773
 1881TIP3   OH227133   2.051   0.261  13.362  0.1309  0.6084  0.2314
 1881TIP3    H127134   2.107   0.335  13.386 -0.0966  0.1693  2.1655
 1881TIP3    H227135   2.103   0.184  13.385  0.1291  0.1483 -1.2396
 1882TIP3   OH227136   0.476   5.225  13.148  0.2251  0.0923  0.3364
 1882TIP3    H127137   0.432   5.293  13.198  0.3254  0.4642 -0.0745
 1882TIP3    H227138   0.469   5.146  13.202 -0.1926  0.3489  0.6546
 1883TIP3   OH227139   5.298   2.893  15.287 -0.0479 -0.2256  0.0887
 1883TIP3    H127140   5.217   2.842  15.288  1.1951 -2.3607 -2.7917
 1883TIP3    H227141   5.268   2.984  15.292 -2.5516 -1.0098  0.3489
 1884TIP3   OH227142   2.719   6.557   2.017  0.0567 -0.7584 -0.2874
 1884TIP3    H127143   2.788   6.505   2.057  0.2356 -2.3404 -2.5670
 1884TIP3    H227144   2.641   6.538   2.068  1.4052  1.7611  2.9071
 1885TIP3   OH227145   2.962   3.242   0.549  0.1955 -0.6667 -0.1770
 1885TIP3    H127146   2.913   3.160   0.546  0.0040 -0.6042  1.0388
 1885TIP3    H227147   2.985   3.253   0.641 -0.7343  1.1981 -0.1504
 1886TIP3   OH227148   2.313   6.585  16.373 -0.3061  0.4939  0.3090
 1886TIP3    H127149   2.318   6.540  16.288 -1.0097 -0.5691  0.8215
 1886TIP3    H227150   2.372   6.659  16.364 -0.5832  0.5558 -1.2193
 1887TIP3   OH227151   1.157   6.755   1.926 -0.2182  0.2637  0.4283
 1887TIP3    H127152   1.149   6.669   1.883  0.4490  0.4696 -0.1053
 1887TIP3    H227153   1.069   6.771   1.961 -0.7508  0.0402 -0.7547
 1888TIP3   OH227154   1.222   4.467  13.170 -0.2303  0.1447  0.2484
 1888TIP3    H127155   1.215   4.531  13.241  0.2018 -0.2344  0.6343
 1888TIP3    H227156   1.286   4.506  13.109  1.1640 -0.5824  1.2096
 1889TIP3   OH227157   3.901   1.577   2.480 -0.1918 -0.0585  0.6854
 1889TIP3    H127158   3.832   1.634   2.512 -0.5428  0.1934 -0.4910
 1889TIP3    H227159   3.942   1.626   2.409  0.0443 -0.9256  0.2114
 1890TIP3   OH227160   2.394   6.169   4.241 -0.0151 -0.1988 -0.6495
 1890TIP3    H127161   2.418   6.164   4.149 -0.9757  0.1397 -0.9298
 1890TIP3    H227162   2.316   6.225   4.242  0.0687 -0.0962  0.3808
 1891TIP3   OH227163   5.570   0.045  15.237  0.1002 -0.9587  0.4455
 1891TIP3    H127164   5.582  -0.041  15.197  0.3139 -1.0988  0.8087
 1891TIP3    H227165   5.503   0.030  15.304  0.1239 -0.8369  0.4964
 1892TIP3   OH227166   3.192   0.615   4.599  0.3228  0.2812  0.5531
 1892TIP3    H127167   3.281   0.645   4.583  0.8384 -0.4450  2.0361
 1892TIP3    H227168   3.181   0.620   4.694 -0.8006 -0.8120  0.4974
 1893TIP3   OH227169   2.873   1.225   3.883 -0.1002 -1.1304  0.4030
 1893TIP3    H127170   2.959   1.267   3.877  0.0719 -1.4665  0.4902
 1893TIP3    H227171   2.890   1.143   3.929 -0.6348 -0.7358  1.3074
 1894TIP3   OH227172   4.848   0.372   2.652  0.2092  0.3858  0.4354
 1894TIP3    H127173   4.831   0.447   2.710 -2.3776 -0.2032  0.4959
 1894TIP3    H227174   4.928   0.333   2.687 -0.8090  0.5476  3.1460
 1895TIP3   OH227175   2.319   4.227  14.337  0.2664 -0.6358  0.2090
 1895TIP3    H127176   2.267   4.224  14.256  0.2990 -1.0733  0.2009
 1895TIP3    H227177   2.372   4.147  14.334  1.4975  0.1734 -0.1553
 1896TIP3   OH227178   5.223   2.290  14.489 -0.1745 -0.5480 -0.7202
 1896TIP3    H127179   5.217   2.347  14.412  0.3133 -0.3684 -0.6251
 1896TIP3    H227180   5.140   2.303  14.534 -0.3437 -0.4295 -1.0635
 1897TIP3   OH227181   5.244   5.099  11.110 -0.5370  0.3193  0.0133
 1897TIP3    H127182   5.242   5.099  11.014 -0.3669  0.0426  0.0099
 1897TIP3    H227183   5.327   5.056  11.132 -1.3898 -1.2042  0.3046
 1898TIP3   OH227184   0.147   6.014  12.883 -0.0162  0.2360 -0.5464
 1898TIP3    H127185   0.099   6.097  12.887 -1.0400 -0.4212  1.5163
 1898TIP3    H227186   0.144   5.989  12.791 -3.1183  0.5312 -0.5631
 1899TIP3   OH227187   3.626   1.938   1.755  0.0150  0.2239  0.4184
 1899TIP3    H127188   3.624   2.034   1.751 -0.8359  0.1324 -3.4834
 1899TIP3    H227189   3.538   1.913   1.784 -0.2396  0.6119 -0.0029
 1900TIP3   OH227190   2.230   2.110   3.551  0.2365  0.6722  0.0076
 1900TIP3    H127191   2.313   2.066   3.573 -0.5056 -1.0718 -0.5782
 1900TIP3    H227192   2.194   2.135   3.636  1.2340  1.2077  0.2826
 1901TIP3   OH227193   3.572   3.784  12.603 -0.3054  0.0537 -0.1602
 1901TIP3    H127194   3.603   3.870  12.571  0.6438 -0.8643 -1.8239
 1901TIP3    H227195   3.648   3.748  12.649 -0.9934  0.4737  1.3095
 1902TIP3   OH227196   4.544   3.826   1.095 -0.5887 -0.0080  0.3133
 1902TIP3    H127197   4.518   3.901   1.042  1.6720  1.0926  0.6794
 1902TIP3    H227198   4.584   3.765   1.033  2.7101  1.5895  0.7592
 1903TIP3   OH227199   3.493   2.160   4.245 -0.1069 -0.4632  0.3491
 1903TIP3    H127200   3.576   2.157   4.198  0.1463  1.9892  0.5810
 1903TIP3    H227201   3.500   2.092   4.312  0.7261 -1.9109 -1.1830
 1904TIP3   OH227202   0.205   4.762  16.966 -0.0812  0.1309  0.3316
 1904TIP3    H127203   0.179   4.758  16.874  0.9116 -1.1336  0.1016
 1904TIP3    H227204   0.133   4.721  17.013 -1.0206  1.6206  0.2172
 1905TIP3   OH227205   1.951   2.215   2.022  0.0056 -0.2827 -0.0601
 1905TIP3    H127206   1.890   2.142   2.031  0.5261 -0.5298  1.6448
 1905TIP3    H227207   2.037   2.174   2.013 -0.0090  0.0708 -1.9703
 1906TIP3   OH227208   3.497   1.640  12.848  0.9239  0.1819  0.0914
 1906TIP3    H127209   3.442   1.675  12.777  0.4996 -0.3580  0.1528
 1906TIP3    H227210   3.436   1.598  12.907  1.4218 -0.5633  0.0837
 1907TIP3   OH227211   3.591   1.892  15.006 -0.3535  0.1893  0.4122
 1907TIP3    H127212   3.546   1.815  15.040 -0.1515 -0.9274 -1.7432
 1907TIP3    H227213   3.559   1.964  15.060 -2.4951 -1.0113  0.8138
 1908TIP3   OH227214   0.807   2.377  14.121  0.4683 -0.2374 -0.3374
 1908TIP3    H127215   0.813   2.303  14.061 -0.7969  1.0267 -2.0986
 1908TIP3    H227216   0.882   2.432  14.099  0.9111 -0.5461  0.3676
 1909TIP3   OH227217   5.335   2.954  13.794  0.4119 -0.3819  0.3595
 1909TIP3    H127218   5.256   2.976  13.744  0.5958  1.0044  0.6731
 1909TIP3    H227219   5.366   2.872  13.754 -0.1264  0.0652 -1.0116
 1910TIP3   OH227220   3.778   3.590  11.942 -0.6294 -0.2331 -1.3007
 1910TIP3    H127221   3.775   3.520  11.876 -0.5841 -0.9267 -0.5651
 1910TIP3    H227222   3.759   3.670  11.892 -2.2902 -0.9508 -1.8714
 1911TIP3   OH227223   0.877   2.852  13.420 -0.0752  0.4559 -0.1473
 1911TIP3    H127224   0.811   2.889  13.479  0.9628 -0.3914  1.5532
 1911TIP3    H227225   0.835   2.774  13.384 -0.3698  0.4701  0.1555
 1912TIP3   OH227226   5.466   3.281   0.772  0.1646  0.1096 -0.2408
 1912TIP3    H127227   5.544   3.321   0.734  0.0589  0.8535  0.3200
 1912TIP3    H227228   5.405   3.354   0.784 -0.4655 -0.4031 -0.2921
 1913TIP3   OH227229   0.249   6.324  10.904 -0.5080  0.2900 -0.3582
 1913TIP3    H127230   0.269   6.233  10.927 -0.2636  0.3716 -0.2365
 1913TIP3    H227231   0.314   6.375  10.953 -0.5634  0.5204 -0.5250
 1914TIP3   OH227232   5.187   2.695   5.017 -0.3916 -0.0924  0.7124
 1914TIP3    H127233   5.149   2.679   4.931  1.8698  1.0190 -0.5273
 1914TIP3    H227234   5.267   2.643   5.017  0.5109  1.2744  1.4740
 1915TIP3   OH227235   6.132   4.185  16.175  0.4279 -0.9882 -0.0871
 1915TIP3    H127236   6.056   4.189  16.232  2.0079  1.8931  1.9611
 1915TIP3    H227237   6.110   4.243  16.101  0.5590 -0.2693  0.4319
 1916TIP3   OH227238   5.526   0.614   3.545  0.3473  0.2365 -0.5282
 1916TIP3    H127239   5.549   0.697   3.504  0.6487  0.4423  0.0592
 1916TIP3    H227240   5.438   0.595   3.512  0.3955  0.6380 -0.8959
 1917TIP3   OH227241   0.955   6.052   6.271 -0.4513  0.4662 -0.7300
 1917TIP3    H127242   0.910   5.968   6.280 -0.7837  0.7233  0.0334
 1917TIP3    H227243   1.041   6.029   6.235 -1.2184 -0.0204 -2.3347
 1918TIP3   OH227244   3.572   1.108   4.677  0.2248 -0.3827  0.0712
 1918TIP3    H127245   3.594   1.064   4.759  0.5195  0.8779  0.6871
 1918TIP3    H227246   3.477   1.105   4.671  0.3012 -2.0204 -0.4231
 1919TIP3   OH227247   3.728   5.092   2.386  0.6765 -0.1107  0.5942
 1919TIP3    H127248   3.684   5.114   2.304 -0.0519  0.9244  1.2466
 1919TIP3    H227249   3.773   5.009   2.368 -2.6936 -1.9640  0.3253
 1920TIP3   OH227250   1.945   2.194   1.084 -0.1585  0.2084  0.0951
 1920TIP3    H127251   1.898   2.275   1.065  0.2073  0.1902 -0.9184
 1920TIP3    H227252   1.982   2.168   1.000  3.1520  1.1634  1.1787
 1921TIP3   OH227253   0.481   3.633  16.832  0.2413  0.0873  0.4572
 1921TIP3    H127254   0.557   3.671  16.877 -1.3067  1.5939  1.8434
 1921TIP3    H227255   0.476   3.544  16.866  1.3983 -0.0407  0.3307
 1922TIP3   OH227256   3.267   2.080   0.794  0.4200 -0.5500 -0.1549
 1922TIP3    H127257   3.280   2.162   0.746 -1.4264  0.0490  0.3173
 1922TIP3    H227258   3.315   2.093   0.877 -2.0491  1.1463  1.0726
 1923TIP3   OH227259   0.451   4.893  12.486  0.3706  0.5817  0.1601
 1923TIP3    H127260   0.445   4.864  12.395  0.6042 -0.3970  0.4489
 1923TIP3    H227261   0.361   4.912  12.512 -0.1477 -2.4135  0.7579
 1924TIP3   OH227262   5.244   6.300  12.313 -0.2242  0.2224  0.1861
 1924TIP3    H127263   5.282   6.360  12.249 -0.2097 -0.6636 -0.6555
 1924TIP3    H227264   5.317   6.277  12.370 -0.0124  0.2970 -0.0529
 1925TIP3   OH227265   4.934   5.240   1.561 -0.0315 -0.1013 -0.0303
 1925TIP3    H127266   5.001   5.183   1.523  0.2810  1.4488 -1.8490
 1925TIP3    H227267   4.901   5.291   1.488 -4.3259 -1.9041  0.5115
 1926TIP3   OH227268   3.627   4.751   1.299  0.0480  0.0534  0.9034
 1926TIP3    H127269   3.584   4.804   1.232  0.4491 -0.9245 -0.1431
 1926TIP3    H227270   3.713   4.792   1.310 -0.5918  1.1283  1.9328
 1927TIP3   OH227271   1.976   1.668  11.563  0.5084 -0.8311  0.0298
 1927TIP3    H127272   2.054   1.638  11.609  0.8546 -1.5844 -1.0340
 1927TIP3    H227273   1.906   1.665  11.629  1.3804 -0.1115  0.9970
 1928TIP3   OH227274   2.734   3.810   4.005 -0.0838 -0.1490 -0.5719
 1928TIP3    H127275   2.656   3.786   4.054  1.8207 -0.6980  2.3198
 1928TIP3    H227276   2.766   3.727   3.970  1.1540 -0.4792  1.2809
 1929TIP3   OH227277   6.042   1.519   3.305  0.0727 -0.1500 -0.2905
 1929TIP3    H127278   6.010   1.522   3.214  2.0454 -0.0084 -1.0000
 1929TIP3    H227279   5.979   1.465   3.351 -0.4417 -1.0028 -1.9649
 1930TIP3   OH227280   5.284   3.930  15.732 -0.4316  0.1410 -0.2603
 1930TIP3    H127281   5.192   3.904  15.740 -1.0521  2.2123 -0.3440
 1930TIP3    H227282   5.314   3.887  15.652 -1.3060 -0.6214 -0.1858
 1931TIP3   OH227283   6.014   0.838  17.132  0.0059  0.1262 -0.4405
 1931TIP3    H127284   5.927   0.842  17.172 -0.2403 -0.9208 -0.8645
 1931TIP3    H227285   6.035   0.929  17.111 -1.4776  0.2609 -1.3857
 1932TIP3   OH227286   4.831   2.844   5.539  0.3026 -0.0452  0.4748
 1932TIP3    H127287   4.881   2.857   5.459 -0.4716  0.5246  0.0735
 1932TIP3    H227288   4.883   2.782   5.590  0.7583 -0.4820 -0.4994
 1933TIP3   OH227289   4.342   2.524  14.280  0.8490  0.5084 -0.0202
 1933TIP3    H127290   4.297   2.505  14.363 -0.4140  1.5533 -0.4384
 1933TIP3    H227291   4.317   2.615  14.260  1.4415  0.3850 -1.3635
 1934TIP3   OH227292   2.060   3.645  11.423  0.9703  0.2825 -0.0014
 1934TIP3    H127293   2.011   3.647  11.341  0.3650  2.9063  0.3794
 1934TIP3    H227294   1.994   3.631  11.491  1.2506 -0.1780  0.1747
 1935TIP3   OH227295   5.001   5.858   6.482  0.0968  0.5358 -0.4275
 1935TIP3    H127296   5.001   5.765   6.502  1.4742  0.5609 -0.2389
 1935TIP3    H227297   5.023   5.863   6.389 -0.4631  0.6588 -0.5575
 1936TIP3   OH227298   1.804   0.265  15.798  0.3134  0.1582 -0.2925
 1936TIP3    H127299   1.842   0.179  15.779  3.7027  1.5637 -0.2921
 1936TIP3    H227300   1.820   0.277  15.892 -0.4918  0.6551 -0.2177
 1937TIP3   OH227301   0.990   3.643  16.001  0.0814 -0.4031 -0.1047
 1937TIP3    H127302   1.029   3.653  16.088 -1.2507 -0.9088  0.5493
 1937TIP3    H227303   0.901   3.675  16.011  1.0593  3.2005 -2.2315
 1938TIP3   OH227304   4.751   6.422  12.910  0.4286 -0.1122 -0.0454
 1938TIP3    H127305   4.831   6.445  12.864  0.8166 -2.3560 -0.5142
 1938TIP3    H227306   4.681   6.463  12.858  1.1276  0.5014 -0.5140
 1939TIP3   OH227307   5.561   1.671   1.178 -0.6523 -0.3237 -0.1525
 1939TIP3    H127308   5.652   1.693   1.199 -1.1238  0.5926  0.9478
 1939TIP3    H227309   5.530   1.623   1.255 -1.2209 -0.3075 -0.3683
 1940TIP3   OH227310   5.631   1.134  16.280 -0.0453  0.0172  0.2453
 1940TIP3    H127311   5.692   1.103  16.214  0.0345  0.5489  0.0670
 1940TIP3    H227312   5.553   1.079  16.269 -0.8080  1.4079 -1.6444
 1941TIP3   OH227313   5.125   6.432   0.585 -0.2585 -0.0790 -0.2755
 1941TIP3    H127314   5.172   6.372   0.644 -0.0343  1.0529  0.7131
 1941TIP3    H227315   5.033   6.419   0.606 -0.1399  0.8994  0.9117
 1942TIP3   OH227316   3.096   2.904  13.882  0.0430 -0.4138 -0.7786
 1942TIP3    H127317   3.049   2.977  13.921  0.7092 -0.2531 -0.2718
 1942TIP3    H227318   3.082   2.831  13.943 -0.1324 -0.5587 -0.9870
 1943TIP3   OH227319   1.216   0.908   1.373 -0.0967  0.1197  0.6328
 1943TIP3    H127320   1.291   0.933   1.318 -0.3428 -0.1326  0.1783
 1943TIP3    H227321   1.241   0.935   1.461 -0.2257  1.6646  0.2075
 1944TIP3   OH227322   3.355   0.452   2.131  0.0316  0.6362  0.6749
 1944TIP3    H127323   3.316   0.419   2.212  0.8179 -0.4712  0.6272
 1944TIP3    H227324   3.448   0.430   2.140  0.2272  1.0931 -0.2414
 1945TIP3   OH227325   2.140   3.775   4.317 -0.0573 -0.0417  0.2210
 1945TIP3    H127326   2.211   3.724   4.279  0.2720 -0.0578  0.8453
 1945TIP3    H227327   2.145   3.860   4.274  0.2164 -0.1066  0.1260
 1946TIP3   OH227328   4.837   2.449  14.307 -0.2055  0.7924 -0.3045
 1946TIP3    H127329   4.812   2.504  14.232  1.6704  0.5985 -1.1066
 1946TIP3    H227330   4.930   2.467  14.319 -0.4945  0.8146  2.0178
 1947TIP3   OH227331   4.580   3.380   2.339 -0.2264 -0.6238  0.5196
 1947TIP3    H127332   4.636   3.453   2.312 -0.4039  0.4769  2.9885
 1947TIP3    H227333   4.507   3.383   2.277  1.0037 -0.2957 -0.9633
 1948TIP3   OH227334   1.299   2.085   5.561  0.1472  0.2136 -0.6325
 1948TIP3    H127335   1.350   2.072   5.481 -0.0301  0.7529 -0.8421
 1948TIP3    H227336   1.303   2.180   5.576  1.2835 -0.0522  0.7386
 1949TIP3   OH227337   1.368   2.231   4.689  0.5433 -0.1895 -0.3381
 1949TIP3    H127338   1.279   2.256   4.712 -0.1511 -3.3691  0.5930
 1949TIP3    H227339   1.418   2.312   4.698 -2.0927  1.4774 -0.1705
 1950TIP3   OH227340   5.582   1.090   2.769  0.1454  0.2971 -0.0482
 1950TIP3    H127341   5.591   1.033   2.692 -2.1620  1.1866 -1.0372
 1950TIP3    H227342   5.557   1.175   2.732 -0.9719  0.7315  1.6732
 1951TIP3   OH227343   5.561   5.014  17.003 -0.3759  0.0674  0.8215
 1951TIP3    H127344   5.470   5.015  17.031 -0.7655 -1.0565 -0.3801
 1951TIP3    H227345   5.596   4.931  17.037 -0.4191 -0.5482 -0.6072
 1952TIP3   OH227346   2.386   3.755   3.691 -0.0127  0.8254 -0.2498
 1952TIP3    H127347   2.314   3.762   3.753 -0.9243  1.2212 -1.3418
 1952TIP3    H227348   2.346   3.722   3.611  1.5754 -2.0209  0.0865
 1953TIP3   OH227349   3.243   2.107   6.391 -0.0745 -0.0327 -0.6278
 1953TIP3    H127350   3.237   2.012   6.384  1.2433 -0.1536 -0.2488
 1953TIP3    H227351   3.307   2.122   6.460 -0.7334  1.1387 -0.2568
 1954TIP3   OH227352   1.638   0.222  13.075 -0.0355 -0.2925 -0.3309
 1954TIP3    H127353   1.642   0.127  13.073 -0.6043 -0.3791  1.3905
 1954TIP3    H227354   1.723   0.251  13.042  0.0333 -1.3923 -1.1302
 1955TIP3   OH227355   1.362   2.055  17.222 -0.1916  0.3367 -0.2160
 1955TIP3    H127356   1.327   1.969  17.245 -0.9375  1.4317  2.9354
 1955TIP3    H227357   1.295   2.095  17.167 -1.4426  0.2807  1.2481
 1956TIP3   OH227358   2.794   1.899  15.493 -0.4250 -0.1289  0.1353
 1956TIP3    H127359   2.737   1.968  15.527 -1.3138 -0.2895 -0.9849
 1956TIP3    H227360   2.819   1.930  15.406  0.7149 -0.3494  0.3852
 1957TIP3   OH227361   4.374   0.124  11.931  0.3750  0.0676  0.3349
 1957TIP3    H127362   4.308   0.090  11.991  0.4822 -0.2972  0.2501
 1957TIP3    H227363   4.397   0.049  11.876  2.3099 -0.3404  1.6716
 1958TIP3   OH227364   3.110   6.590  14.714  1.3465 -0.1519  0.7819
 1958TIP3    H127365   3.177   6.611  14.648  0.1761 -0.5019 -0.5280
 1958TIP3    H227366   3.084   6.500  14.694  0.4838 -0.0208  1.3048
 1959TIP3   OH227367   2.574   3.287  14.328 -0.4784 -0.1801  0.4283
 1959TIP3    H127368   2.591   3.317  14.417  0.1675 -0.7586  0.5003
 1959TIP3    H227369   2.508   3.218  14.339 -0.7754  0.1030  0.4152
 1960TIP3   OH227370   2.303   6.590  14.576  0.5736  0.0689  0.1986
 1960TIP3    H127371   2.237   6.521  14.585  0.2704  0.5601  1.8850
 1960TIP3    H227372   2.314   6.624  14.665  1.6108  1.3700 -0.4188
 1961TIP3   OH227373   4.759   2.471  10.957  0.4942  0.1174  0.5717
 1961TIP3    H127374   4.729   2.528  10.886  0.4528  1.7057  1.8428
 1961TIP3    H227375   4.777   2.388  10.914 -1.2511  0.5102 -1.0073
 1962TIP3   OH227376   3.261   2.930  15.721  0.0685 -0.3539 -0.4897
 1962TIP3    H127377   3.209   2.999  15.761 -0.2538 -0.1490 -1.2562
 1962TIP3    H227378   3.237   2.851  15.771 -0.4236 -0.1286 -0.3629
 1963TIP3   OH227379   4.433   6.398   1.078 -0.8862 -0.2124  0.0131
 1963TIP3    H127380   4.423   6.430   0.988 -0.7988 -0.4240 -0.0719
 1963TIP3    H227381   4.482   6.468   1.122  0.7613 -0.9441 -0.6022
 1964TIP3   OH227382   6.517   0.771   6.435  0.0403  0.0427 -0.1236
 1964TIP3    H127383   6.552   0.683   6.450  0.6097  0.2680 -0.1206
 1964TIP3    H227384   6.430   0.756   6.399  0.2129 -0.5239 -0.3155
 1965TIP3   OH227385   0.188   1.244  13.326 -0.2686  0.1379 -0.2923
 1965TIP3    H127386   0.268   1.192  13.333  0.7134  1.5223 -1.1204
 1965TIP3    H227387   0.119   1.179  13.311  0.7932 -1.0076 -0.2686
 1966TIP3   OH227388   5.543   3.809   2.565  1.0141  0.5596 -0.5748
 1966TIP3    H127389   5.485   3.870   2.610  2.1573  0.7476  0.6551
 1966TIP3    H227390   5.582   3.860   2.495 -0.1368  0.4793 -1.3044
 1967TIP3   OH227391   0.020   4.209   0.225  0.1821  0.5006 -0.1176
 1967TIP3    H127392  -0.036   4.261   0.282 -0.2028  1.3779 -1.2575
 1967TIP3    H227393   0.108   4.222   0.258 -0.3654 -1.8909  2.4650
 1968TIP3   OH227394   5.602   5.576  16.727 -0.3652  0.2245 -0.0861
 1968TIP3    H127395   5.609   5.496  16.778 -0.3273  0.7759  0.7753
 1968TIP3    H227396   5.542   5.632  16.778  0.2932  1.0808 -0.2449
 1969TIP3   OH227397   0.259   5.126  12.231 -0.2497  0.4096 -1.0112
 1969TIP3    H127398   0.352   5.107  12.217  0.1630  0.4663  1.5007
 1969TIP3    H227399   0.256   5.179  12.310 -2.4831 -0.1267 -0.6793
 1970TIP3   OH227400   5.436   1.604   5.327  0.4735 -0.1239  0.3116
 1970TIP3    H127401   5.412   1.521   5.368 -0.4306 -0.3100 -0.5927
 1970TIP3    H227402   5.360   1.629   5.275  0.9920  0.9348  0.0321
 1971TIP3   OH227403   4.871   2.010  12.599  0.0859  0.2449 -0.0165
 1971TIP3    H127404   4.824   1.989  12.518 -1.2104 -2.2613  1.3078
 1971TIP3    H227405   4.934   1.939  12.609  2.2979  2.1108 -0.3134
 1972TIP3   OH227406   2.459   1.494   4.809  0.2072 -0.1910  0.0277
 1972TIP3    H127407   2.433   1.446   4.730  1.2633  0.9582 -1.0370
 1972TIP3    H227408   2.380   1.496   4.863  0.0371 -2.7746 -0.0738
 1973TIP3   OH227409   1.152   2.830  12.900  0.0579 -0.2388 -0.7848
 1973TIP3    H127410   1.230   2.817  12.846  1.6540 -2.6521  1.9982
 1973TIP3    H227411   1.179   2.803  12.988 -3.6170 -0.1022  0.4447
 1974TIP3   OH227412   0.089   5.665  16.576 -0.2488  0.1526  0.1399
 1974TIP3    H127413   0.153   5.594  16.565 -0.0437  0.5534 -1.3515
 1974TIP3    H227414   0.023   5.628  16.635  1.3818 -0.2473  1.7384
 1975TIP3   OH227415   3.790   1.137  12.660 -0.2730 -0.1711  0.3170
 1975TIP3    H127416   3.775   1.045  12.637 -2.0776  0.3084 -0.6082
 1975TIP3    H227417   3.849   1.169  12.592 -2.0563  0.1000 -1.1467
 1976TIP3   OH227418   2.604   6.743  14.775 -0.1540  0.8458 -0.4287
 1976TIP3    H127419   2.594   6.829  14.736  0.2842  0.4097 -1.5175
 1976TIP3    H227420   2.620   6.684  14.701 -0.2128 -0.1334  0.3188
 1977TIP3   OH227421   0.088   4.189   1.872 -0.3480  0.1131  0.1675
 1977TIP3    H127422   0.180   4.189   1.845 -0.7438  0.0471 -1.2023
 1977TIP3    H227423   0.087   4.242   1.952  0.9573 -0.3210  0.4833
 1978TIP3   OH227424   1.822   4.436  11.382  0.1423  0.3111 -0.1203
 1978TIP3    H127425   1.785   4.360  11.336 -0.7712  1.1340 -0.7448
 1978TIP3    H227426   1.746   4.486  11.411  0.7181  0.2215  1.6174
 1979TIP3   OH227427   5.290   2.651   0.505  0.3341  0.5453 -0.0388
 1979TIP3    H127428   5.311   2.616   0.592  2.8787 -0.3091 -0.9549
 1979TIP3    H227429   5.276   2.573   0.451 -1.2643  1.0780 -0.4168
 1980TIP3   OH227430   5.601   6.691  12.168 -0.5805 -0.3719 -0.2898
 1980TIP3    H127431   5.573   6.616  12.116  0.0829 -0.4712 -0.5111
 1980TIP3    H227432   5.666   6.735  12.113  1.0727 -1.2117  0.9831
 1981TIP3   OH227433   0.024   6.496  11.287  0.0392 -0.5747 -0.4437
 1981TIP3    H127434   0.068   6.555  11.348  0.2412  0.6241 -1.7293
 1981TIP3    H227435   0.096   6.449  11.244 -0.0821 -0.9928 -0.1960
 1982TIP3   OH227436   2.661   2.844   1.035  0.1788 -0.1431 -0.1517
 1982TIP3    H127437   2.573   2.856   1.000  0.0920  0.3083  0.2244
 1982TIP3    H227438   2.718   2.894   0.976 -0.0878  1.4861  0.9419
 1983TIP3   OH227439   1.820   1.490   6.262  0.1079  0.7259  0.7277
 1983TIP3    H127440   1.787   1.570   6.302 -0.7789 -0.0348  1.5398
 1983TIP3    H227441   1.864   1.444   6.333 -0.1793  0.0730  0.4900
 1984TIP3   OH227442   4.843   5.148   5.109  0.3722 -0.0999  0.3066
 1984TIP3    H127443   4.776   5.089   5.074  0.1700  0.2510  0.1000
 1984TIP3    H227444   4.813   5.168   5.198  0.0403  0.3001  0.1068
 1985TIP3   OH227445   4.098   3.350   0.898  0.5466 -0.3701  0.4480
 1985TIP3    H127446   4.071   3.308   0.816  0.0904  0.5273  0.1326
 1985TIP3    H227447   4.138   3.433   0.871 -0.0853  0.1735  1.1581
 1986TIP3   OH227448   6.102   3.763  15.444  0.2118 -0.4665 -0.0159
 1986TIP3    H127449   6.092   3.778  15.350 -0.1732  1.1137  0.2628
 1986TIP3    H227450   6.193   3.787  15.462  1.0767 -3.2381 -0.4108
 1987TIP3   OH227451   2.286   0.168   1.942 -0.1060 -0.4080 -0.1538
 1987TIP3    H127452   2.335   0.227   1.999  0.2770 -0.5566 -0.3237
 1987TIP3    H227453   2.195   0.195   1.951 -0.3064 -1.7379  2.0815
 1988TIP3   OH227454   3.494   3.308  12.121  0.0228 -0.1704  0.0470
 1988TIP3    H127455   3.476   3.381  12.181  0.6700 -1.2016  1.5463
 1988TIP3    H227456   3.543   3.245  12.175  0.8895 -0.9925 -1.6699
 1989TIP3   OH227457   3.421   1.331  14.689  0.0018  0.3465  0.2236
 1989TIP3    H127458   3.423   1.426  14.676  0.6485  0.4878  1.3261
 1989TIP3    H227459   3.502   1.310  14.735 -1.0397 -0.4566  1.7819
 1990TIP3   OH227460   5.780   5.854   5.434  0.1034 -0.3418  0.2540
 1990TIP3    H127461   5.760   5.768   5.396 -0.5221 -1.3289  2.6983
 1990TIP3    H227462   5.815   5.833   5.521  0.5507  1.8805  0.6208
 1991TIP3   OH227463   4.759   0.848  11.141 -0.2665 -0.5123 -0.1059
 1991TIP3    H127464   4.719   0.810  11.063 -0.6805  0.8243 -0.5400
 1991TIP3    H227465   4.852   0.828  11.131 -0.2698 -0.0674 -1.1031
 1992TIP3   OH227466   3.263   1.303   1.318 -0.0210  0.2704 -0.1306
 1992TIP3    H127467   3.257   1.374   1.383 -0.9578  1.0041 -1.0011
 1992TIP3    H227468   3.348   1.316   1.276 -0.1368  0.8093 -0.2027
 1993TIP3   OH227469   5.719   5.616  11.725  0.4245  0.0221 -0.1425
 1993TIP3    H127470   5.674   5.564  11.791  0.8699 -1.1528 -0.7493
 1993TIP3    H227471   5.800   5.645  11.768 -0.0451  0.6110  0.3495
 1994TIP3   OH227472   1.592   5.526   4.406 -0.6308  0.2856  0.0869
 1994TIP3    H127473   1.683   5.526   4.436 -0.2781  0.9817 -0.9746
 1994TIP3    H227474   1.556   5.444   4.441  1.3922 -1.7599 -2.3722
 1995TIP3   OH227475   6.799   2.511  16.083  0.3103 -0.1220  0.1663
 1995TIP3    H127476   6.877   2.456  16.091  0.7388  0.1829 -1.8611
 1995TIP3    H227477   6.832   2.600  16.071 -0.3314 -0.1054 -1.5596
 1996TIP3   OH227478   6.504   4.847   2.309  0.5078  0.2003  0.0835
 1996TIP3    H127479   6.503   4.841   2.213  1.4636  2.6893 -0.1304
 1996TIP3    H227480   6.575   4.788   2.335  0.1300 -0.6312 -0.7114
 1997TIP3   OH227481   1.694   4.030  10.855 -0.2193  0.5680 -0.4143
 1997TIP3    H127482   1.639   4.036  10.776  0.3692 -0.2161 -0.8844
 1997TIP3    H227483   1.654   4.093  10.916 -2.4211 -0.8795 -0.2832
 1998TIP3   OH227484   3.027   0.329  15.236 -0.3491  0.1692  0.1968
 1998TIP3    H127485   3.032   0.249  15.288  0.7590 -0.7127 -1.2395
 1998TIP3    H227486   3.083   0.392  15.282  0.4728 -0.5480  0.1823
 1999TIP3   OH227487   4.428   1.269  13.087 -0.0676  0.3852  0.0209
 1999TIP3    H127488   4.345   1.232  13.058  1.2043 -1.4618 -1.4038
 1999TIP3    H227489   4.494   1.204  13.062  1.8992  2.1397  0.4384
 2000TIP3   OH227490   3.884   6.457  12.297 -0.0902 -0.0189 -0.1541
 2000TIP3    H127491   3.933   6.465  12.379  0.2082  0.0504 -0.3385
 2000TIP3    H227492   3.794   6.440  12.325  0.3326 -1.8966  0.1739
 2001TIP3   OH227493   2.902   5.533   4.021  0.5952  0.1165  1.2302
 2001TIP3    H127494   2.861   5.549   3.936 -0.1261 -0.5306  1.4492
 2001TIP3    H227495   2.980   5.481   4.000 -0.0915 -0.8546  1.0398
 2002TIP3   OH227496   3.304   0.849  13.958 -0.3228 -0.0376 -0.1628
 2002TIP3    H127497   3.226   0.807  13.922 -0.8191  0.5930  0.1626
 2002TIP3    H227498   3.322   0.801  14.039 -0.0086 -0.5788 -0.5507
 2003TIP3   OH227499   6.770   1.683   4.086  0.2476  0.4500  0.3969
 2003TIP3    H127500   6.806   1.594   4.085  0.0602  0.3702  0.5100
 2003TIP3    H227501   6.833   1.734   4.137  1.4287  0.8614 -1.4487
 2004TIP3   OH227502   0.785   3.604   0.345  0.6957 -0.2093 -0.3720
 2004TIP3    H127503   0.881   3.599   0.338  0.6726 -0.1583 -0.7211
 2004TIP3    H227504   0.754   3.524   0.305  0.6360 -0.8030  0.8274
 2005TIP3   OH227505   3.920   5.198  14.634  0.0785  0.2063 -0.5508
 2005TIP3    H127506   3.981   5.225  14.703 -0.6749  1.7530 -0.4409
 2005TIP3    H227507   3.965   5.217  14.552 -0.2605  1.4257 -0.4716
 2006TIP3   OH227508   2.516   1.510  16.738 -0.1010 -0.1744 -0.5950
 2006TIP3    H127509   2.512   1.415  16.749  0.4532  0.1448  2.6036
 2006TIP3    H227510   2.429   1.533  16.704 -0.8599 -1.6139  0.2925
 2007TIP3   OH227511   6.075   0.005   0.655  0.4360  0.4640 -0.0639
 2007TIP3    H127512   5.988  -0.005   0.616 -0.0305  2.3000  0.4811
 2007TIP3    H227513   6.073  -0.050   0.733  0.0374 -0.1073 -0.4750
 2008TIP3   OH227514   6.724   4.043  11.980  0.0728  0.4211  0.3454
 2008TIP3    H127515   6.667   4.017  11.908  0.2035  1.2693 -0.0705
 2008TIP3    H227516   6.668   4.093  12.039  0.1995  0.5865  0.3274
 2009TIP3   OH227517   1.886   2.039  16.794  0.0537  0.3934 -0.5958
 2009TIP3    H127518   1.914   2.122  16.756  1.5665 -0.1912 -0.7935
 2009TIP3    H227519   1.937   2.031  16.874 -0.4998 -0.0724 -0.2886
 2010TIP3   OH227520   2.330   4.882   3.479  0.1556  0.1963  0.0011
 2010TIP3    H127521   2.279   4.882   3.560  0.3778 -4.4423  0.2937
 2010TIP3    H227522   2.270   4.917   3.413 -1.2081  0.8308  1.5552
 2011TIP3   OH227523   6.814   0.630   2.121  0.0162 -0.6025 -0.1735
 2011TIP3    H127524   6.765   0.567   2.068  0.9625 -1.4282 -0.0751
 2011TIP3    H227525   6.860   0.577   2.186  0.6042  0.2051  0.0827
 2012TIP3   OH227526   5.753   0.868  17.220 -0.2247  0.5549  0.1039
 2012TIP3    H127527   5.698   0.856  17.142 -1.4377  0.9376  0.8783
 2012TIP3    H227528   5.705   0.932  17.273  1.1006  1.0660  0.6998
 2013TIP3   OH227529   0.387   0.151  15.494 -0.5830 -0.1421  0.2423
 2013TIP3    H127530   0.317   0.091  15.519 -1.1185 -0.7619 -2.5689
 2013TIP3    H227531   0.467   0.097  15.498 -0.4121  0.2431  2.2787
 2014TIP3   OH227532   2.511   1.781   6.522 -0.1481  0.1181 -0.1468
 2014TIP3    H127533   2.468   1.772   6.606  0.9675  2.6172  0.7421
 2014TIP3    H227534   2.531   1.875   6.515  2.8845 -0.5650 -1.5930
 2015TIP3   OH227535   4.709   2.935  16.225 -0.1180  0.6501  0.4225
 2015TIP3    H127536   4.667   2.869  16.280  0.0581  1.0383  1.0261
 2015TIP3    H227537   4.643   3.004  16.214  0.3937  1.3071  1.4561
 2016TIP3   OH227538   0.878   4.225  11.217  0.1311  0.0306 -0.0055
 2016TIP3    H127539   0.944   4.163  11.249 -1.8557 -1.2605  1.6743
 2016TIP3    H227540   0.829   4.175  11.151 -1.5918 -0.2753  1.4764
 2017TIP3   OH227541   3.294   2.857  11.205  0.5710  0.1183 -0.2055
 2017TIP3    H127542   3.250   2.840  11.288 -0.2762  0.1310 -0.6492
 2017TIP3    H227543   3.223   2.871  11.142  1.2011 -0.0623 -0.9673
 2018TIP3   OH227544   4.559   5.438  14.314 -0.4143  0.0998 -0.2315
 2018TIP3    H127545   4.576   5.409  14.225 -0.7622  1.3436 -0.7093
 2018TIP3    H227546   4.644   5.467  14.347 -0.7425  1.9547 -1.0108
 2019TIP3   OH227547   5.117   5.655   1.614 -0.4110  0.3890  0.2963
 2019TIP3    H127548   5.069   5.575   1.633  1.3416 -0.9485 -0.7791
 2019TIP3    H227549   5.116   5.703   1.697 -2.2507 -0.3054  0.6969
 2020TIP3   OH227550   5.395   0.801  15.175  0.2828 -0.4102 -0.1341
 2020TIP3    H127551   5.487   0.824  15.184  0.5884 -1.5558 -0.1496
 2020TIP3    H227552   5.382   0.792  15.081  0.5553 -1.7445 -0.0559
 2021TIP3   OH227553   5.119   6.641  14.148 -0.4093 -0.5438 -0.2974
 2021TIP3    H127554   5.096   6.553  14.176  0.2694 -0.8663 -0.7183
 2021TIP3    H227555   5.087   6.647  14.058 -0.4604 -0.3594 -0.2664
 2022TIP3   OH227556   3.513   3.210  13.041  0.2551 -0.0178  0.1572
 2022TIP3    H127557   3.453   3.241  13.108  0.2463  0.0349  0.1260
 2022TIP3    H227558   3.567   3.144  13.085  1.1041  0.9232  0.5727
 2023TIP3   OH227559   5.409   1.310   4.032 -0.1958 -0.0841  0.2272
 2023TIP3    H127560   5.471   1.370   3.991  0.1413 -0.8558 -0.4212
 2023TIP3    H227561   5.367   1.265   3.959 -0.6963 -0.3809  0.6920
 2024TIP3   OH227562   3.674   6.376   5.849  0.0030  0.0389  0.0224
 2024TIP3    H127563   3.713   6.289   5.840 -2.0348 -1.0163  1.1561
 2024TIP3    H227564   3.740   6.427   5.895  0.9208 -1.0999 -0.0044
 2025TIP3   OH227565   4.423   4.594   4.486  0.4120  0.0541 -0.5893
 2025TIP3    H127566   4.338   4.605   4.445 -1.1082  0.0929  2.4104
 2025TIP3    H227567   4.471   4.674   4.464 -1.1329  1.0273 -0.4973
 2026TIP3   OH227568   6.109   1.488  14.334  0.0948  0.5262 -0.7836
 2026TIP3    H127569   6.094   1.435  14.256 -1.7623 -0.8382  0.4392
 2026TIP3    H227570   6.204   1.487  14.346  0.0218 -4.3460  0.3647
 2027TIP3   OH227571   5.874   6.592  10.023 -0.6616  0.0196 -0.5651
 2027TIP3    H127572   5.789   6.583  10.068 -0.5090  1.1908 -0.0244
 2027TIP3    H227573   5.935   6.617  10.092 -0.4109  1.8070 -1.4128
 2028TIP3   OH227574   2.533   5.553  16.618 -1.0210  0.3580  0.9916
 2028TIP3    H127575   2.461   5.615  16.630 -0.9102  0.3918  1.5079
 2028TIP3    H227576   2.499   5.488  16.557 -1.6816  0.0786  1.6480
 2029TIP3   OH227577   5.411   5.978  10.922  0.1187 -0.9845  0.2776
 2029TIP3    H127578   5.389   6.007  11.011  0.0608  0.8156 -0.3053
 2029TIP3    H227579   5.336   6.004  10.869  0.2500 -1.8644 -0.3449
 2030TIP3   OH227580   2.214   2.271  16.488 -0.2682  0.1765  0.3590
 2030TIP3    H127581   2.182   2.186  16.517 -0.0876 -0.0971 -0.2474
 2030TIP3    H227582   2.190   2.331  16.559  0.3005 -0.5125  1.1338
 2031TIP3   OH227583   1.721   5.991  12.637 -0.3469 -0.1814  0.0129
 2031TIP3    H127584   1.727   6.069  12.693  0.8897  0.0078 -0.3667
 2031TIP3    H227585   1.646   6.009  12.580  0.7645  1.3869 -1.0098
 2032TIP3   OH227586   2.706   5.055   2.018 -0.1241  0.2484  0.0401
 2032TIP3    H127587   2.756   4.974   2.026  0.8053  0.6824 -1.2048
 2032TIP3    H227588   2.769   5.120   1.988 -0.7732  1.5381  1.3533
 2033TIP3   OH227589   4.477   1.053   0.546  0.2909 -0.0805  0.2009
 2033TIP3    H127590   4.515   1.049   0.458  2.2782  0.7012  0.9867
 2033TIP3    H227591   4.526   0.988   0.596 -0.6345 -0.3208  0.8048
 2034TIP3   OH227592   6.264   0.201  14.653 -0.0883  0.5148 -0.3805
 2034TIP3    H127593   6.348   0.169  14.688 -0.6478 -0.4186  0.1326
 2034TIP3    H227594   6.245   0.142  14.580  0.2510  1.4211 -1.2048
 2035TIP3   OH227595   0.175   3.875   4.904 -0.1124  0.0450 -0.1936
 2035TIP3    H127596   0.125   3.911   4.830 -1.0079  0.5852  0.6679
 2035TIP3    H227597   0.239   3.943   4.924  0.1789 -0.1322 -0.5154
 2036TIP3   OH227598   3.610   4.894   2.756 -0.0028  0.2455 -0.4056
 2036TIP3    H127599   3.620   4.809   2.798 -1.7269  0.7299  1.0708
 2036TIP3    H227600   3.642   4.957   2.821 -1.4931  0.9068 -0.2895
 2037TIP3   OH227601   6.775   0.286   4.063  0.4818 -0.0663 -0.2361
 2037TIP3    H127602   6.771   0.322   3.974 -0.0463  0.7716  0.1249
 2037TIP3    H227603   6.855   0.323   4.099  1.8197 -2.0506 -1.0560
 2038TIP3   OH227604   1.052   4.687   1.564 -0.1905 -0.2185  0.5126
 2038TIP3    H127605   1.053   4.684   1.660  0.1862  0.4275  0.5304
 2038TIP3    H227606   1.044   4.595   1.538  3.0985 -0.7655  1.1416
 2039TIP3   OH227607   4.423   4.784  15.215 -0.0384 -0.2450  0.1830
 2039TIP3    H127608   4.338   4.791  15.172  0.7103  0.1911 -1.2445
 2039TIP3    H227609   4.439   4.871  15.250  0.1465 -0.1446 -0.1558
 2040TIP3   OH227610   0.798   2.271  15.540 -0.2475 -0.6259 -0.6154
 2040TIP3    H127611   0.863   2.252  15.607 -1.5732 -1.6092  0.4304
 2040TIP3    H227612   0.738   2.333  15.582 -1.8079 -2.2348 -0.4200
 2041TIP3   OH227613   5.377   3.527  16.194  0.3610  0.3951 -0.1837
 2041TIP3    H127614   5.300   3.504  16.244  1.0285 -0.6273  0.3938
 2041TIP3    H227615   5.421   3.443  16.178  0.0063  0.6551 -2.7194
 2042TIP3   OH227616   6.424   2.605  15.902 -0.0682  0.2391 -0.1081
 2042TIP3    H127617   6.399   2.522  15.941  2.5614 -1.5198 -2.0228
 2042TIP3    H227618   6.471   2.651  15.972  0.5056 -0.8672  0.2351
 2043TIP3   OH227619   3.008   6.696  11.227  0.0286 -1.1953  0.1968
 2043TIP3    H127620   2.980   6.719  11.139  0.2875 -0.7467  0.2351
 2043TIP3    H227621   2.989   6.773  11.280  1.7549 -0.7118  0.1368
 2044TIP3   OH227622   3.463   0.378   3.430  0.1960  0.0421 -0.0469
 2044TIP3    H127623   3.491   0.445   3.492  0.6893 -0.4199  0.2281
 2044TIP3    H227624   3.437   0.428   3.352  2.3910  0.4533 -0.5578
 2045TIP3   OH227625   5.701   3.761   0.033  0.1062 -0.1896 -0.0868
 2045TIP3    H127626   5.664   3.790   0.117  0.0663 -1.0018  0.1827
 2045TIP3    H227627   5.700   3.839  -0.022  1.3224  0.6622  1.0884
 2046TIP3   OH227628   2.564   5.274  13.838  0.0999  0.4186 -0.1412
 2046TIP3    H127629   2.612   5.266  13.920  0.1297  1.2671 -0.0800
 2046TIP3    H227630   2.529   5.363  13.838 -1.2398 -0.0891 -0.3120
 2047TIP3   OH227631   5.079   4.351   4.582  0.1436 -0.4169 -0.1481
 2047TIP3    H127632   5.044   4.438   4.563 -0.0379 -0.0554  1.7479
 2047TIP3    H227633   5.174   4.363   4.583  0.1062 -0.1590  0.4564
 2048TIP3   OH227634   4.710   2.415  16.644 -0.3367 -0.3459  0.3127
 2048TIP3    H127635   4.630   2.388  16.690  0.9175 -1.6642  1.7742
 2048TIP3    H227636   4.730   2.341  16.586  1.6796 -1.5639  2.4531
 2049TIP3   OH227637   5.596   6.133  13.783 -0.1557 -0.8286 -0.1318
 2049TIP3    H127638   5.671   6.160  13.835  1.5958 -0.4249 -2.7302
 2049TIP3    H227639   5.614   6.167  13.695 -3.3016 -0.8850 -0.8682
 2050TIP3   OH227640   1.836   0.565  13.737  0.2140 -0.4224 -0.8477
 2050TIP3    H127641   1.767   0.505  13.764  0.1578  0.2816  0.6472
 2050TIP3    H227642   1.790   0.637  13.693 -0.3308  1.2804  2.3085
 2051TIP3   OH227643   5.340   6.425  11.565  0.4079 -0.0020  0.4100
 2051TIP3    H127644   5.369   6.500  11.616  0.8747  0.7261 -0.8895
 2051TIP3    H227645   5.418   6.372  11.553  0.6480  0.5884 -0.7851
 2052TIP3   OH227646   6.110   1.320  13.327 -0.0532 -0.3002 -0.1585
 2052TIP3    H127647   6.168   1.358  13.393 -2.8712  0.5473  1.9643
 2052TIP3    H227648   6.070   1.396  13.284  0.3490 -0.8660 -1.5355
 2053TIP3   OH227649   5.224   2.419  12.101 -0.3937 -0.5317 -0.2367
 2053TIP3    H127650   5.251   2.342  12.051 -0.5691  0.5228 -1.9773
 2053TIP3    H227651   5.177   2.473  12.039 -1.3425  0.4305  1.2875
 2054TIP3   OH227652   1.506   1.817   1.587 -0.9839  0.2852 -0.0320
 2054TIP3    H127653   1.462   1.843   1.668  0.0847 -0.5884  0.8424
 2054TIP3    H227654   1.528   1.725   1.600 -0.5000  0.2334 -1.1833
 2055TIP3   OH227655   2.883   0.805  15.588 -0.3245 -0.1367 -0.1346
 2055TIP3    H127656   2.860   0.731  15.644 -2.7461  1.0581  0.5432
 2055TIP3    H227657   2.912   0.873  15.648  0.2052  0.0583 -0.6074
 2056TIP3   OH227658   5.918   6.143  15.259 -0.8009 -0.4031  0.1666
 2056TIP3    H127659   5.848   6.078  15.261 -1.2262  0.0833  0.9754
 2056TIP3    H227660   5.877   6.225  15.287  0.1115 -0.1357  0.7608
 2057TIP3   OH227661   5.055   1.897   2.369 -0.2011 -0.2224  0.2140
 2057TIP3    H127662   5.060   1.837   2.443  2.2515 -1.0377 -0.5567
 2057TIP3    H227663   5.039   1.840   2.294 -4.6727  0.7686  0.2674
 2058TIP3   OH227664   4.520   1.858  12.160 -0.1013  0.4563 -0.2754
 2058TIP3    H127665   4.551   1.815  12.080  1.8440 -0.1733  0.7881
 2058TIP3    H227666   4.554   1.947  12.154 -2.1241  1.1831 -1.3456
 2059TIP3   OH227667   5.377   5.260  15.195 -0.2279  0.3785 -0.6773
 2059TIP3    H127668   5.313   5.190  15.178  1.2262 -0.9517 -0.7713
 2059TIP3    H227669   5.426   5.268  15.113 -0.8407  2.0085 -0.9001
 2060TIP3   OH227670   6.044   3.221   0.049 -0.1224 -0.2337 -0.0316
 2060TIP3    H127671   6.134   3.209   0.018  0.3374  1.2749  0.6239
 2060TIP3    H227672   5.989   3.202  -0.027  0.7868 -0.5751 -0.6136
 2061TIP3   OH227673   3.213   3.076  17.259  0.1946  0.0877  0.1684
 2061TIP3    H127674   3.132   3.117  17.230 -0.8643 -1.7356  0.4117
 2061TIP3    H227675   3.226   3.003  17.198 -0.9557 -2.5277  2.8525
 2062TIP3   OH227676   0.656   4.612  13.884  0.0293 -0.0919 -0.9285
 2062TIP3    H127677   0.652   4.652  13.797  0.2057 -0.0419 -0.9115
 2062TIP3    H227678   0.742   4.636  13.918 -0.3521  0.5556 -0.4167
 2063TIP3   OH227679   0.194   0.168   0.922 -0.2942  0.3616  0.0344
 2063TIP3    H127680   0.155   0.125   0.998  1.3416 -0.0785  0.6433
 2063TIP3    H227681   0.120   0.188   0.865 -1.2587 -1.7199  0.5215
 2064TIP3   OH227682   5.023   0.189  12.854  0.6164  0.0971  0.1506
 2064TIP3    H127683   4.952   0.205  12.792 -0.6493  0.1990  1.6040
 2064TIP3    H227684   5.030   0.270  12.904 -0.1033 -0.8796  1.8623
 2065TIP3   OH227685   3.190   3.267  16.639 -0.7868  0.4624 -0.2064
 2065TIP3    H127686   3.101   3.287  16.609 -0.6040  1.6653 -0.0015
 2065TIP3    H227687   3.246   3.317  16.580 -0.3227  0.9560  0.6478
 2066TIP3   OH227688   5.901   3.468   1.566 -0.1135 -0.3039 -0.5423
 2066TIP3    H127689   5.993   3.483   1.540  0.3117 -0.9367  0.5784
 2066TIP3    H227690   5.900   3.481   1.660 -1.3049  0.2307 -0.6180
 2067TIP3   OH227691   6.555   4.204  16.125  0.4489 -0.2064  0.3730
 2067TIP3    H127692   6.516   4.199  16.038  0.1956 -0.7692  0.5184
 2067TIP3    H227693   6.620   4.274  16.118 -0.6096  0.7671  0.1531
 2068TIP3   OH227694   2.417   3.909   0.250  0.0348 -0.5703 -0.1055
 2068TIP3    H127695   2.349   3.878   0.190 -0.8956  0.3091  0.4783
 2068TIP3    H227696   2.371   3.926   0.332  0.9659 -0.0118  0.3108
 2069TIP3   OH227697   5.556   2.779  14.172  0.2970  0.3500 -0.1385
 2069TIP3    H127698   5.527   2.743  14.256  0.8110  0.0882 -0.0749
 2069TIP3    H227699   5.595   2.863  14.195 -0.0855  0.5427 -0.1833
 2070TIP3   OH227700   1.817   1.022   3.528 -0.0605  0.4696 -0.1813
 2070TIP3    H127701   1.770   0.938   3.522  1.9999 -0.7820  0.5359
 2070TIP3    H227702   1.858   1.032   3.442 -0.9608  1.1546 -0.5347
 2071TIP3   OH227703   5.408   0.239  13.470  0.1492  0.3731  0.1884
 2071TIP3    H127704   5.336   0.271  13.416 -0.4722  0.4831  1.0778
 2071TIP3    H227705   5.401   0.288  13.552  1.0416  0.1520  0.4098
 2072TIP3   OH227706   4.652   5.119   1.997  0.4268 -0.1801 -0.0503
 2072TIP3    H127707   4.700   5.201   1.989 -1.9621  1.3960  1.3490
 2072TIP3    H227708   4.589   5.121   1.924  0.8556 -1.1096 -0.4505
 2073TIP3   OH227709   6.548   5.388  12.053  0.2356  0.2459  0.2982
 2073TIP3    H127710   6.640   5.362  12.045  0.4681  0.2686  2.4824
 2073TIP3    H227711   6.498   5.308  12.038  0.6091  0.2400 -0.9233
 2074TIP3   OH227712   0.023   2.121   5.624  0.6561  0.2198 -1.1161
 2074TIP3    H127713   0.067   2.039   5.601  1.6287  0.4231 -0.0350
 2074TIP3    H227714   0.021   2.121   5.720  1.0382  1.6380 -1.0878
 2075TIP3   OH227715   1.033   0.864  12.868  0.0500 -0.1718 -0.7629
 2075TIP3    H127716   1.088   0.940  12.844  0.5984 -0.6086 -0.8996
 2075TIP3    H227717   1.081   0.821  12.938  0.0373 -0.7390 -1.1012
 2076TIP3   OH227718   0.509   4.902   4.442 -0.1684 -0.2739 -0.5242
 2076TIP3    H127719   0.580   4.875   4.499  0.5975  0.4507 -1.1271
 2076TIP3    H227720   0.516   4.998   4.438  0.1104 -0.3420 -2.2210
 2077TIP3   OH227721   1.989   3.567  12.513 -0.6269  0.1867  0.1176
 2077TIP3    H127722   1.978   3.472  12.507  0.4719 -0.1450  2.7655
 2077TIP3    H227723   2.075   3.584  12.474 -0.3265 -0.0628  0.6615
 2078TIP3   OH227724   1.680   4.382  14.123  0.5620 -0.1701  0.1184
 2078TIP3    H127725   1.765   4.422  14.102  0.0318  0.7795 -0.2298
 2078TIP3    H227726   1.670   4.396  14.217  1.7102 -2.0738  0.5573
 2079TIP3   OH227727   2.183   2.459   2.276 -0.1098  0.0258 -0.8130
 2079TIP3    H127728   2.220   2.544   2.249 -0.6223  0.2081 -0.9459
 2079TIP3    H227729   2.211   2.398   2.208  0.9541 -0.0813 -0.2903
 2080TIP3   OH227730   4.441   4.667   0.713 -0.0902 -0.4134  0.1759
 2080TIP3    H127731   4.523   4.617   0.704  0.3315  0.3590 -0.3735
 2080TIP3    H227732   4.380   4.624   0.654 -0.1840 -1.1865  0.8175
 2081TIP3   OH227733   6.404   1.679  15.158  0.0043 -0.1732  0.4373
 2081TIP3    H127734   6.436   1.643  15.075 -1.6484 -0.1561 -0.2200
 2081TIP3    H227735   6.447   1.626  15.225 -0.9819 -2.1879 -0.4900
 2082TIP3   OH227736   2.668   3.467   0.100  0.1715  0.0839  0.5554
 2082TIP3    H127737   2.762   3.464   0.119 -0.2556 -0.1447  2.7628
 2082TIP3    H227738   2.658   3.414   0.021  1.5995 -2.0083  1.7251
 2083TIP3   OH227739   1.290   1.518  15.204 -0.0210  0.5921 -0.1318
 2083TIP3    H127740   1.285   1.523  15.299  1.1419  0.0380 -0.0382
 2083TIP3    H227741   1.204   1.485  15.178 -0.3910  0.8793  0.7119
 2084TIP3   OH227742   5.221   5.688  13.215  0.2337 -0.2470 -0.3209
 2084TIP3    H127743   5.252   5.685  13.305  0.8547 -1.0023 -0.5584
 2084TIP3    H227744   5.213   5.782  13.195 -1.6691 -0.0737  1.1104
 2085TIP3   OH227745   4.719   3.653  15.840 -0.0561 -0.1375  0.5795
 2085TIP3    H127746   4.779   3.726  15.826 -1.0237  0.8060  1.3069
 2085TIP3    H227747   4.754   3.608  15.917 -0.9558  1.1235  1.7383
 2086TIP3   OH227748   2.745   0.763   2.755  0.5827  0.0376  0.1148
 2086TIP3    H127749   2.805   0.732   2.823  1.5168  0.0286 -0.7003
 2086TIP3    H227750   2.770   0.854   2.740 -2.4055  1.3985  2.7759
 2087TIP3   OH227751   0.059   6.132  16.521  0.1233  0.3791  0.2710
 2087TIP3    H127752  -0.001   6.144  16.447  0.1221  0.1923  0.2412
 2087TIP3    H227753   0.094   6.044  16.509  0.2969  0.4355  0.3667
 2088TIP3   OH227754   4.940   0.041   5.666  0.1512  0.3869  0.0008
 2088TIP3    H127755   5.018  -0.006   5.634 -0.7096 -1.6534  0.8072
 2088TIP3    H227756   4.932   0.013   5.757 -1.6601  0.4251 -0.1457
 2089TIP3   OH227757   5.194   0.348   4.816  0.2806  0.1086  0.0175
 2089TIP3    H127758   5.207   0.319   4.906 -2.1082  0.0713  0.3900
 2089TIP3    H227759   5.255   0.421   4.806  1.7955 -0.9788  1.0943
 2090TIP3   OH227760   0.905   2.014  11.891  0.6503 -0.2274  0.3631
 2090TIP3    H127761   0.913   1.919  11.880  1.0430 -0.0178 -1.2303
 2090TIP3    H227762   0.924   2.050  11.805  1.0356  1.3410  1.0905
 2091TIP3   OH227763   2.361   2.104   3.110 -0.2549 -0.3113 -0.4163
 2091TIP3    H127764   2.283   2.155   3.087 -0.0077 -0.2360 -1.1213
 2091TIP3    H227765   2.430   2.139   3.054  0.8314  1.0819  1.7409
 2092TIP3   OH227766   0.187   3.790  16.029  0.4157  0.4979 -0.1200
 2092TIP3    H127767   0.235   3.835  15.959  0.0491  0.3027 -0.5001
 2092TIP3    H227768   0.142   3.860  16.077  2.1405  0.8153  1.0670
 2093TIP3   OH227769   3.512   4.207   3.130  0.4037  0.3457  0.5363
 2093TIP3    H127770   3.451   4.196   3.056  1.9780 -0.3869 -0.6816
 2093TIP3    H227771   3.458   4.244   3.200 -1.5312 -0.6304 -0.3933
 2094TIP3   OH227772   1.036   2.994  15.063  0.2515  0.4264 -0.1601
 2094TIP3    H127773   1.062   3.081  15.035  2.7442 -0.1473  0.2645
 2094TIP3    H227774   0.971   3.009  15.132  1.0047  1.9443  0.2318
 2095TIP3   OH227775   4.474   2.143  10.127 -0.9267 -0.4433  0.0534
 2095TIP3    H127776   4.443   2.220  10.081  0.2607 -0.1338 -0.2387
 2095TIP3    H227777   4.507   2.176  10.211 -1.9619 -0.8479  0.6269
 2096TIP3   OH227778   0.543   0.550   3.858 -0.3750  0.0983  0.2511
 2096TIP3    H127779   0.498   0.506   3.930 -0.9877 -0.7325 -0.6321
 2096TIP3    H227780   0.529   0.643   3.875  0.2134 -0.0571  1.6646
 2097TIP3   OH227781   1.681   2.318  14.652  0.1843 -0.2897  0.3063
 2097TIP3    H127782   1.627   2.379  14.601  1.1027  0.4711  0.2424
 2097TIP3    H227783   1.644   2.321  14.740  0.8666  1.1464  0.5548
 2098TIP3   OH227784   1.934   3.155   0.175  0.4291  0.1791 -0.1975
 2098TIP3    H127785   1.870   3.145   0.105  0.1382  0.3011  0.0470
 2098TIP3    H227786   1.910   3.089   0.240  1.3858 -0.6927 -0.7193
 2099TIP3   OH227787   2.937   3.078  13.989  0.1896 -0.3583  0.5274
 2099TIP3    H127788   2.871   3.099  13.923  0.5077 -0.4448  0.1744
 2099TIP3    H227789   2.891   3.083  14.072  0.3392  2.0630  0.4874
 2100TIP3   OH227790   3.530   2.418   5.373  0.2517  0.2232  0.0428
 2100TIP3    H127791   3.495   2.502   5.404 -0.7033 -0.7357  1.5801
 2100TIP3    H227792   3.532   2.362   5.450 -1.5595 -2.0339 -1.4793
 2101TIP3   OH227793   6.683   0.976  10.924  0.1862  0.5291 -0.5468
 2101TIP3    H127794   6.757   0.983  10.863  1.5455 -0.2529  1.0010
 2101TIP3    H227795   6.655   1.067  10.938  1.8627  0.9607  0.0886
 2102TIP3   OH227796   6.537   2.281   2.013 -0.6964  0.3331  0.1631
 2102TIP3    H127797   6.564   2.231   2.091 -0.0626  1.5019  0.7060
 2102TIP3    H227798   6.476   2.347   2.047 -1.0093  0.3622 -0.4490
 2103TIP3   OH227799   2.113   5.565   1.518  0.2688 -0.0235  0.2190
 2103TIP3    H127800   2.200   5.528   1.534  0.2652 -0.1078  0.0534
 2103TIP3    H227801   2.061   5.491   1.487  0.1453  0.0323  0.2939
 2104TIP3   OH227802   3.206   2.817   5.400  0.0196  0.3197  0.3627
 2104TIP3    H127803   3.152   2.755   5.351  2.3986 -0.8577 -0.8484
 2104TIP3    H227804   3.226   2.887   5.337 -0.0769  0.7598  0.8107
 2105TIP3   OH227805   0.223   3.511   1.815  0.1559  0.4690  0.3924
 2105TIP3    H127806   0.175   3.577   1.763  0.4608 -0.7590 -1.5164
 2105TIP3    H227807   0.156   3.449   1.843  0.2018  0.3425  0.2230
 2106TIP3   OH227808   5.716   5.600   5.347 -0.0385 -0.2655  0.1860
 2106TIP3    H127809   5.737   5.525   5.404  0.9053  0.9348  1.4631
 2106TIP3    H227810   5.624   5.589   5.326 -0.6229 -0.3551  2.5903
 2107TIP3   OH227811   1.156   0.748   2.979  0.1099 -0.5617  0.4012
 2107TIP3    H127812   1.087   0.682   2.976 -2.0045  1.5626  0.1271
 2107TIP3    H227813   1.158   0.776   3.071 -0.6850  0.6214  0.0816
 2108TIP3   OH227814   3.846   5.843   1.605 -0.2634  0.5809 -0.1873
 2108TIP3    H127815   3.758   5.846   1.566 -0.2064  1.5215 -0.2363
 2108TIP3    H227816   3.903   5.822   1.531 -0.3948  0.3641 -0.2300
 2109TIP3   OH227817   2.041   5.372  13.704  0.3987  0.0800  0.3604
 2109TIP3    H127818   1.987   5.409  13.774 -2.1880  0.5453 -1.7934
 2109TIP3    H227819   2.113   5.434  13.694 -0.3834  1.1255  1.1297
 2110TIP3   OH227820   3.121   6.361   0.335 -0.5277  0.0990  0.5381
 2110TIP3    H127821   3.168   6.428   0.286  1.5426  0.1029  2.4829
 2110TIP3    H227822   3.031   6.365   0.301  0.0309  2.5075 -0.7306
 2111TIP3   OH227823   1.764   3.922   1.853 -0.2944 -0.1450  0.2947
 2111TIP3    H127824   1.788   3.889   1.767  0.2234 -1.2446  0.8488
 2111TIP3    H227825   1.668   3.917   1.855 -0.4265  1.6382 -0.8945
 2112TIP3   OH227826   4.544   2.458   5.079  0.2176 -0.2237 -0.4955
 2112TIP3    H127827   4.503   2.491   5.160  0.0382 -0.1154 -0.6300
 2112TIP3    H227828   4.506   2.512   5.010 -0.0543 -0.6959 -0.7127
 2113TIP3   OH227829   3.400   6.374   0.837 -0.0503 -0.9105 -0.1672
 2113TIP3    H127830   3.383   6.409   0.749  0.2342 -1.3001 -0.3788
 2113TIP3    H227831   3.314   6.367   0.876  0.0945  3.5429  1.2584
 2114TIP3   OH227832   6.096   1.418  12.025  0.1038 -0.2103  0.0029
 2114TIP3    H127833   6.090   1.384  12.115 -0.3229  1.3389  0.5639
 2114TIP3    H227834   6.162   1.487  12.029  0.8653 -0.8556 -1.1152
 2115TIP3   OH227835   3.592   4.414  12.086  0.2349 -0.1932  0.2535
 2115TIP3    H127836   3.582   4.326  12.123 -0.2245  0.0362  0.6737
 2115TIP3    H227837   3.623   4.468  12.158 -1.1953  0.3736  0.4575
 2116TIP3   OH227838   1.711   4.697   3.574 -0.0254  0.0429 -0.1183
 2116TIP3    H127839   1.770   4.747   3.631  2.0237 -0.0522 -2.0941
 2116TIP3    H227840   1.641   4.758   3.552  1.7055  1.6069 -1.3576
 2117TIP3   OH227841   4.858   0.425  11.822  0.3043  0.6462 -0.2135
 2117TIP3    H127842   4.785   0.366  11.801  0.0532  0.4869  1.0607
 2117TIP3    H227843   4.913   0.424  11.744  1.6439 -3.2740  0.6782
 2118TIP3   OH227844   5.067   0.485   5.493  0.2937 -0.5243  0.1911
 2118TIP3    H127845   5.057   0.551   5.561  0.2400 -1.8765  1.5303
 2118TIP3    H227846   4.999   0.420   5.513  1.0005 -1.4851 -0.4941
 2119TIP3   OH227847   1.789   5.173  14.310 -0.4907 -0.3777  0.2378
 2119TIP3    H127848   1.712   5.141  14.357  0.3302 -1.0092  1.1826
 2119TIP3    H227849   1.805   5.260  14.345 -1.3963  0.1855 -0.7238
 2120TIP3   OH227850   2.625   2.194   3.033  0.8986 -0.0108 -0.2874
 2120TIP3    H127851   2.616   2.273   2.980 -0.9774 -0.3599 -0.5461
 2120TIP3    H227852   2.671   2.223   3.111  0.3101  1.3247 -0.4167
 2121TIP3   OH227853   4.399   5.608   2.981 -0.3551  0.0019  0.2185
 2121TIP3    H127854   4.412   5.536   2.920  0.5372 -0.2370  0.6639
 2121TIP3    H227855   4.388   5.565   3.066 -0.6347  0.3600  0.3639
 2122TIP3   OH227856   5.697   6.305   3.983 -0.5496  0.7008 -0.2245
 2122TIP3    H127857   5.774   6.259   3.950  0.2062  0.7078  1.5194
 2122TIP3    H227858   5.710   6.396   3.957  0.2238  0.7712  0.3882
 2123TIP3   OH227859   5.205   5.212  14.510 -0.1668 -0.1610 -0.2788
 2123TIP3    H127860   5.210   5.210  14.414  1.9969  0.2166 -0.2069
 2123TIP3    H227861   5.255   5.290  14.534 -1.1196  0.0209  1.1442
 2124TIP3   OH227862   3.069   0.207  15.888  0.2015 -0.5691 -0.2428
 2124TIP3    H127863   2.994   0.148  15.895  0.5822 -1.1020 -0.5937
 2124TIP3    H227864   3.137   0.155  15.844  0.6707  0.0059 -0.2121
 2125TIP3   OH227865   3.271   2.507   0.980  0.0074  0.1121 -0.0176
 2125TIP3    H127866   3.350   2.560   0.975 -0.0370  0.2157  0.3076
 2125TIP3    H227867   3.235   2.508   0.892 -0.3736  1.2265  0.1359
 2126TIP3   OH227868   5.394   3.116  10.444 -0.0386 -0.3503  0.1558
 2126TIP3    H127869   5.400   3.137  10.351  0.1251 -2.0452 -0.2350
 2126TIP3    H227870   5.485   3.118  10.475  0.5347 -4.6211 -0.8765
 2127TIP3   OH227871   4.318   2.499  16.287  0.0269 -0.1824 -0.0230
 2127TIP3    H127872   4.275   2.451  16.217 -0.2628  2.2677 -1.5742
 2127TIP3    H227873   4.407   2.512  16.257 -0.3216  1.6223 -0.3834
 2128TIP3   OH227874   0.262   2.335   5.364  0.3248  0.0685 -0.1844
 2128TIP3    H127875   0.325   2.307   5.430 -1.0000 -1.3708  0.5136
 2128TIP3    H227876   0.314   2.345   5.284  2.1011  2.6424  1.2256
 2129TIP3   OH227877   3.714   1.878  10.932 -0.0806  0.2614 -0.2519
 2129TIP3    H127878   3.807   1.903  10.936 -0.0989  0.3218 -0.2058
 2129TIP3    H227879   3.691   1.855  11.021  0.1098 -0.5541 -0.4126
 2130TIP3   OH227880   4.846   6.484  11.665 -0.1031 -0.5170 -0.5739
 2130TIP3    H127881   4.895   6.403  11.659  0.3679 -0.2496 -0.3868
 2130TIP3    H227882   4.757   6.461  11.640 -0.8233 -1.8536  2.8786
 2131TIP3   OH227883   5.865   0.412  13.083  0.1235 -0.3531 -0.2874
 2131TIP3    H127884   5.898   0.364  13.159 -2.7823  0.6469  1.7136
 2131TIP3    H227885   5.799   0.355  13.044  0.0810  0.0266 -0.7797
 2132TIP3   OH227886   1.867   4.843   5.143  0.0868  0.0413  0.2033
 2132TIP3    H127887   1.953   4.859   5.184  0.3503  0.5438 -0.5274
 2132TIP3    H227888   1.888   4.821   5.052 -0.5141 -0.7058  0.2453
 2133TIP3   OH227889   1.534   3.816  16.302  0.2318 -0.2144 -0.3327
 2133TIP3    H127890   1.574   3.741  16.346 -0.1643 -0.5218 -0.4913
 2133TIP3    H227891   1.445   3.787  16.281 -1.4329  1.7533  3.4899
 2134TIP3   OH227892   1.646   1.173   3.185 -0.3088  0.0080 -0.4955
 2134TIP3    H127893   1.724   1.124   3.160  0.0974  0.7963 -0.7520
 2134TIP3    H227894   1.656   1.187   3.279 -0.5218 -0.5677 -0.3823
 2135TIP3   OH227895   0.544   2.330   2.800 -0.1267 -0.2882 -0.2469
 2135TIP3    H127896   0.469   2.385   2.821  0.9344  0.7586  0.9102
 2135TIP3    H227897   0.573   2.361   2.714 -2.2993 -2.1605 -1.7184
 2136TIP3   OH227898   4.230   0.872   4.457 -0.0877 -0.5980  0.6197
 2136TIP3    H127899   4.281   0.794   4.435  0.3883 -0.0335 -0.2956
 2136TIP3    H227900   4.262   0.898   4.544 -0.9743 -2.0053  1.3878
 2137TIP3   OH227901   6.011   2.915   1.696  0.2747  0.2904  0.9798
 2137TIP3    H127902   6.077   2.848   1.706  0.8576  0.4792 -1.3031
 2137TIP3    H227903   5.994   2.918   1.601 -0.6146  2.4817  1.1800
 2138TIP3   OH227904   3.340   4.055   5.301  0.0635 -0.5527 -0.2262
 2138TIP3    H127905   3.401   4.092   5.237  1.6897 -2.8634 -0.0960
 2138TIP3    H227906   3.277   4.006   5.249  1.1173 -2.0521 -0.1260
 2139TIP3   OH227907   5.461   4.060   5.861  0.0660  0.6758 -0.0276
 2139TIP3    H127908   5.534   4.017   5.905 -0.2945 -1.2753 -1.2998
 2139TIP3    H227909   5.500   4.099   5.783 -0.1676  0.0060 -0.4801
 2140TIP3   OH227910   3.535   5.529   0.749  0.1200 -0.2298 -0.2490
 2140TIP3    H127911   3.525   5.623   0.757 -0.7243 -0.3533  0.1168
 2140TIP3    H227912   3.447   5.496   0.733  0.0504 -1.1852  1.9603
 2141TIP3   OH227913   0.725   3.090  11.375  0.3274  0.0842  0.0365
 2141TIP3    H127914   0.720   3.007  11.422 -1.3495 -0.3071 -0.7686
 2141TIP3    H227915   0.738   3.065  11.283  2.4144  0.8014  0.1178
 2142TIP3   OH227916   0.518   3.460   6.804 -0.1443 -0.4145  0.3437
 2142TIP3    H127917   0.602   3.431   6.766 -0.3369  0.1352 -0.5151
 2142TIP3    H227918   0.537   3.471   6.897  1.1810  1.2465 -0.0813
 2143TIP3   OH227919   0.296   0.550  14.928  0.2484 -0.2118  0.5594
 2143TIP3    H127920   0.286   0.572  15.021 -1.0346 -0.7497  0.5586
 2143TIP3    H227921   0.300   0.454  14.926 -2.9025 -0.3756 -0.1976
 2144TIP3   OH227922   1.684   0.819  12.873 -0.4400 -0.2390  0.0755
 2144TIP3    H127923   1.672   0.768  12.952  1.8445 -0.1601  0.5118
 2144TIP3    H227924   1.678   0.910  12.902  1.5471 -0.1866  0.3993
 2145TIP3   OH227925   2.503   1.821  16.128 -0.5076 -0.0235  0.0294
 2145TIP3    H127926   2.478   1.749  16.186  0.3606  0.3504  0.8720
 2145TIP3    H227927   2.575   1.786  16.075 -0.3290  0.1131  0.1849
 2146TIP3   OH227928   6.676   2.036  11.982  0.2133  0.4272  0.6743
 2146TIP3    H127929   6.696   2.129  11.993 -1.9115  0.9656  0.1912
 2146TIP3    H227930   6.686   2.020  11.888 -1.0962  0.6038  0.4904
 2147TIP3   OH227931   4.849   5.888  13.155 -0.2167  0.7300  0.1024
 2147TIP3    H127932   4.875   5.925  13.071  1.3513  0.0530  0.2654
 2147TIP3    H227933   4.774   5.832  13.135  0.2559  0.4373 -0.8772
 2148TIP3   OH227934   5.022   4.674   0.437 -0.3267  0.1683  0.0476
 2148TIP3    H127935   5.100   4.670   0.382  0.5803  0.6388  1.2587
 2148TIP3    H227936   4.949   4.678   0.376  0.5410 -1.3445 -1.1013
 2149TIP3   OH227937   6.456   5.080  16.542  0.2849 -0.2720  0.0452
 2149TIP3    H127938   6.443   5.014  16.610  1.1781 -1.2208 -0.6874
 2149TIP3    H227939   6.394   5.057  16.473  0.2630 -0.0565 -0.0082
 2150TIP3   OH227940   0.190   2.099  12.786 -0.3028  0.2926 -0.7579
 2150TIP3    H127941   0.139   2.172  12.749 -1.0263 -0.0615 -0.4706
 2150TIP3    H227942   0.131   2.024  12.780 -0.0267  0.0033  0.1347
 2151TIP3   OH227943   4.021   0.224  12.137 -0.2738 -0.2176 -0.0252
 2151TIP3    H127944   3.939   0.270  12.117 -0.9788 -1.8909 -1.1612
 2151TIP3    H227945   4.079   0.291  12.172 -0.9705  1.7262 -2.4273
 2152TIP3   OH227946   2.208   0.804   5.647  0.1789 -0.4600 -0.1514
 2152TIP3    H127947   2.135   0.861   5.670 -0.6045 -1.4773 -0.0733
 2152TIP3    H227948   2.280   0.863   5.625 -0.8773  0.5486 -0.8921
 2153TIP3   OH227949   0.059   3.167   0.147 -0.6391  1.5522 -0.4432
 2153TIP3    H127950   0.074   3.260   0.128 -0.8076  1.6201 -0.2369
 2153TIP3    H227951  -0.014   3.142   0.090 -0.6191  1.5560 -0.4705
 2154TIP3   OH227952   6.763   3.762  14.998  0.3128  0.6674  0.6025
 2154TIP3    H127953   6.696   3.829  15.015  0.3820  0.5359  1.4030
 2154TIP3    H227954   6.761   3.706  15.075 -1.5025 -1.7694 -1.1150
 2155TIP3   OH227955   4.718   1.568   4.523 -0.5530  0.0126  0.8792
 2155TIP3    H127956   4.638   1.554   4.473 -0.0958 -1.9342  0.6235
 2155TIP3    H227957   4.787   1.528   4.470  0.4905  1.0735  1.4062
 2156TIP3   OH227958   5.036   4.071   5.940  0.0668  0.1742  0.5779
 2156TIP3    H127959   5.087   4.021   6.004  0.5195 -2.3421 -1.6763
 2156TIP3    H227960   5.086   4.066   5.859 -1.3959  1.7770 -0.4653
 2157TIP3   OH227961   6.215   1.828  15.621  0.2169 -0.4164  0.9427
 2157TIP3    H127962   6.238   1.746  15.664  2.0799 -0.3026  0.1992
 2157TIP3    H227963   6.283   1.890  15.649 -1.1911  0.9084  1.5475
 2158TIP3   OH227964   2.327   2.967  13.522 -0.7370 -0.4338  0.0683
 2158TIP3    H127965   2.232   2.974  13.512 -0.7163 -0.9463 -0.4875
 2158TIP3    H227966   2.343   2.874  13.538 -0.2397 -0.5041 -0.8298
 2159TIP3   OH227967   0.564   2.916  13.798 -0.1049  0.2435 -0.2869
 2159TIP3    H127968   0.492   2.970  13.767  0.9701  0.4393 -2.4954
 2159TIP3    H227969   0.525   2.829  13.808 -1.0139  0.6789  0.0399
 2160TIP3   OH227970   4.623   4.169  14.281 -0.3067 -0.1537 -0.3463
 2160TIP3    H127971   4.544   4.140  14.325 -0.8165  1.1994 -0.3601
 2160TIP3    H227972   4.674   4.213  14.349  0.3649 -0.8707 -0.3776
 2161TIP3   OH227973   3.970   3.074   6.038  0.2874 -0.4678  0.4105
 2161TIP3    H127974   3.998   3.070   5.947 -1.4479 -1.8888 -0.0958
 2161TIP3    H227975   4.026   3.012   6.084 -0.6132 -1.7648 -0.2092
 2162TIP3   OH227976   3.859   4.363  12.443  0.3573 -0.0699 -0.2694
 2162TIP3    H127977   3.856   4.437  12.503  0.0023 -2.4248  2.7612
 2162TIP3    H227978   3.945   4.322  12.459  0.0669 -1.0078 -1.0362
 2163TIP3   OH227979   2.125   5.352   5.593  0.2696 -0.8565 -0.0633
 2163TIP3    H127980   2.115   5.262   5.563 -0.1272  0.2142 -3.3564
 2163TIP3    H227981   2.043   5.371   5.640  1.3619 -2.9185  2.8244
 2164TIP3   OH227982   5.205   1.337   5.186  0.1814 -0.3993 -0.2919
 2164TIP3    H127983   5.275   1.321   5.249  0.6267  0.1922 -0.6415
 2164TIP3    H227984   5.129   1.291   5.223  0.2666  0.4663  1.0043
 2165TIP3   OH227985   2.110   3.968   5.368 -0.6766  0.1670 -0.1960
 2165TIP3    H127986   2.047   3.903   5.336 -1.6962 -0.5466  3.1178
 2165TIP3    H227987   2.112   3.955   5.463  1.0866  3.2366  0.2431
 2166TIP3   OH227988   6.209   4.285  13.766 -0.6038  0.3357  0.1831
 2166TIP3    H127989   6.288   4.321  13.809  0.4602  1.1488 -2.3828
 2166TIP3    H227990   6.180   4.354  13.707 -1.3400 -1.2170 -1.3074
 2167TIP3   OH227991   0.552   3.809  12.599  0.1608  0.2616 -0.2297
 2167TIP3    H127992   0.529   3.820  12.507  1.1774  2.0636 -0.3020
 2167TIP3    H227993   0.636   3.854  12.608  0.5377 -0.7305  1.3686
 2168TIP3   OH227994   2.327   5.598   0.053  0.4621  0.1536  0.9468
 2168TIP3    H127995   2.304   5.637   0.137  0.9788 -1.5634  1.9135
 2168TIP3    H227996   2.377   5.520   0.076  1.7430  0.3545 -0.9795
 2169TIP3   OH227997   2.006   5.816   5.126  0.1968 -0.0819 -0.5892
 2169TIP3    H127998   1.956   5.820   5.208  0.1137 -0.9481 -0.5928
 2169TIP3    H227999   2.097   5.804   5.155 -0.0337 -2.0523 -0.6504
 2170TIP3   OH228000   1.535   1.378  14.703 -0.1500  0.4920 -0.0038
 2170TIP3    H128001   1.494   1.451  14.657  0.2313  0.5329 -0.2804
 2170TIP3    H228002   1.628   1.399  14.705  0.3473 -1.2320 -2.4261
 2171TIP3   OH228003   5.471   5.279   3.347  0.2728 -0.7115  0.0731
 2171TIP3    H128004   5.561   5.312   3.349  0.2901 -0.7949  0.5624
 2171TIP3    H228005   5.421   5.343   3.397  0.0314 -0.5935 -0.3124
 2172TIP3   OH228006   5.036   6.200   0.453 -0.6383 -0.0362 -0.7793
 2172TIP3    H128007   5.067   6.168   0.368 -1.8358  1.4712 -1.8128
 2172TIP3    H228008   5.031   6.295   0.442  0.2647  0.2935  1.3547
 2173TIP3   OH228009   5.511   4.517   3.750 -0.1162 -0.2880 -0.3418
 2173TIP3    H128010   5.553   4.495   3.666  1.0776 -1.8538  0.6305
 2173TIP3    H228011   5.583   4.518   3.813 -1.1789 -0.3035  0.8945
 2174TIP3   OH228012   3.305   5.568  13.063  0.0523  0.6018 -0.0753
 2174TIP3    H128013   3.280   5.493  13.009  0.9148 -0.2697  0.6934
 2174TIP3    H228014   3.232   5.579  13.124 -1.2997  2.1098 -1.9095
 2175TIP3   OH228015   3.237   5.990   3.893 -0.3540  0.0507 -0.0457
 2175TIP3    H128016   3.188   6.004   3.974  0.6991  0.0754  0.5908
 2175TIP3    H228017   3.311   6.050   3.899 -0.3313  0.1322 -1.0795
 2176TIP3   OH228018   0.037   4.464   2.077 -0.0646  0.1215 -0.0627
 2176TIP3    H128019  -0.006   4.549   2.078  1.0413  0.6728  0.2944
 2176TIP3    H228020  -0.016   4.411   2.138  0.1686  1.0046  0.9330
 2177TIP3   OH228021   3.360   4.422   4.079  0.3315  0.0298 -0.0913
 2177TIP3    H128022   3.282   4.474   4.101 -0.0485 -0.3473 -0.5459
 2177TIP3    H228023   3.348   4.340   4.126  2.0668  1.2088  2.5608
 2178TIP3   OH228024   1.627   0.440  13.866 -0.3921 -0.0893 -0.1495
 2178TIP3    H128025   1.540   0.401  13.856 -0.8793  0.4635  1.7699
 2178TIP3    H228026   1.643   0.441  13.961  0.4417  2.5442 -0.2655
 2179TIP3   OH228027   4.076   4.257  11.806 -0.4927 -0.1047  0.2399
 2179TIP3    H128028   4.151   4.303  11.844  0.3325 -1.1390 -0.1284
 2179TIP3    H228029   4.104   4.234  11.717 -0.8707 -1.3801  0.4414
 2180TIP3   OH228030   5.977   5.597   0.182  0.1539  0.1186  0.0540
 2180TIP3    H128031   5.953   5.688   0.168  0.1441 -0.1338 -1.7103
 2180TIP3    H228032   5.895   5.548   0.168 -0.2696 -0.0532  2.7669
 2181TIP3   OH228033   0.658   0.668  13.631 -0.0468 -0.0752 -0.0654
 2181TIP3    H128034   0.576   0.620  13.631 -0.5073  0.6868 -0.4786
 2181TIP3    H228035   0.720   0.611  13.585 -0.4603 -0.4649 -0.1366
 2182TIP3   OH228036   0.617   6.200  14.454 -0.7285 -0.0129  0.0814
 2182TIP3    H128037   0.616   6.277  14.399 -0.7122 -0.0998 -0.0400
 2182TIP3    H228038   0.531   6.199  14.497 -1.0412 -0.3769 -0.5416
 2183TIP3   OH228039   5.895   3.605  15.917 -0.0432 -0.3104 -0.3959
 2183TIP3    H128040   5.839   3.527  15.912 -0.9946  0.2417  1.3839
 2183TIP3    H228041   5.924   3.619  15.827 -2.1262 -1.0868 -1.2178
 2184TIP3   OH228042   2.532   5.901  15.970  0.4795  0.5720  0.0408
 2184TIP3    H128043   2.441   5.914  15.997  1.1227  3.5810  0.9252
 2184TIP3    H228044   2.537   5.939  15.882  0.4208 -1.5159 -0.9005
 2185TIP3   OH228045   2.381   6.198   4.594  0.5186 -0.0707 -0.3281
 2185TIP3    H128046   2.372   6.163   4.506 -0.3600  1.3074 -0.8056
 2185TIP3    H228047   2.410   6.288   4.581  0.8737 -0.0145  0.8014
 2186TIP3   OH228048   6.007   4.437   1.307  0.2418  0.1295  0.0123
 2186TIP3    H128049   5.984   4.358   1.355  1.6900  0.2937  1.0105
 2186TIP3    H228050   6.054   4.407   1.230  0.5072 -0.0021  0.2257
 2187TIP3   OH228051   1.982   0.436   3.670 -0.0500 -0.0249  0.1138
 2187TIP3    H128052   1.979   0.527   3.640  2.8117 -1.2177 -4.3802
 2187TIP3    H228053   2.064   0.429   3.718 -0.0762 -0.2960  0.1188
 2188TIP3   OH228054   3.101   3.616  14.829  0.5954  0.0403  0.6535
 2188TIP3    H128055   3.045   3.622  14.906 -0.3330  3.9299 -0.2129
 2188TIP3    H228056   3.136   3.705  14.818  2.6013 -1.0131 -2.0100
 2189TIP3   OH228057   3.704   1.510  14.649 -0.1858 -0.2290  0.2619
 2189TIP3    H128058   3.659   1.463  14.719  3.1404 -0.9675  1.9806
 2189TIP3    H228059   3.684   1.602  14.665 -1.8569 -0.5887  0.3818
 2190TIP3   OH228060   2.696   3.870   2.466 -0.7171  0.4100  0.4559
 2190TIP3    H128061   2.746   3.799   2.506  0.6256  0.1794 -1.5786
 2190TIP3    H228062   2.611   3.830   2.445  0.1638 -0.7277 -1.0366
 2191TIP3   OH228063   4.194   2.681  16.431 -0.1813 -0.2572 -0.0687
 2191TIP3    H128064   4.246   2.758  16.456 -2.0038  0.7330  0.7868
 2191TIP3    H228065   4.249   2.635  16.367  1.6618  0.8290  0.6858
 2192TIP3   OH228066   4.922   6.682  11.821 -0.9805 -0.6774 -0.6405
 2192TIP3    H128067   4.923   6.597  11.778  1.6145  0.7727 -3.6253
 2192TIP3    H228068   4.848   6.728  11.781  0.8386  0.3198 -2.9336
 2193TIP3   OH228069   4.189   1.601  12.225 -0.0721  0.3724 -0.1251
 2193TIP3    H128070   4.223   1.660  12.158 -0.6334  0.1674 -0.5947
 2193TIP3    H228071   4.105   1.571  12.190  0.8648 -1.8392 -0.5429
 2194TIP3   OH228072   6.546   0.619   1.844 -0.5182  0.0883 -0.1741
 2194TIP3    H128073   6.492   0.578   1.776  0.7938 -0.5709 -0.8623
 2194TIP3    H228074   6.600   0.547   1.877 -0.9799  0.4568  1.4125
 2195TIP3   OH228075   4.699   4.396  15.188 -0.6547 -0.1719 -0.1825
 2195TIP3    H128076   4.604   4.400  15.202 -0.4907 -1.8866  1.5773
 2195TIP3    H228077   4.732   4.478  15.227 -1.1115 -1.0299  2.1211
 2196TIP3   OH228078   6.536   3.359   0.076  0.2020  0.0879 -0.9247
 2196TIP3    H128079   6.606   3.423   0.086  1.7415 -1.7392  0.3375
 2196TIP3    H228080   6.465   3.407   0.032  1.0389  2.8284  0.6003
 2197TIP3   OH228081   5.271   4.517  13.616  0.1316 -0.1648 -0.0323
 2197TIP3    H128082   5.284   4.606  13.651  0.2237 -0.0048 -0.4742
 2197TIP3    H228083   5.193   4.485  13.662  0.3226  0.0050  0.4107
 2198TIP3   OH228084   2.274   3.990   4.201 -0.4168  0.1769 -0.3513
 2198TIP3    H128085   2.324   3.952   4.129  0.9473  1.6271 -0.1959
 2198TIP3    H228086   2.338   4.001   4.271 -1.1770  1.0982  0.2196
 2199TIP3   OH228087   5.423   6.092   2.771  0.3106 -0.3696 -0.2005
 2199TIP3    H128088   5.442   6.183   2.748  2.4923 -1.0297 -1.1073
 2199TIP3    H228089   5.332   6.094   2.800 -0.0522  1.8900 -1.3463
 2200TIP3   OH228090   2.698   0.660   4.810 -0.1869  0.2279  0.0358
 2200TIP3    H128091   2.652   0.733   4.767  0.1698 -0.1660 -1.0272
 2200TIP3    H228092   2.629   0.615   4.860 -0.8472 -0.0131 -1.0795
 2201TIP3   OH228093   1.507   2.435  15.728 -0.0762 -1.2454  0.7163
 2201TIP3    H128094   1.517   2.417  15.822 -1.7099 -0.6880  1.0202
 2201TIP3    H228095   1.412   2.434  15.714 -0.1152  2.9807 -0.0277
 2202TIP3   OH228096   3.203   1.514  12.275  0.0786 -0.3364  0.0599
 2202TIP3    H128097   3.189   1.594  12.224  0.3861 -1.5040 -1.8898
 2202TIP3    H228098   3.147   1.525  12.352  0.4364  1.9349  0.0394
 2203TIP3   OH228099   5.494   4.110  14.100  0.1492 -0.1183  0.8291
 2203TIP3    H128100   5.536   4.111  14.014  1.4676 -0.8812  1.4518
 2203TIP3    H228101   5.401   4.098  14.081 -0.0895  3.5715 -0.6667
 2204TIP3   OH228102   1.383   1.293   4.146 -0.0072 -0.1384  0.5107
 2204TIP3    H128103   1.365   1.283   4.239  0.3390 -0.1576  0.5741
 2204TIP3    H228104   1.476   1.275   4.137 -0.2677 -1.2910 -0.0029
 2205TIP3   OH228105   4.621   1.098  12.991 -0.3088  1.0818 -0.8505
 2205TIP3    H128106   4.702   1.098  13.042 -1.4569 -2.5252  1.1449
 2205TIP3    H228107   4.649   1.119  12.902  2.7657  0.3498 -0.1137
 2206TIP3   OH228108   5.360   3.475   4.595  0.7725  0.4949 -0.7026
 2206TIP3    H128109   5.413   3.487   4.674 -0.4895 -0.0620  0.2531
 2206TIP3    H228110   5.332   3.383   4.599  0.0829  0.6689 -1.4048
 2207TIP3   OH228111   6.580   1.302  11.705  0.2073 -0.2332  0.0934
 2207TIP3    H128112   6.491   1.326  11.682  0.0553 -0.0309  0.8745
 2207TIP3    H228113   6.599   1.353  11.784  1.0575 -0.1754 -0.1419
 2208TIP3   OH228114   0.215   0.022   1.322 -0.0599  0.2122 -0.5636
 2208TIP3    H128115   0.168   0.017   1.239 -0.6993 -0.0902 -0.1875
 2208TIP3    H228116   0.146   0.033   1.388  0.2722 -1.6642  0.1393
 2209TIP3   OH228117   3.275   4.858   4.930 -0.2023 -0.3115  0.9009
 2209TIP3    H128118   3.274   4.927   4.996  0.1090 -0.1719  0.7603
 2209TIP3    H228119   3.198   4.804   4.950 -1.2352  0.8710  0.1583
 2210TIP3   OH228120   2.659   5.055   3.773 -0.0201  0.7514 -0.3395
 2210TIP3    H128121   2.738   5.097   3.737 -0.4000  0.8821 -1.0312
 2210TIP3    H228122   2.632   5.112   3.845  0.2633  0.9460 -0.3869
 2211TIP3   OH228123   0.233   3.986  11.774  0.3931  0.9672 -0.4063
 2211TIP3    H128124   0.301   3.919  11.770  0.1953  0.6915  0.7959
 2211TIP3    H228125   0.227   4.020  11.684  0.7273 -0.3795 -0.9422
 2212TIP3   OH228126   5.383   2.039  14.893  0.0905 -0.2027 -0.3307
 2212TIP3    H128127   5.412   2.117  14.845 -0.1936 -1.4715 -2.6033
 2212TIP3    H228128   5.462   2.006  14.935  0.5658  0.2795 -0.8379
 2213TIP3   OH228129   1.330   5.107  16.605 -0.2882  0.1103 -0.1584
 2213TIP3    H128130   1.370   5.194  16.595 -1.3090  0.4501 -1.4819
 2213TIP3    H228131   1.239   5.125  16.626 -0.2630 -0.6565  0.6016
 2214TIP3   OH228132   3.531   0.183   3.736  0.2662  0.2652 -0.1578
 2214TIP3    H128133   3.618   0.147   3.717  0.2091 -1.5291  2.6350
 2214TIP3    H228134   3.547   0.256   3.796 -0.2501 -1.8266  2.6339
 2215TIP3   OH228135   0.633   3.439   1.363  0.1523 -0.0564  0.0920
 2215TIP3    H128136   0.702   3.484   1.315 -0.2827  0.7770  0.2341
 2215TIP3    H228137   0.631   3.482   1.448  0.9173 -1.5242  0.8741
 2216TIP3   OH228138   0.300   5.467   4.342 -1.0130  0.0614  0.4048
 2216TIP3    H128139   0.389   5.497   4.361 -1.7827  2.2026  0.7746
 2216TIP3    H228140   0.307   5.424   4.256  0.6697 -1.2341  1.1680
 2217TIP3   OH228141   4.478   6.726   5.340 -0.0246  0.1660  0.0632
 2217TIP3    H128142   4.484   6.686   5.253 -0.8839 -2.3046  1.0872
 2217TIP3    H228143   4.569   6.735   5.369  0.2474  0.6998 -0.9588
 2218TIP3   OH228144   1.244   2.862   0.448 -0.6321  0.1882  0.2863
 2218TIP3    H128145   1.232   2.930   0.514 -1.3243 -0.5853  0.9726
 2218TIP3    H228146   1.157   2.851   0.409 -0.5940 -0.4942  0.3762
 2219TIP3   OH228147   6.643   5.053  13.008  0.1023  0.1859  0.0406
 2219TIP3    H128148   6.595   4.977  13.040 -0.5797 -0.3749 -2.2621
 2219TIP3    H228149   6.625   5.121  13.072 -0.7130 -1.0797  1.1911
 2220TIP3   OH228150   0.622   3.856   2.245 -0.0254 -0.4075 -0.2158
 2220TIP3    H128151   0.716   3.858   2.232 -0.2525  1.2533 -1.7047
 2220TIP3    H228152   0.590   3.938   2.209 -2.1039 -1.1395 -0.1379
 2221TIP3   OH228153   1.088   1.759   1.400 -0.6676  0.6595  0.4813
 2221TIP3    H128154   1.026   1.700   1.357 -0.3631  1.7143 -1.4832
 2221TIP3    H228155   1.041   1.842   1.407 -0.6927  0.5079  2.1846
 2222TIP3   OH228156   3.577   4.016  12.073 -0.3590 -0.0203 -0.0617
 2222TIP3    H128157   3.639   4.078  12.111  0.5453 -1.0059  0.0708
 2222TIP3    H228158   3.629   3.963  12.013 -1.1179 -0.6926 -0.1342
 2223TIP3   OH228159   5.176   0.438  13.935  0.4246 -0.1918  0.4073
 2223TIP3    H128160   5.198   0.512  13.991  1.1612 -0.1663  0.0938
 2223TIP3    H228161   5.245   0.374  13.951  0.6626 -0.1667 -0.5032
 2224TIP3   OH228162   1.262   5.586  16.727 -0.6279  0.0901  0.5376
 2224TIP3    H128163   1.302   5.602  16.812  0.6839  3.5109 -0.6411
 2224TIP3    H228164   1.183   5.640  16.727 -0.7611 -0.0974 -0.2972
 2225TIP3   OH228165   1.985   1.955   0.367  0.4791  0.4561  0.1008
 2225TIP3    H128166   1.981   1.896   0.292  0.1611  1.1901 -0.4720
 2225TIP3    H228167   1.948   1.904   0.440  0.0749  0.0001 -0.4181
 2226TIP3   OH228168   2.099   2.641   2.596  0.2383 -0.4098  0.3879
 2226TIP3    H128169   2.045   2.717   2.574  0.3286 -0.8795 -1.5351
 2226TIP3    H228170   2.062   2.569   2.544  1.0217 -1.3496  1.1189
 2227TIP3   OH228171   2.013   6.217  16.894 -0.6798 -0.0867 -0.4094
 2227TIP3    H128172   2.025   6.281  16.964  2.5656 -0.3676 -0.6174
 2227TIP3    H228173   1.994   6.135  16.939  0.3321 -0.0457  0.1052
 2228TIP3   OH228174   5.100   5.770  14.510 -0.1487  0.1319 -0.1072
 2228TIP3    H128175   5.041   5.731  14.576 -1.6290  0.4355 -1.2211
 2228TIP3    H228176   5.060   5.854  14.489  1.3197  0.8528 -0.0537
 2229TIP3   OH228177   2.528   3.231  17.150  0.1257 -0.1854 -0.5688
 2229TIP3    H128178   2.487   3.170  17.090 -0.2089 -0.5451  0.0151
 2229TIP3    H228179   2.548   3.308  17.097 -0.8127 -0.2170 -0.9767
 2230TIP3   OH228180   0.843   2.549   5.648  0.3554  0.6741 -0.3501
 2230TIP3    H128181   0.880   2.482   5.590  1.4642  0.1513  0.9213
 2230TIP3    H228182   0.867   2.520   5.736 -2.2385  0.8513  0.4834
 2231TIP3   OH228183   2.482   1.712  12.943  0.0993 -0.4476 -0.3474
 2231TIP3    H128184   2.503   1.788  12.888  0.6798  0.6293  1.3134
 2231TIP3    H228185   2.388   1.717  12.956  0.0855 -0.2035 -0.5382
 2232TIP3   OH228186   1.752   4.994   1.569 -0.4750 -0.3881 -0.2070
 2232TIP3    H128187   1.769   5.068   1.628 -1.5442  0.6558 -1.1648
 2232TIP3    H228188   1.716   4.926   1.625  1.4328 -0.5557  0.8580
 2233TIP3   OH228189   2.522   4.953   5.384  0.0326 -0.5662  0.3770
 2233TIP3    H128190   2.550   5.007   5.458  0.5104 -1.0705  0.5608
 2233TIP3    H228191   2.540   5.008   5.307 -1.8111  0.5561  0.6907
 2234TIP3   OH228192   4.960   4.913  17.182  0.6067  0.3615  0.7112
 2234TIP3    H128193   4.945   4.835  17.236  0.0492 -0.0834 -0.0718
 2234TIP3    H228194   5.010   4.880  17.107 -1.9744  0.2188 -0.9979
 2235TIP3   OH228195   5.485   4.972   3.461  0.0996  0.6360  0.1464
 2235TIP3    H128196   5.528   5.049   3.498  0.6933  0.1379  0.5118
 2235TIP3    H228197   5.553   4.905   3.460 -1.1411 -0.7329  2.5089
 2236TIP3   OH228198   6.387   4.122   3.530  0.0921  0.0247 -0.0471
 2236TIP3    H128199   6.471   4.095   3.494 -0.3637 -0.1131 -1.0219
 2236TIP3    H228200   6.390   4.217   3.530 -0.6804  0.0938 -2.3910
 2237TIP3   OH228201   5.609   2.432  14.978 -0.6389 -0.1413 -0.2265
 2237TIP3    H128202   5.692   2.477  14.994  0.0258 -2.0147  1.7456
 2237TIP3    H228203   5.555   2.452  15.054 -1.2238 -0.7139 -0.4841
 2238TIP3   OH228204   6.476   2.806   3.626 -0.5756  0.3272 -0.1497
 2238TIP3    H128205   6.450   2.865   3.555 -1.1230  0.9360  0.5561
 2238TIP3    H228206   6.494   2.863   3.700 -2.4535 -0.4828  0.9549
 2239TIP3   OH228207   2.533   6.160   5.939 -0.2734 -0.0575  0.3264
 2239TIP3    H128208   2.586   6.082   5.958  1.0068  0.1602 -2.1088
 2239TIP3    H228209   2.562   6.225   6.003  1.3167 -0.4412  0.0181
 2240TIP3   OH228210   2.708   4.102  16.846  0.6323 -0.1650 -0.5382
 2240TIP3    H128211   2.771   4.162  16.886 -0.2304  0.2421  0.2208
 2240TIP3    H228212   2.662   4.062  16.920  2.7527 -3.5303 -0.9008
 2241TIP3   OH228213   1.655   4.762  15.834 -0.4529 -0.0228  0.3500
 2241TIP3    H128214   1.610   4.781  15.752  1.1909  0.0190 -0.5565
 2241TIP3    H228215   1.633   4.670  15.852 -1.4505  0.1941  0.2801
 2242TIP3   OH228216   3.776   5.896  13.698 -0.4132 -0.2460  0.5545
 2242TIP3    H128217   3.716   5.948  13.644 -1.4355 -2.8645 -0.9237
 2242TIP3    H228218   3.842   5.863  13.636 -0.0450 -1.0720  1.3798
 2243TIP3   OH228219   6.326   5.809   1.346 -0.1884 -0.1148  0.1297
 2243TIP3    H128220   6.254   5.747   1.354 -0.2623 -0.2986 -1.7296
 2243TIP3    H228221   6.403   5.754   1.327 -0.4246  0.3874 -2.4692
 2244TIP3   OH228222   3.012   1.263   6.150 -0.4455 -0.4407  0.2722
 2244TIP3    H128223   3.066   1.251   6.072 -1.5899  0.3418 -0.6454
 2244TIP3    H228224   3.051   1.203   6.215  1.0007 -0.4970 -0.6276
 2245TIP3   OH228225   1.997   2.390  11.518  0.3701 -0.0566  0.0565
 2245TIP3    H128226   1.982   2.425  11.430 -0.7665  1.1522  0.7184
 2245TIP3    H228227   1.947   2.308  11.520 -0.7215  0.6099  0.0355
 2246TIP3   OH228228   5.639   5.366   2.082  0.1646 -0.5356  0.4571
 2246TIP3    H128229   5.605   5.287   2.042  2.7242 -1.0482 -0.8159
 2246TIP3    H228230   5.693   5.336   2.155 -0.2495  0.1192  1.0411
 2247TIP3   OH228231   4.825   2.048   3.323 -0.3891  0.1246 -0.0929
 2247TIP3    H128232   4.867   2.000   3.394 -0.7056  0.5828  0.4137
 2247TIP3    H228233   4.735   2.061   3.353 -0.6730 -0.1560 -0.8210
 2248TIP3   OH228234   1.165   4.516   0.615 -0.6287  0.6968 -0.0391
 2248TIP3    H128235   1.130   4.561   0.691  1.3561  2.2273  0.0193
 2248TIP3    H228236   1.260   4.519   0.626 -0.3746 -1.7002 -1.0923
 2249TIP3   OH228237   4.242   3.066  12.436  0.0784  0.1890 -0.4747
 2249TIP3    H128238   4.303   2.994  12.424  0.0564 -0.1965  1.5153
 2249TIP3    H228239   4.296   3.140  12.463 -0.0210  0.6438 -1.4888
 2250TIP3   OH228240   6.480   2.264   3.719  0.3761  0.2874  0.2911
 2250TIP3    H128241   6.402   2.319   3.711 -1.0652 -1.6928  0.6377
 2250TIP3    H228242   6.459   2.184   3.672  2.7846  0.3062 -0.9313
 2251TIP3   OH228243   2.641   0.175   4.855 -0.4322  0.1525  0.0911
 2251TIP3    H128244   2.729   0.210   4.844 -0.2269 -0.3162  0.2171
 2251TIP3    H228245   2.642   0.091   4.809 -0.7436  0.0396  0.2867
 2252TIP3   OH228246   3.795   5.987  14.075 -0.0813 -0.4146 -0.3459
 2252TIP3    H128247   3.845   5.908  14.056  2.3622  0.4904  1.9361
 2252TIP3    H228248   3.763   5.975  14.165 -1.1204  0.4512 -0.5837
 2253TIP3   OH228249   3.665   6.379   0.158  0.4528  0.4263 -0.4445
 2253TIP3    H128250   3.741   6.374   0.100 -0.4164 -0.0376 -1.5837
 2253TIP3    H228251   3.609   6.307   0.129 -0.7964  1.2821 -0.1895
 2254TIP3   OH228252   4.649   0.885   2.182  0.1752  0.6573  0.2652
 2254TIP3    H128253   4.693   0.808   2.219  0.0293  0.3333 -0.2371
 2254TIP3    H228254   4.609   0.928   2.258 -2.1472 -1.3199  0.2252
 2255TIP3   OH228255   1.485   3.101  15.605  0.3372 -0.2839 -0.0405
 2255TIP3    H128256   1.481   3.141  15.691  0.9142 -2.6295  1.1298
 2255TIP3    H228257   1.522   3.169  15.548  1.5247  0.7387  1.9033
 2256TIP3   OH228258   4.380   2.005  15.530  0.0571 -0.1459 -0.5793
 2256TIP3    H128259   4.371   1.913  15.504 -0.7067 -0.2090 -0.0769
 2256TIP3    H228260   4.473   2.013  15.554 -0.4904 -1.4958  2.1602
 2257TIP3   OH228261   5.930   2.560   4.148 -0.1730 -0.1668  0.4350
 2257TIP3    H128262   5.992   2.537   4.078  0.1759 -0.4020  0.8158
 2257TIP3    H228263   5.985   2.599   4.216 -0.7638  1.8269 -0.2130
 2258TIP3   OH228264   5.419   3.153  14.933  0.5559 -0.0132  0.5643
 2258TIP3    H128265   5.433   3.214  14.860  0.9401  0.3611  0.9527
 2258TIP3    H228266   5.459   3.071  14.903  0.4322  0.0461  0.2264
 2259TIP3   OH228267   0.286   2.581  15.201  0.3876  0.6991  0.2013
 2259TIP3    H128268   0.379   2.559  15.212  0.1185 -1.4320 -1.5045
 2259TIP3    H228269   0.265   2.553  15.112 -2.0266  0.6680  0.7426
 2260TIP3   OH228270   1.581   2.781  14.775  0.0085 -0.0503  0.7000
 2260TIP3    H128271   1.522   2.720  14.820  1.5906  0.0056  2.9200
 2260TIP3    H228272   1.543   2.867  14.791  1.1648  0.0769  2.9672
 2261TIP3   OH228273   1.921   0.155  14.304 -0.1727 -0.0190  0.2433
 2261TIP3    H128274   1.982   0.160  14.230 -2.0238 -0.2639 -1.3454
 2261TIP3    H228275   1.924   0.242  14.344  0.5356  0.2437 -0.3628
 2262TIP3   OH228276   6.490   5.193  16.233 -0.1614 -0.0268  0.1514
 2262TIP3    H128277   6.561   5.181  16.296 -0.5620 -0.0708  0.5916
 2262TIP3    H228278   6.527   5.163  16.150 -0.1074 -1.3322  0.6337
 2263TIP3   OH228279   3.051   2.539   0.226 -0.3652 -0.5675 -0.1440
 2263TIP3    H128280   3.048   2.473   0.156  1.8749  0.3439 -1.1486
 2263TIP3    H228281   3.032   2.622   0.181 -0.1520 -0.1386  0.5580
 2264TIP3   OH228282   3.968   2.474   0.602  0.1245  0.1282 -0.0304
 2264TIP3    H128283   3.888   2.426   0.624  0.4246 -0.0547  0.6643
 2264TIP3    H228284   4.003   2.429   0.525  0.2901 -0.6334  0.4906
 2265TIP3   OH228285   1.989   5.560  13.445  0.4016  0.2812  0.3959
 2265TIP3    H128286   1.979   5.480  13.497 -0.2505  0.4374  0.5143
 2265TIP3    H228287   1.906   5.570  13.399  0.0644  1.4532  1.1951
 2266TIP3   OH228288   0.607   0.094   4.019  0.5833  0.3851 -0.4215
 2266TIP3    H128289   0.542   0.163   4.033 -1.1237 -1.3151  0.2126
 2266TIP3    H228290   0.647   0.081   4.105 -0.5649 -0.8524 -0.0674
 2267TIP3   OH228291   1.741   2.792   3.736  0.2525  0.0681  0.0355
 2267TIP3    H128292   1.822   2.808   3.688 -0.5497  0.8512 -1.0857
 2267TIP3    H228293   1.712   2.705   3.707  1.0235 -0.4944  0.9322
 2268TIP3   OH228294   2.738   4.170   5.150 -0.0432 -0.6613  0.0174
 2268TIP3    H128295   2.738   4.212   5.235 -0.0964 -0.4672 -0.0774
 2268TIP3    H228296   2.667   4.213   5.102  0.2105 -0.5272 -0.2428
 2269TIP3   OH228297   4.654   5.320  15.525 -0.1011  0.0613  0.1211
 2269TIP3    H128298   4.629   5.411  15.510 -0.3132  0.4333  2.5786
 2269TIP3    H228299   4.571   5.272  15.529 -0.0494 -0.0264  0.1532
 2270TIP3   OH228300   5.455   6.199  12.489 -0.3776  0.4338 -0.3390
 2270TIP3    H128301   5.409   6.116  12.491  0.3175 -0.0106 -1.8596
 2270TIP3    H228302   5.449   6.233  12.578 -2.9910  0.0420 -0.3312
 2271TIP3   OH228303   2.412   2.324  12.088 -0.0307 -0.2189 -0.2687
 2271TIP3    H128304   2.323   2.291  12.080 -0.3932  0.8282 -0.6105
 2271TIP3    H228305   2.449   2.275  12.161  0.2488 -3.1501 -2.2819
 2272TIP3   OH228306   2.780   2.586   2.635 -0.1192  0.1116 -0.0619
 2272TIP3    H128307   2.781   2.531   2.713 -0.7584 -1.7601 -1.3404
 2272TIP3    H228308   2.865   2.631   2.637  0.6787 -1.3833  0.6932
 2273TIP3   OH228309   6.309   1.394   6.220  0.4130  0.5603  0.0961
 2273TIP3    H128310   6.297   1.422   6.311 -0.0354 -1.3908  0.6707
 2273TIP3    H228311   6.258   1.313   6.213  0.0487  0.9468 -2.0396
 2274TIP3   OH228312   5.831   3.475  13.552  0.0580 -0.6900 -0.0135
 2274TIP3    H128313   5.746   3.519  13.560  0.8827  1.3221 -1.8777
 2274TIP3    H228314   5.895   3.546  13.560  1.6113 -2.2251  1.6185
 2275TIP3   OH228315   5.037   5.481  12.339 -0.1816 -0.1314 -0.1948
 2275TIP3    H128316   5.032   5.576  12.340  2.5681  0.0602  0.2141
 2275TIP3    H228317   5.099   5.462  12.268  0.4243 -1.5214  0.6903
 2276TIP3   OH228318   2.743   3.827  12.232  0.2731 -0.4320 -0.4060
 2276TIP3    H128319   2.719   3.765  12.162 -1.6007 -0.4738  0.2299
 2276TIP3    H228320   2.813   3.783  12.280  0.2265 -1.2624 -1.0843
 2277TIP3   OH228321   5.305   6.607   1.837 -0.0255 -0.7573 -0.0588
 2277TIP3    H128322   5.272   6.575   1.753 -0.7855 -0.7487  0.2263
 2277TIP3    H228323   5.397   6.581   1.839 -0.0997 -1.0723 -0.7388
 2278TIP3   OH228324   2.172   2.966  10.764 -0.3846  0.1628  0.7930
 2278TIP3    H128325   2.255   2.934  10.799  0.1168  0.7633  0.1688
 2278TIP3    H228326   2.197   3.020  10.689 -1.4588 -1.7575 -1.0225
 2279TIP3   OH228327   5.459   2.828   2.602  0.2614  0.0355 -0.3120
 2279TIP3    H128328   5.407   2.841   2.523 -0.4473 -1.2324 -0.0663
 2279TIP3    H228329   5.548   2.853   2.577  0.0509 -0.3922 -1.5174
 2280TIP3   OH228330   2.902   4.672   0.155  0.2420  0.0800  0.5034
 2280TIP3    H128331   2.836   4.605   0.167  1.2333 -0.6544  2.0801
 2280TIP3    H228332   2.926   4.698   0.244  1.2443  1.1477 -0.0622
 2281TIP3   OH228333   0.175   1.909  10.541 -0.6505 -0.5992 -0.4225
 2281TIP3    H128334   0.193   1.834  10.485 -1.7926 -1.7457  0.6814
 2281TIP3    H228335   0.241   1.974  10.518  0.3150 -1.9242 -1.4434
 2282TIP3   OH228336   5.930   1.405   3.682 -0.9160 -0.6328 -0.4211
 2282TIP3    H128337   5.897   1.316   3.693  1.3758 -1.4550 -0.0830
 2282TIP3    H228338   6.013   1.406   3.728 -0.1225  1.2160 -1.8204
 2283TIP3   OH228339   4.092   4.059  16.793  0.0216 -0.3277 -0.7856
 2283TIP3    H128340   4.036   4.000  16.844  0.4181 -0.0995 -0.0882
 2283TIP3    H228341   4.063   4.147  16.818 -0.1803 -0.2148 -1.3960
 2284TIP3   OH228342   5.635   2.007  14.351 -0.0952  0.0223  0.3319
 2284TIP3    H128343   5.637   2.086  14.405 -1.0590  0.4646 -0.2731
 2284TIP3    H228344   5.563   2.021  14.290  1.2737 -0.2426 -1.3979
 2285TIP3   OH228345   3.130   4.495   5.208  0.2675 -0.1772 -0.0212
 2285TIP3    H128346   3.106   4.419   5.156  0.7188 -0.2995 -0.0526
 2285TIP3    H228347   3.211   4.469   5.253 -0.8293 -0.5779  1.7984
 2286TIP3   OH228348   3.110   1.334   1.083  0.0755 -0.5332  0.5630
 2286TIP3    H128349   3.165   1.399   1.038 -0.0749 -0.5009  0.4231
 2286TIP3    H228350   3.154   1.319   1.166 -0.8745  1.1456  1.3876
 2287TIP3   OH228351   0.543   1.063   0.909  0.1546  0.0046  0.4205
 2287TIP3    H128352   0.578   1.077   0.997 -0.8512 -3.5111  1.4560
 2287TIP3    H228353   0.451   1.086   0.915  0.3647  1.0125 -0.0814
 2288TIP3   OH228354   3.647   2.650  11.405 -0.4032  0.0294  0.1425
 2288TIP3    H128355   3.595   2.714  11.356 -0.5831  0.0665  0.3824
 2288TIP3    H228356   3.735   2.657  11.366 -0.4012  0.4864  0.2255
 2289TIP3   OH228357   4.883   5.065  12.363  0.6549 -0.2646 -0.1571
 2289TIP3    H128358   4.792   5.041  12.379  0.3356 -0.4464 -2.1452
 2289TIP3    H228359   4.933   5.014  12.427 -0.5355 -1.0225  0.1842
 2290TIP3   OH228360   1.227   0.318  16.130  0.3587  0.0229  0.2699
 2290TIP3    H128361   1.197   0.283  16.213 -0.2073 -0.4746 -0.1380
 2290TIP3    H228362   1.307   0.269  16.110  0.7765  0.4966  0.7633
 2291TIP3   OH228363   1.594   2.476  12.705  0.3004 -0.2260 -0.2390
 2291TIP3    H128364   1.534   2.403  12.692  0.4472 -0.3407 -0.2710
 2291TIP3    H228365   1.576   2.507  12.793  0.8346 -0.8469  0.0936
 2292TIP3   OH228366   6.408   2.722   6.233 -0.2134  0.0754 -0.0759
 2292TIP3    H128367   6.361   2.694   6.311 -0.8771 -1.0917 -0.8907
 2292TIP3    H228368   6.358   2.796   6.200 -0.8806 -0.4911 -0.3387
 2293TIP3   OH228369   4.581   0.828  13.255 -0.5305 -0.5383 -0.4929
 2293TIP3    H128370   4.602   0.736  13.235  0.2023 -0.1546 -1.5728
 2293TIP3    H228371   4.658   0.876  13.225 -1.4937  0.5618 -1.2370
 2294TIP3   OH228372   2.715   2.721  15.902 -0.3322 -0.0265 -0.0113
 2294TIP3    H128373   2.800   2.679  15.893 -1.1358 -1.4935 -0.9699
 2294TIP3    H228374   2.679   2.686  15.984 -0.1559  0.3744  0.2454
 2295TIP3   OH228375   2.379   2.629  16.848 -0.0181  0.5404 -0.0766
 2295TIP3    H128376   2.421   2.657  16.767  0.0742  0.1699 -0.1576
 2295TIP3    H228377   2.398   2.699  16.911  1.3137  0.0579  0.0775
 2296TIP3   OH228378   1.766   5.801   1.325 -0.7367  0.4166  0.3308
 2296TIP3    H128379   1.758   5.821   1.232 -1.0895  1.5291  0.5919
 2296TIP3    H228380   1.854   5.833   1.348  0.8445 -3.1768 -0.4183
 2297TIP3   OH228381   4.278   1.710   6.105 -0.4042  0.5468 -0.6544
 2297TIP3    H128382   4.319   1.736   6.188 -1.1697  0.0302 -0.1078
 2297TIP3    H228383   4.318   1.767   6.040  0.8468  0.3744 -0.0609
 2298TIP3   OH228384   4.047   4.612  11.908  0.0956 -0.1897 -0.1645
 2298TIP3    H128385   4.053   4.708  11.908 -2.5094  0.0120 -0.9588
 2298TIP3    H228386   4.111   4.584  11.843  1.4842  0.9418  0.6731
 2299TIP3   OH228387   0.378   5.834   6.043  0.1983 -0.4646 -0.2243
 2299TIP3    H128388   0.353   5.890   6.116 -1.3568 -2.0946  0.5408
 2299TIP3    H228389   0.457   5.789   6.073  0.1539 -0.3609  0.0456
 2300TIP3   OH228390   6.424   1.244  16.586 -0.3632 -0.6435  0.7241
 2300TIP3    H128391   6.373   1.196  16.651 -1.4356  0.7444  0.9454
 2300TIP3    H228392   6.359   1.292  16.535  0.7077  1.0719  0.9262
 2301TIP3   OH228393   3.797   6.675   2.079  0.3043 -0.0785  0.6922
 2301TIP3    H128394   3.720   6.661   2.025  0.0625  0.8440  0.7906
 2301TIP3    H228395   3.864   6.618   2.041  0.0546  0.3550 -0.3913
 2302TIP3   OH228396   4.773   1.086   3.761  0.3617 -0.5141  0.1343
 2302TIP3    H128397   4.850   1.112   3.811 -1.7946  0.8141  2.9395
 2302TIP3    H228398   4.731   1.169   3.738 -1.4406 -1.2608  0.6731
 2303TIP3   OH228399   3.729   0.508  17.054 -0.3808 -0.5283  0.2170
 2303TIP3    H128400   3.735   0.479  17.145 -1.9381  1.8295  1.1162
 2303TIP3    H228401   3.660   0.575  17.055  1.0062  1.0039 -2.3065
 2304TIP3   OH228402   1.226   3.628   0.088 -0.0424  0.2224  0.0166
 2304TIP3    H128403   1.237   3.594  -0.000 -0.8389  0.3861 -0.1527
 2304TIP3    H228404   1.139   3.598   0.115 -0.6047  1.7509  0.0072
 2305TIP3   OH228405   0.280   1.624   3.540 -0.7543 -0.1841  0.2460
 2305TIP3    H128406   0.189   1.616   3.568 -0.7862 -0.4263  0.0756
 2305TIP3    H228407   0.277   1.615   3.445 -0.4756 -0.9073  0.2951
 2306TIP3   OH228408   3.502   1.351   3.083 -0.1442  0.4867 -0.2579
 2306TIP3    H128409   3.477   1.377   3.172  1.9102  1.4013  0.0897
 2306TIP3    H228410   3.578   1.294   3.095 -2.1198 -2.4698 -1.2595
 2307TIP3   OH228411   6.606   3.001   1.437 -0.0651  0.6147  0.1444
 2307TIP3    H128412   6.569   2.974   1.521  0.2626  0.4596  0.2375
 2307TIP3    H228413   6.690   3.041   1.460 -0.1858  0.9898 -0.0649
 2308TIP3   OH228414   5.171   4.838  12.706  0.6548 -0.3815  0.3129
 2308TIP3    H128415   5.229   4.899  12.662  1.0492 -1.1031 -0.1755
 2308TIP3    H228416   5.180   4.756  12.657  0.3712 -0.9224  1.1497
 2309TIP3   OH228417   0.352   1.602  11.777 -0.5445 -0.3687 -0.1384
 2309TIP3    H128418   0.326   1.528  11.831  1.2581 -1.3654 -0.6119
 2309TIP3    H228419   0.417   1.649  11.829 -0.4133 -0.0808 -0.5561
 2310TIP3   OH228420   3.472   1.558   2.879 -0.4886 -0.0145 -0.0016
 2310TIP3    H128421   3.556   1.516   2.897 -1.1119 -2.1464 -1.8210
 2310TIP3    H228422   3.420   1.544   2.958 -0.4305 -2.1113 -0.3054
 2311TIP3   OH228423   1.373   5.353  17.033  0.1816 -0.2680 -0.8887
 2311TIP3    H128424   1.277   5.354  17.041  0.1597 -0.9931 -1.0480
 2311TIP3    H228425   1.391   5.287  16.967  0.8374 -0.8488 -0.1416
 2312TIP3   OH228426   0.821   5.772  16.762 -0.6996 -0.3233  0.2707
 2312TIP3    H128427   0.776   5.855  16.777 -0.4652 -0.1438 -0.0160
 2312TIP3    H228428   0.754   5.714  16.725  0.0301  0.8613 -3.0583
 2313TIP3   OH228429   1.198   1.318   5.606  0.1666  0.3030  0.3695
 2313TIP3    H128430   1.224   1.276   5.524 -2.1561  0.4133 -0.4423
 2313TIP3    H228431   1.104   1.306   5.611 -0.0416  2.2973  1.9061
 2314TIP3   OH228432   5.199   1.535   5.563  0.1820 -0.6825  0.1440
 2314TIP3    H128433   5.171   1.533   5.655  0.2323 -0.1875  0.1684
 2314TIP3    H228434   5.264   1.465   5.556  0.2220 -0.6797  0.4973
 2315TIP3   OH228435   4.258   0.574  14.237 -0.1829 -0.0631  0.1339
 2315TIP3    H128436   4.333   0.537  14.284 -1.5372  0.0814  2.4653
 2315TIP3    H228437   4.291   0.657  14.202  0.9273 -0.2976  0.5862
 2316TIP3   OH228438   4.246   1.485  12.959  0.1835  0.6735 -0.0172
 2316TIP3    H128439   4.274   1.472  12.869  1.2181 -0.1936  0.4198
 2316TIP3    H228440   4.307   1.432  13.011  0.7808  2.5991  1.3344
 2317TIP3   OH228441   1.799   5.202  14.033 -0.0509  0.8623  0.1457
 2317TIP3    H128442   1.811   5.177  14.125  0.3821  0.5367  0.0068
 2317TIP3    H228443   1.757   5.287  14.036  1.5510  1.6630  0.6752
 2318TIP3   OH228444   5.246   4.931   2.569  0.5608 -0.2900  0.0262
 2318TIP3    H128445   5.192   4.941   2.491  0.3171  4.5876  0.6579
 2318TIP3    H228446   5.185   4.937   2.642  1.4153  0.8836  0.6626
 2319TIP3   OH228447   0.834   5.753  15.860  0.0926  0.2328  0.3963
 2319TIP3    H128448   0.923   5.718  15.853  0.2532  0.6854  0.1263
 2319TIP3    H228449   0.785   5.686  15.907 -0.1704 -1.3548 -2.0570
 2320TIP3   OH228450   3.235   0.517   3.574  0.3019  0.0739  0.2402
 2320TIP3    H128451   3.152   0.541   3.615 -0.3051 -1.0560 -0.2924
 2320TIP3    H228452   3.220   0.428   3.541  1.7087 -0.1132  0.0902
 2321TIP3   OH228453   0.095   3.516   5.873  0.0562 -0.2336 -0.8026
 2321TIP3    H128454   0.020   3.481   5.824 -0.2598  0.6271 -0.9472
 2321TIP3    H228455   0.127   3.587   5.818 -0.3648  0.8029  0.2907
 2322TIP3   OH228456   5.768   1.956   0.490  0.0472 -0.3983  0.4362
 2322TIP3    H128457   5.842   1.956   0.551 -0.4174  0.1885  1.0168
 2322TIP3    H228458   5.698   2.000   0.538 -0.8965 -1.5588  0.1532
 2323TIP3   OH228459   3.059   5.045   3.599  0.1142 -0.2029 -0.2856
 2323TIP3    H128460   3.057   5.061   3.693 -0.2509 -0.8806 -0.1715
 2323TIP3    H228461   3.113   5.116   3.563  1.2612 -0.6377  0.5644
 2324TIP3   OH228462   4.913   5.508   3.359 -0.0365  0.0965 -0.3415
 2324TIP3    H128463   4.964   5.490   3.438  1.9603  1.2496 -1.3121
 2324TIP3    H228464   4.880   5.423   3.331  3.3664 -1.1097 -0.9785
 2325TIP3   OH228465   5.559   5.698   4.138  0.0114  0.0069 -0.3486
 2325TIP3    H128466   5.625   5.648   4.187 -0.4754 -0.1989  0.1059
 2325TIP3    H228467   5.479   5.689   4.190 -0.8508 -1.2951 -1.8576
 2326TIP3   OH228468   4.117   2.037   3.463  0.1066  0.1161  0.2095
 2326TIP3    H128469   4.051   1.968   3.451  0.6919 -0.7850  2.0728
 2326TIP3    H228470   4.137   2.035   3.556  0.5644  2.4386  0.1821
 2327TIP3   OH228471   3.848   6.145   0.611 -0.2988  0.4273  0.4468
 2327TIP3    H128472   3.787   6.111   0.676 -1.7192 -0.6888 -1.4309
 2327TIP3    H228473   3.806   6.225   0.579 -0.0105  0.5236  0.3137
 2328TIP3   OH228474   6.819   0.633  11.622 -0.1854  0.4548 -0.0586
 2328TIP3    H128475   6.877   0.566  11.585  0.3020  0.5363  0.5498
 2328TIP3    H228476   6.760   0.656  11.550 -1.3425 -1.7171  0.1494
 2329TIP3   OH228477   1.526   5.624  11.393 -0.0254  0.6121 -0.8753
 2329TIP3    H128478   1.563   5.640  11.307  3.3790  0.3716  0.4648
 2329TIP3    H228479   1.524   5.529  11.402 -0.9877  0.6198 -0.9122
 2330TIP3   OH228480   5.161   0.275  16.385 -0.0843 -0.1223  0.0790
 2330TIP3    H128481   5.155   0.358  16.433  0.5246  0.0617 -0.1670
 2330TIP3    H228482   5.088   0.278  16.323 -1.6248 -0.8894  1.8051
 2331TIP3   OH228483   2.400   0.047  14.316  0.1519 -0.7642 -0.1893
 2331TIP3    H128484   2.394   0.050  14.412 -1.7952 -0.3549 -0.2920
 2331TIP3    H228485   2.464  -0.021  14.298  1.5358  0.0667  1.4287
 2332TIP3   OH228486   2.876   3.854   3.236 -0.6933  0.1070 -0.2718
 2332TIP3    H128487   2.901   3.912   3.308 -1.7395  0.4325 -0.1632
 2332TIP3    H228488   2.899   3.903   3.157  1.9059 -0.8949 -0.1711
 2333TIP3   OH228489   0.183   1.574  14.043 -0.1656 -0.2991 -0.4821
 2333TIP3    H128490   0.254   1.535  13.992 -0.1337 -0.5370 -0.2570
 2333TIP3    H228491   0.152   1.647  13.989  0.8469  0.3731 -0.1541
 2334TIP3   OH228492   6.011   2.685  15.514 -0.1233 -0.3704  0.1409
 2334TIP3    H128493   6.011   2.613  15.578 -0.5642  0.7348  1.4058
 2334TIP3    H228494   6.104   2.700  15.496  0.0208 -0.4480  0.7969
 2335TIP3   OH228495   2.771   0.424   5.276 -0.6923 -0.0729  0.5888
 2335TIP3    H128496   2.736   0.510   5.254 -1.7684 -0.3722  1.0955
 2335TIP3    H228497   2.740   0.367   5.206  0.1957 -0.0221  0.1382
 2336TIP3   OH228498   4.408   5.515  10.998 -0.0675 -0.0439 -0.1967
 2336TIP3    H128499   4.337   5.496  10.938  0.2029  2.4243 -1.3646
 2336TIP3    H228500   4.467   5.571  10.948  2.7980 -2.1550  0.6900
 2337TIP3   OH228501   3.778   1.174   1.704  0.7114 -0.5402  0.4095
 2337TIP3    H128502   3.822   1.189   1.621  0.2501 -0.8661  0.1055
 2337TIP3    H228503   3.791   1.256   1.753  0.8739 -0.3027 -0.0280
 2338TIP3   OH228504   5.014   4.502   2.261  0.1200 -0.3598 -0.2836
 2338TIP3    H128505   4.995   4.552   2.341  1.6413 -2.4677  1.4374
 2338TIP3    H228506   4.997   4.565   2.190 -1.8711  1.3680  1.6123
 2339TIP3   OH228507   2.413   4.192  16.628  0.2312 -0.0369 -0.0711
 2339TIP3    H128508   2.473   4.118  16.615  1.4273  0.7307  0.9901
 2339TIP3    H228509   2.364   4.169  16.707  1.6663  0.9750  1.1366
 2340TIP3   OH228510   1.333   3.848  15.371  0.3900 -0.2330 -0.2385
 2340TIP3    H128511   1.335   3.791  15.447 -0.2728 -0.3697 -0.3124
 2340TIP3    H228512   1.365   3.794  15.299 -1.1140 -0.8255 -0.4953
 2341TIP3   OH228513   4.335   0.819   2.247 -0.2633  0.1851  0.8324
 2341TIP3    H128514   4.295   0.740   2.209  0.9252  0.4193 -0.9898
 2341TIP3    H228515   4.390   0.786   2.318 -0.2024 -0.5948  0.4398
 2342TIP3   OH228516   3.709   2.756   4.130 -0.1450  0.4466 -0.1082
 2342TIP3    H128517   3.688   2.662   4.128  0.9988  0.1982 -0.7579
 2342TIP3    H228518   3.801   2.759   4.154 -0.5756  1.4783  1.4363
 2343TIP3   OH228519   1.028   6.326   0.818 -0.2271  0.3137 -0.3327
 2343TIP3    H128520   1.084   6.249   0.806  1.2043  1.4734 -1.3426
 2343TIP3    H228521   0.999   6.322   0.909  2.1482  0.0896  0.4407
 2344TIP3   OH228522   1.698   2.618   1.896 -0.2223 -0.4857  0.4887
 2344TIP3    H128523   1.786   2.652   1.909  0.0588 -1.4636  1.1418
 2344TIP3    H228524   1.702   2.527   1.926 -1.4945 -0.4742  0.7271
 2345TIP3   OH228525   0.515   5.303  12.880  0.3768  0.7463 -0.6319
 2345TIP3    H128526   0.432   5.267  12.851  0.0415 -0.7602  2.0421
 2345TIP3    H228527   0.516   5.289  12.975  1.5897  5.0267  0.1114
 2346TIP3   OH228528   0.747   3.640   4.522  0.1396 -0.4153  0.2175
 2346TIP3    H128529   0.766   3.554   4.559  0.8811  0.6710  2.4184
 2346TIP3    H228530   0.653   3.651   4.536  0.5589  0.3414  2.6087
 2347TIP3   OH228531   3.935   6.814   1.109  0.3408  0.2929  0.3481
 2347TIP3    H128532   3.962   6.734   1.155  1.1775  0.3582 -0.0258
 2347TIP3    H228533   3.840   6.805   1.100  0.2218  0.0654  1.6836
 2348TIP3   OH228534   1.641   1.784  13.586 -0.3444 -0.4398 -0.3100
 2348TIP3    H128535   1.615   1.693  13.581 -1.8244 -0.1177  1.1327
 2348TIP3    H228536   1.702   1.788  13.659 -2.0365  0.0924  1.1157
 2349TIP3   OH228537   1.304   3.021   4.330  0.0631  0.4326  0.3848
 2349TIP3    H128538   1.329   3.087   4.394 -0.1579  0.9684 -0.0773
 2349TIP3    H228539   1.250   2.959   4.379  1.7043 -0.3553  1.2246
 2350TIP3   OH228540   0.640   6.611   4.623 -0.3094 -0.4433 -0.2952
 2350TIP3    H128541   0.583   6.648   4.691 -0.3130 -1.1043  0.0688
 2350TIP3    H228542   0.605   6.523   4.609  0.5469 -0.8107 -0.1531
 2351TIP3   OH228543   2.076   3.484   3.229 -0.1721 -0.4173  0.5396
 2351TIP3    H128544   2.164   3.447   3.231 -0.5160 -1.2064  2.5497
 2351TIP3    H228545   2.078   3.548   3.158  2.6905  1.1759  1.9481
 2352TIP3   OH228546   6.775   5.666  13.187  0.1788  0.3778  0.6076
 2352TIP3    H128547   6.773   5.595  13.123 -0.9357  2.2470 -1.5354
 2352TIP3    H228548   6.823   5.736  13.142  2.0068  0.6952  2.9936
 2353TIP3   OH228549   4.522   4.806  14.516 -0.1054 -0.0203  0.5505
 2353TIP3    H128550   4.587   4.763  14.461 -1.6600 -0.7048 -0.8128
 2353TIP3    H228551   4.568   4.880  14.555  1.5000 -0.5614 -0.2850
 2354TIP3   OH228552   3.348   2.439  15.120 -0.3388  0.4402  0.5864
 2354TIP3    H128553   3.358   2.458  15.213  0.2521  0.0702  0.6022
 2354TIP3    H228554   3.371   2.521  15.076 -4.4116  1.8711  0.8793
 2355TIP3   OH228555   6.025   1.445   2.654 -0.4241 -0.0658 -0.3989
 2355TIP3    H128556   6.117   1.426   2.672 -0.2335 -0.1635 -1.4637
 2355TIP3    H228557   5.983   1.445   2.740  0.4217 -0.8169  0.0164
 2356TIP3   OH228558   1.490   0.787   1.455 -0.0832  0.0935 -0.5191
 2356TIP3    H128559   1.420   0.853   1.454  1.5148  1.9015  1.6535
 2356TIP3    H228560   1.570   0.837   1.438  1.1549 -1.2281  1.2141
 2357TIP3   OH228561   0.227   3.462  12.457 -0.2069 -0.7363 -0.6036
 2357TIP3    H128562   0.168   3.537  12.456 -0.3008 -0.7350  1.7885
 2357TIP3    H228563   0.298   3.488  12.516  0.3178 -2.1148 -0.6037
 2358TIP3   OH228564   4.835   1.822  13.493  0.1851 -0.6119  0.0212
 2358TIP3    H128565   4.872   1.763  13.427 -2.2444 -0.3003 -1.6808
 2358TIP3    H228566   4.863   1.909  13.466 -0.2369 -0.5505 -0.2283
 2359TIP3   OH228567   0.808   4.812   5.903  0.4274 -0.0194 -0.6525
 2359TIP3    H128568   0.876   4.757   5.941  1.5009  1.7109 -0.0375
 2359TIP3    H228569   0.841   4.901   5.911 -0.8977  0.6702 -2.4334
 2360TIP3   OH228570   4.593   3.053  14.902  0.4483  0.1172  0.4615
 2360TIP3    H128571   4.540   3.010  14.835 -0.5429  2.2310 -0.1683
 2360TIP3    H228572   4.593   3.146  14.876  1.7994  0.6347  2.2314
 2361TIP3   OH228573   4.144   2.813   5.072 -0.1751  0.0800 -1.0858
 2361TIP3    H128574   4.146   2.866   5.152 -0.4175  0.6805 -1.4791
 2361TIP3    H228575   4.222   2.839   5.024 -0.8798  0.9125 -1.8093
 2362TIP3   OH228576   4.728   2.728  17.202  0.3494 -0.0909  0.1983
 2362TIP3    H128577   4.721   2.710  17.296  0.8542  1.1012  0.4731
 2362TIP3    H228578   4.768   2.649  17.165 -0.0779 -0.6663  0.9366
 2363TIP3   OH228579   5.545   6.201   6.078  0.5263  0.0060  0.1644
 2363TIP3    H128580   5.637   6.197   6.106  0.5916  0.3869  0.0024
 2363TIP3    H228581   5.504   6.128   6.124  0.8749 -0.0668  0.3693
 2364TIP3   OH228582   2.549   0.884  16.563 -0.3891  0.6735 -0.0530
 2364TIP3    H128583   2.532   0.818  16.496  1.1631  0.3731 -0.1742
 2364TIP3    H228584   2.511   0.964  16.528  0.4669  0.5317 -1.3551
 2365TIP3   OH228585   5.356   0.161  14.742 -0.0840 -0.5478  0.2333
 2365TIP3    H128586   5.332   0.088  14.799 -2.1307  1.1877  1.6609
 2365TIP3    H228587   5.389   0.228  14.802  1.6947 -0.2321 -1.0524
 2366TIP3   OH228588   0.807   0.605  11.472  0.4606 -0.1049  0.2623
 2366TIP3    H128589   0.875   0.589  11.406  0.5766  0.8219  0.1533
 2366TIP3    H228590   0.787   0.698  11.463  0.7264  0.0965  1.7823
 2367TIP3   OH228591   4.373   1.677   4.386  0.1169 -0.1917  0.2647
 2367TIP3    H128592   4.356   1.679   4.480  0.5775 -1.0408  0.3712
 2367TIP3    H228593   4.425   1.597   4.372  0.5252  0.2141 -0.6258
 2368TIP3   OH228594   6.699   2.012   4.694  0.2836  0.3254  0.3333
 2368TIP3    H128595   6.614   2.055   4.702  1.3576  2.2632  1.7839
 2368TIP3    H228596   6.720   1.985   4.784  0.0015 -2.6000 -0.4176
 2369TIP3   OH228597   5.365   4.102  13.631  0.2965 -0.1139  0.4491
 2369TIP3    H128598   5.381   4.153  13.710 -0.3023 -0.4686  0.7987
 2369TIP3    H228599   5.446   4.111  13.580 -0.5503  2.8502 -0.4401
 2370TIP3   OH228600   0.259   1.257  12.298  0.5157  0.1559 -0.0499
 2370TIP3    H128601   0.271   1.270  12.392  0.9924  1.4039 -0.2653
 2370TIP3    H228602   0.210   1.176  12.290  1.6791 -0.6929  1.2219
 2371TIP3   OH228603   5.276   0.785   0.468 -0.4716 -0.2833 -0.1192
 2371TIP3    H128604   5.197   0.731   0.481 -0.4711 -0.1155  0.6053
 2371TIP3    H228605   5.316   0.750   0.389 -2.9293  1.6506 -2.2930
 2372TIP3   OH228606   2.273   2.020   6.296  0.4651  0.0370  0.6808
 2372TIP3    H128607   2.307   1.930   6.296 -0.2619 -0.2370  1.0132
 2372TIP3    H228608   2.275   2.047   6.388  2.6467  1.1154  0.3529
 2373TIP3   OH228609   2.818   5.756   4.427 -0.7152 -0.2337 -0.3701
 2373TIP3    H128610   2.778   5.763   4.514 -0.8081 -1.5714 -0.2932
 2373TIP3    H228611   2.744   5.763   4.367 -0.7334  0.0315 -0.3172
 2374TIP3   OH228612   5.802   2.124   5.896  0.4912  0.1416  0.4148
 2374TIP3    H128613   5.858   2.104   5.971 -1.9786 -0.9438  2.0316
 2374TIP3    H228614   5.755   2.203   5.922 -0.9672 -0.6949  0.3725
 2375TIP3   OH228615   3.631   2.661  15.439  0.3635  0.4496  0.0357
 2375TIP3    H128616   3.536   2.671  15.433  0.2948  0.1739  0.5861
 2375TIP3    H228617   3.667   2.740  15.397 -0.1306  1.5578  1.6441
 2376TIP3   OH228618   0.772   1.994   3.149  0.5524  0.6108 -0.6017
 2376TIP3    H128619   0.772   1.898   3.150  1.7263  0.6059  0.5705
 2376TIP3    H228620   0.864   2.018   3.163 -0.1687  1.9116  2.1929
 2377TIP3   OH228621   6.393   1.368   1.268  0.1391  0.1287 -0.0670
 2377TIP3    H128622   6.365   1.416   1.346 -1.5505 -0.5863 -0.1965
 2377TIP3    H228623   6.487   1.381   1.264 -0.0974  2.3223  0.6473
 2378TIP3   OH228624   1.528   3.339  12.633  0.1046  0.1327  0.1100
 2378TIP3    H128625   1.518   3.277  12.705 -1.4328  1.3608  0.9958
 2378TIP3    H228626   1.498   3.292  12.555  1.2337 -1.0128  0.3579
 2379TIP3   OH228627   0.031   0.844   0.032  0.0617 -0.0608  0.0283
 2379TIP3    H128628   0.051   0.760  -0.009  0.8781  1.0607 -1.9078
 2379TIP3    H228629   0.071   0.910  -0.025 -2.1602  1.7767  0.4794
 2380TIP3   OH228630   6.561   4.488   2.187  0.4807  0.3541  0.6436
 2380TIP3    H128631   6.561   4.426   2.114  1.0202  0.1818  0.7875
 2380TIP3    H228632   6.469   4.493   2.215 -0.2436  2.5452 -1.8415
 2381TIP3   OH228633   0.116   5.387   0.194  0.7022 -0.3337 -0.3615
 2381TIP3    H128634   0.040   5.340   0.157  1.4889 -0.8132 -1.3995
 2381TIP3    H228635   0.122   5.467   0.143  0.2815  0.1953  0.4069
 2382TIP3   OH228636   2.909   5.898  15.184  0.2180  0.2521  0.1949
 2382TIP3    H128637   2.908   5.989  15.214  0.4092  0.3431 -0.0746
 2382TIP3    H228638   3.001   5.876  15.179  0.1889  0.2937 -0.5064
 2383TIP3   OH228639   5.302   3.401  13.449 -0.0983 -0.0892 -0.3664
 2383TIP3    H128640   5.252   3.483  13.448 -1.1231 -0.7100 -0.3243
 2383TIP3    H228641   5.386   3.425  13.488  0.1706  1.2646 -1.7147
 2384TIP3   OH228642   2.909   5.176  16.694 -0.3295  0.1262 -0.0068
 2384TIP3    H128643   2.984   5.195  16.751  0.0746 -0.3040 -0.3997
 2384TIP3    H228644   2.916   5.240  16.623  1.0175 -1.4309 -1.3143
 2385TIP3   OH228645   2.423   4.046  13.799  0.3678 -0.0851 -0.2246
 2385TIP3    H128646   2.500   3.990  13.816  0.4417 -0.1181 -0.6764
 2385TIP3    H228647   2.415   4.048  13.704  2.2198  3.1755 -0.3643
 2386TIP3   OH228648   1.690   6.437  15.193  0.2956  0.1840 -0.0747
 2386TIP3    H128649   1.685   6.423  15.287  0.4245  0.8866  0.0382
 2386TIP3    H228650   1.610   6.395  15.159 -0.2206  0.7278  0.4420
 2387TIP3   OH228651   2.018   0.209   4.498  0.1106 -0.4417  0.2121
 2387TIP3    H128652   2.019   0.154   4.576  1.2449  0.8893  1.1582
 2387TIP3    H228653   2.107   0.200   4.461  1.2384  2.8723  1.9308
 2388TIP3   OH228654   4.369   5.917  16.589  0.6951 -0.4350 -0.3731
 2388TIP3    H128655   4.364   5.863  16.510 -0.5126 -0.0639 -0.5709
 2388TIP3    H228656   4.282   5.957  16.596 -0.0466 -2.4226  2.5766
 2389TIP3   OH228657   0.472   4.220  11.919  0.0661  0.0074 -0.3933
 2389TIP3    H128658   0.556   4.266  11.926  1.1814 -1.7411 -1.9665
 2389TIP3    H228659   0.474   4.178  11.834 -2.7624  0.5347 -0.7761
 2390TIP3   OH228660   1.988   2.222   4.781 -0.1754 -0.6776 -0.1657
 2390TIP3    H128661   1.896   2.246   4.769 -0.3895 -1.7982 -0.7568
 2390TIP3    H228662   1.993   2.193   4.872 -0.4725 -0.9495 -0.2361
 2391TIP3   OH228663   1.315   4.002   4.867 -0.0351 -0.1667  0.4563
 2391TIP3    H128664   1.325   3.915   4.827 -2.0849 -1.7105  3.1340
 2391TIP3    H228665   1.380   4.003   4.937  2.2310  1.7969 -1.5749
 2392TIP3   OH228666   0.525   6.049  16.484 -0.4973 -0.1341 -0.2806
 2392TIP3    H128667   0.553   6.013  16.568 -1.8533 -0.2777  0.1122
 2392TIP3    H228668   0.451   6.106  16.505 -0.2467  0.5728 -1.2610
 2393TIP3   OH228669   6.564   6.002  16.170 -0.2907 -0.6925  0.0459
 2393TIP3    H128670   6.590   5.918  16.131 -0.6197 -0.9102  0.2916
 2393TIP3    H228671   6.517   6.047  16.100  2.4316  0.5505 -1.0562
 2394TIP3   OH228672   5.311   6.060   1.443 -0.3303 -0.2759  0.2128
 2394TIP3    H128673   5.250   6.090   1.376 -1.7243  0.4298  1.7609
 2394TIP3    H228674   5.298   5.965   1.447 -1.5692 -0.0861  0.7667
 2395TIP3   OH228675   5.533   4.430   3.034  0.6073  0.1008  0.0515
 2395TIP3    H128676   5.457   4.487   3.043 -0.5349 -1.6181  1.6387
 2395TIP3    H228677   5.586   4.470   2.965 -1.3328  1.7543 -0.4985
 2396TIP3   OH228678   3.889   4.725   0.109 -0.4778 -0.3725  0.5000
 2396TIP3    H128679   3.950   4.652   0.115  0.8340  0.7061  0.6357
 2396TIP3    H228680   3.871   4.748   0.200  1.0059  0.9869  0.4795
 2397TIP3   OH228681   0.745   2.638  16.633 -0.2138  0.8323  0.3316
 2397TIP3    H128682   0.671   2.583  16.659 -0.8980  0.4981 -2.2087
 2397TIP3    H228683   0.760   2.617  16.541  0.5244  3.7442 -0.2687
 2398TIP3   OH228684   4.838   4.572   0.245 -0.5968 -0.0960 -0.2266
 2398TIP3    H128685   4.841   4.483   0.279 -0.0624 -0.1205 -0.3330
 2398TIP3    H228686   4.746   4.598   0.253 -1.0911 -1.2864 -1.8527
 2399TIP3   OH228687   5.258   0.754   0.967 -0.0703  0.1148  0.0122
 2399TIP3    H128688   5.269   0.820   0.898  0.1877 -0.6728 -0.7012
 2399TIP3    H228689   5.177   0.708   0.945 -0.6586  0.6873  0.9336
 2400TIP3   OH228690   6.766   1.767  14.183  0.1739  0.4856  0.1325
 2400TIP3    H128691   6.792   1.858  14.198 -0.1442  0.8211 -1.3034
 2400TIP3    H228692   6.801   1.746  14.096 -0.6361 -0.4334  0.0206
 2401TIP3   OH228693   5.601   4.735  13.926  0.3625  0.1104 -0.4665
 2401TIP3    H128694   5.566   4.747  14.015 -0.0374 -0.4791 -0.5413
 2401TIP3    H228695   5.530   4.692  13.879  1.7855 -2.5812 -0.1976
 2402TIP3   OH228696   1.391   3.675  15.883 -0.0774 -0.6130 -0.0108
 2402TIP3    H128697   1.450   3.619  15.932 -0.1034 -1.1374 -0.5737
 2402TIP3    H228698   1.314   3.621  15.866  0.2241 -0.6764 -1.2383
 2403TIP3   OH228699   5.387   1.313   3.068  0.3579 -0.2748  0.6624
 2403TIP3    H128700   5.313   1.304   3.128 -0.0935 -0.2264  0.1185
 2403TIP3    H228701   5.360   1.382   3.007  0.7062 -0.5128  0.2385
 2404TIP3   OH228702   4.362   5.375  16.342  0.2421 -0.1504  0.3733
 2404TIP3    H128703   4.334   5.428  16.267 -0.7040 -0.9332  0.1496
 2404TIP3    H228704   4.438   5.420  16.378  0.7723  0.1751 -1.1383
 2405TIP3   OH228705   4.615   0.340  10.450 -0.3267  0.0685 -0.6122
 2405TIP3    H128706   4.629   0.247  10.466 -0.6166 -0.0242 -0.8782
 2405TIP3    H228707   4.595   0.377  10.536  2.3730  0.3700 -0.0815
 2406TIP3   OH228708   6.415   4.143   0.290 -0.7450  0.2537  0.2100
 2406TIP3    H128709   6.484   4.205   0.269 -0.8690  1.0985  2.2083
 2406TIP3    H228710   6.459   4.074   0.340 -0.7434 -0.9136 -1.3698
 2407TIP3   OH228711   4.445   6.344  12.268  0.6095  0.1426  0.5622
 2407TIP3    H128712   4.363   6.343  12.316  0.6957  2.8778  0.8427
 2407TIP3    H228713   4.513   6.344  12.336  0.7642  1.8035  0.4201
 2408TIP3   OH228714   5.504   5.261  12.073 -0.1262 -0.1000 -0.4091
 2408TIP3    H128715   5.545   5.221  12.150  0.5643  0.1718 -0.6301
 2408TIP3    H228716   5.507   5.193  12.006  0.7197  0.1782 -0.6728
 2409TIP3   OH228717   1.882   0.057  12.528 -0.0405  0.5051  0.0719
 2409TIP3    H128718   1.831   0.088  12.453 -2.3120 -0.4416  1.1881
 2409TIP3    H228719   1.910  -0.031  12.504 -0.2950  0.4118  0.1227
 2410TIP3   OH228720   5.525   0.534   6.084 -0.0114 -0.2926 -0.2659
 2410TIP3    H128721   5.520   0.518   6.178  0.1925 -1.7353 -0.5002
 2410TIP3    H228722   5.607   0.582   6.072 -1.2582  2.1700  0.5852
 2411TIP3   OH228723   1.441   1.360   0.314  0.3052 -0.1285 -0.4581
 2411TIP3    H128724   1.411   1.442   0.276 -0.7590 -0.1426  0.3152
 2411TIP3    H228725   1.438   1.297   0.242 -0.3101  0.1770 -0.7041
 2412TIP3   OH228726   1.178   1.473   1.791 -0.2301 -0.3859 -0.3258
 2412TIP3    H128727   1.259   1.435   1.824 -0.3002 -0.7283 -0.5538
 2412TIP3    H228728   1.202   1.563   1.766 -0.4410  0.2749  1.7638
 2413TIP3   OH228729   1.060   2.843  16.968 -0.3208 -0.4399  0.3449
 2413TIP3    H128730   1.096   2.756  16.952  0.0301 -0.4590  1.2458
 2413TIP3    H228731   1.128   2.888  17.018 -1.6698 -0.5678  2.3081
 2414TIP3   OH228732   0.811   6.516   1.900  0.5553  0.1638 -0.7093
 2414TIP3    H128733   0.783   6.576   1.969 -0.2459  1.0658 -1.8060
 2414TIP3    H228734   0.905   6.532   1.890  0.5157  0.6014 -0.3787
 2415TIP3   OH228735   2.460   3.844  12.323 -0.0759  0.5655 -0.0789
 2415TIP3    H128736   2.415   3.776  12.273  0.4023  0.7762 -0.7951
 2415TIP3    H228737   2.551   3.814  12.329 -0.3463 -0.0022  1.6107
 2416TIP3   OH228738   2.761   0.673   3.946  0.2169  0.3858  0.2773
 2416TIP3    H128739   2.793   0.709   4.029  2.0369 -1.0199  0.2093
 2416TIP3    H228740   2.776   0.744   3.883  1.8076  0.3334  0.5592
 2417TIP3   OH228741   4.775   4.256  16.770  0.2965  0.1918  0.1691
 2417TIP3    H128742   4.726   4.184  16.730  0.2264  0.7929 -0.8506
 2417TIP3    H228743   4.736   4.267  16.856 -0.6072 -0.0851 -0.2011
 2418TIP3   OH228744   1.039   6.796  15.588  0.2684  0.2626 -0.1501
 2418TIP3    H128745   1.100   6.743  15.538  0.7553 -0.0335  0.7407
 2418TIP3    H228746   1.095   6.854  15.640 -0.2111  0.3525  0.2734
 2419TIP3   OH228747   1.231   4.683  13.356 -0.5535  0.1182  0.5389
 2419TIP3    H128748   1.239   4.759  13.299  2.4330  0.4079  1.2630
 2419TIP3    H228749   1.262   4.714  13.442  2.9868 -2.4677  0.2868
 2420TIP3   OH228750   5.023   4.821   3.835 -0.0146  0.1552 -0.3656
 2420TIP3    H128751   4.993   4.804   3.746  0.3535  0.1275 -0.4870
 2420TIP3    H228752   5.118   4.832   3.827  0.2143 -1.2932  0.2236
 2421TIP3   OH228753   6.436   2.090  13.418 -0.2653  0.3663 -0.5400
 2421TIP3    H128754   6.460   2.003  13.450 -2.1152  0.9603  2.7360
 2421TIP3    H228755   6.493   2.105  13.342  3.5594 -1.7246  1.7536
 2422TIP3   OH228756   3.719   0.107   4.877  0.2109 -0.1977  0.3737
 2422TIP3    H128757   3.647   0.059   4.837  0.1133 -0.4767  0.8697
 2422TIP3    H228758   3.757   0.045   4.940  0.5313  0.1325  0.5105
 2423TIP3   OH228759   3.566   5.652  14.127 -0.0288  0.1640 -0.5837
 2423TIP3    H128760   3.657   5.679  14.125 -0.6344  2.3687  0.3673
 2423TIP3    H228761   3.519   5.722  14.081 -1.5217  0.2962  1.0745
 2424TIP3   OH228762   3.455   3.375  11.178 -0.1033 -0.3115  0.2806
 2424TIP3    H128763   3.385   3.385  11.113  1.3735 -1.1438 -1.4934
 2424TIP3    H228764   3.431   3.297  11.228 -0.7618 -0.2239  0.1072
 2425TIP3   OH228765   1.142   5.223   5.175 -0.2159 -0.6177 -0.3931
 2425TIP3    H128766   1.222   5.203   5.128 -1.4129 -1.3077 -2.1811
 2425TIP3    H228767   1.138   5.157   5.245  2.3893  1.4002  1.7735
 2426TIP3   OH228768   3.639   5.935  11.311  0.1097 -0.9718  0.6598
 2426TIP3    H128769   3.561   5.990  11.303  1.2824  0.6595  0.2072
 2426TIP3    H228770   3.692   5.978  11.378  0.4951 -2.2538  1.2025
 2427TIP3   OH228771   3.782   2.115  15.204  0.1613 -0.3616  0.1334
 2427TIP3    H128772   3.704   2.153  15.164 -0.5401 -0.5015  1.3704
 2427TIP3    H228773   3.855   2.163  15.162 -0.5920  0.2010 -0.5629
 2428TIP3   OH228774   6.787   6.808  15.501 -0.2179  0.0595 -0.1561
 2428TIP3    H128775   6.766   6.893  15.462 -1.2579  0.7187  1.7493
 2428TIP3    H228776   6.703   6.763  15.506 -0.1032 -0.0264  1.2330
 2429TIP3   OH228777   6.294   4.306   1.597  0.1716 -0.3470 -0.7108
 2429TIP3    H128778   6.314   4.363   1.672  0.1678  0.2203 -1.1423
 2429TIP3    H228779   6.333   4.350   1.522 -0.5215 -0.5111 -1.1713
 2430TIP3   OH228780   3.222   0.345   1.194  0.1926 -0.2415  0.0957
 2430TIP3    H128781   3.269   0.412   1.243  0.1328 -1.1689  1.4335
 2430TIP3    H228782   3.175   0.295   1.260  0.0883 -1.5030 -0.9130
 2431TIP3   OH228783   3.973   5.293  13.711  0.0318  0.0704  0.5197
 2431TIP3    H128784   3.905   5.337  13.762 -0.4786 -2.4653  2.1163
 2431TIP3    H228785   3.937   5.206  13.693  1.2806  0.0009 -1.9826
 2432TIP3   OH228786   0.596   4.759   4.246 -0.0532  0.1416  0.1315
 2432TIP3    H128787   0.648   4.817   4.191  2.3213  0.4792  2.5755
 2432TIP3    H228788   0.530   4.816   4.286 -0.7420  0.2136 -1.1135
 2433TIP3   OH228789   6.643   5.468  15.751  0.9411  0.4307  0.5852
 2433TIP3    H128790   6.619   5.558  15.728 -0.7463  0.2049  1.3073
 2433TIP3    H228791   6.664   5.426  15.668 -0.1331  0.9951  0.0121
 2434TIP3   OH228792   4.687   0.256   2.979  0.6506 -0.3909  0.3632
 2434TIP3    H128793   4.622   0.290   3.039 -0.0045  1.2051 -1.2001
 2434TIP3    H228794   4.749   0.328   2.967 -0.0989 -0.0983 -2.0557
 2435TIP3   OH228795   1.499   4.422  17.125  0.0603  0.2829 -1.0048
 2435TIP3    H128796   1.535   4.453  17.043  0.9323 -0.7652 -1.0326
 2435TIP3    H228797   1.489   4.500  17.179  1.1938  0.7394 -1.4556
 2436TIP3   OH228798   3.103   0.307  17.023  0.3256  0.8077  0.9866
 2436TIP3    H128799   3.053   0.387  17.008  1.1881  1.2614  0.4666
 2436TIP3    H228800   3.190   0.338  17.051  1.4280  0.1301 -1.5370
 2437TIP3   OH228801   0.149   4.512  12.941 -0.1029 -0.4624 -0.0616
 2437TIP3    H128802   0.205   4.590  12.937  0.4852 -0.8965 -0.3249
 2437TIP3    H228803   0.189   4.450  12.880 -0.4782 -1.0378  0.2705
 2438TIP3   OH228804   6.251   0.883   0.752  0.2281 -0.2762  0.1834
 2438TIP3    H128805   6.159   0.896   0.731  1.0196  2.0897 -2.2795
 2438TIP3    H228806   6.262   0.922   0.838 -0.8229  0.7441 -0.1236
 2439TIP3   OH228807   2.047   4.053   6.030 -0.2968 -0.1121  0.0313
 2439TIP3    H128808   2.099   3.981   6.066 -1.9434 -1.0034  0.7025
 2439TIP3    H228809   2.040   4.116   6.102 -1.9917 -1.0230  0.6966
 2440TIP3   OH228810   4.332   3.646   2.506 -0.6495 -0.3630  0.1213
 2440TIP3    H128811   4.302   3.696   2.581  0.0670 -1.9786  1.5181
 2440TIP3    H228812   4.332   3.555   2.536  3.0987 -0.6870 -0.6312
 2441TIP3   OH228813   3.240   6.261   1.333 -0.7718 -0.0595 -0.1782
 2441TIP3    H128814   3.258   6.217   1.250 -0.0234 -2.0223  0.9963
 2441TIP3    H228815   3.324   6.263   1.378 -1.5571 -0.8484  1.3767
 2442TIP3   OH228816   3.904   0.931  11.611 -0.0657 -0.1565 -0.6332
 2442TIP3    H128817   3.912   0.864  11.679  0.7900 -2.4416 -2.8807
 2442TIP3    H228818   3.987   0.978  11.615  0.8260 -1.6113 -1.3973
 2443TIP3   OH228819   6.441   3.043  10.569  0.6357 -0.5651 -0.0426
 2443TIP3    H128820   6.437   3.028  10.474  0.0320  0.0187 -0.1069
 2443TIP3    H228821   6.489   2.967  10.603  0.6291 -0.9012 -0.7843
 2444TIP3   OH228822   4.473   0.663   0.358  0.0959  0.4098  0.2136
 2444TIP3    H128823   4.532   0.732   0.330  0.3924 -0.2766 -0.8905
 2444TIP3    H228824   4.385   0.697   0.339  0.2423  0.4667 -0.3684
 2445TIP3   OH228825   0.230   2.847  15.261  0.5222  0.4734 -0.2879
 2445TIP3    H128826   0.233   2.751  15.271 -0.4764  0.3724 -0.9258
 2445TIP3    H228827   0.305   2.867  15.206 -0.0549 -0.0968 -1.2960
 2446TIP3   OH228828   1.350   5.989   2.366  0.3509 -0.0766  0.3641
 2446TIP3    H128829   1.258   5.998   2.339  0.4219  1.1124  0.4820
 2446TIP3    H228830   1.353   6.029   2.453  1.3551  1.6125 -0.4223
 2447TIP3   OH228831   1.204   5.406  11.613 -0.1888  0.0138  0.1461
 2447TIP3    H128832   1.171   5.470  11.551  0.0631  0.9997  1.0140
 2447TIP3    H228833   1.198   5.322  11.567  1.2995  0.8850 -1.7219
 2448TIP3   OH228834   3.795   0.970   0.243 -0.0675  0.5823 -0.4835
 2448TIP3    H128835   3.792   1.062   0.271 -2.1004  0.8267 -1.4153
 2448TIP3    H228836   3.871   0.965   0.186  0.8434  1.3726  0.6388
 2449TIP3   OH228837   6.567   2.543  14.877 -0.3534 -0.0896  0.5709
 2449TIP3    H128838   6.532   2.593  14.952 -0.4021 -0.0431  0.5171
 2449TIP3    H228839   6.528   2.586  14.800  1.1596  1.0497  0.4184
 2450TIP3   OH228840   3.839   2.442   4.907 -0.2367  0.0676 -0.3378
 2450TIP3    H128841   3.865   2.513   4.848 -1.0525  1.3114  0.7456
 2450TIP3    H228842   3.787   2.486   4.974  2.8023 -0.8985  2.7692
 2451TIP3   OH228843   0.782   5.297   5.247 -0.6597  0.0694  0.6163
 2451TIP3    H128844   0.823   5.351   5.314  0.8480 -0.6113  0.2803
 2451TIP3    H228845   0.753   5.219   5.293 -1.3515  0.4392  0.8099
 2452TIP3   OH228846   0.590   4.140   2.792  0.2340  0.3536 -0.2853
 2452TIP3    H128847   0.494   4.147   2.788  0.0590  0.3667  2.8110
 2452TIP3    H228848   0.609   4.115   2.882  3.2830  2.5471 -0.2275
 2453TIP3   OH228849   3.639   3.016   6.112 -0.4081  0.2427  0.1256
 2453TIP3    H128850   3.674   3.045   6.196 -0.6711  1.4772 -0.1816
 2453TIP3    H228851   3.716   3.002   6.057 -0.2902  0.5237  0.2223
 2454TIP3   OH228852   5.870   3.223   3.544 -0.0325 -0.3443  0.2720
 2454TIP3    H128853   5.805   3.268   3.598  0.7273  1.5567 -0.3511
 2454TIP3    H228854   5.954   3.254   3.577  0.4522  0.9255 -2.0184
 2455TIP3   OH228855   0.771   5.452  13.663 -0.3781 -0.8738  0.4254
 2455TIP3    H128856   0.814   5.427  13.745  0.2080  1.9234  1.0130
 2455TIP3    H228857   0.793   5.382  13.602  2.6567 -0.9421  1.5168
 2456TIP3   OH228858   3.450   1.918   4.416  0.7260  0.2324 -0.2225
 2456TIP3    H128859   3.408   1.857   4.476 -1.6158  0.6810 -1.3347
 2456TIP3    H228860   3.541   1.922   4.445  0.2255 -1.4932  1.6907
 2457TIP3   OH228861   5.305   0.484   5.348  0.2573 -0.4704  0.2107
 2457TIP3    H128862   5.217   0.451   5.366  0.5330 -1.0168  0.5968
 2457TIP3    H228863   5.346   0.490   5.435 -0.0099  1.5580  0.2313
 2458TIP3   OH228864   4.352   5.071  14.859  0.1401  0.2921 -0.6849
 2458TIP3    H128865   4.444   5.045  14.870  0.1750  0.5726 -0.3101
 2458TIP3    H228866   4.319   5.083  14.948 -0.3425 -0.0854 -0.8140
 2459TIP3   OH228867   4.968   2.033   3.890  0.0088  0.2682  0.4529
 2459TIP3    H128868   4.984   2.069   3.977 -0.0359  0.4524  0.3840
 2459TIP3    H228869   4.919   2.101   3.844 -0.5890 -0.1109  0.5155
 2460TIP3   OH228870   2.202   0.343   5.187  0.4761  0.2173  0.5701
 2460TIP3    H128871   2.205   0.263   5.134  1.9159  0.9367 -0.4633
 2460TIP3    H228872   2.280   0.337   5.243  1.0322  1.2877 -0.0881
 2461TIP3   OH228873   1.858   0.451  12.070 -0.1513  0.1764 -0.3212
 2461TIP3    H128874   1.894   0.394  12.138  1.1992  1.4771  0.0802
 2461TIP3    H228875   1.810   0.392  12.012 -0.4418 -1.0835  1.1827
 2462TIP3   OH228876   3.481   2.748   6.076 -0.2816 -0.5891  0.1779
 2462TIP3    H128877   3.488   2.820   6.139 -2.4403 -0.8701  0.7685
 2462TIP3    H228878   3.534   2.678   6.113  2.3730  0.8577 -0.7084
 2463TIP3   OH228879   6.438   2.470  15.489  0.2778  0.1115  0.0539
 2463TIP3    H128880   6.416   2.421  15.569 -2.2147  1.5028  0.2753
 2463TIP3    H228881   6.475   2.552  15.521  1.4868 -0.2965 -0.2739
 2464TIP3   OH228882   1.187   3.412  12.709  0.3108  0.5553  0.1157
 2464TIP3    H128883   1.101   3.403  12.670  0.5589  0.4456 -0.4142
 2464TIP3    H228884   1.248   3.404  12.636  0.8206 -0.6645  0.6476
 2465TIP3   OH228885   2.257   3.334  16.491  0.0631 -0.0558 -0.1920
 2465TIP3    H128886   2.282   3.397  16.423 -2.0662  0.7352 -0.2991
 2465TIP3    H228887   2.210   3.265  16.444  1.2979 -1.0951  0.0918
 2466TIP3   OH228888   1.646   6.804   4.737  0.3754 -0.1402 -0.0022
 2466TIP3    H128889   1.555   6.792   4.763  0.2974 -1.8352 -0.9671
 2466TIP3    H228890   1.681   6.715   4.730  1.8647  0.4609 -0.4467
 2467TIP3   OH228891   3.911   2.508   1.386  0.4886  0.0126 -0.1855
 2467TIP3    H128892   3.843   2.553   1.436  0.7805 -0.6373  0.8121
 2467TIP3    H228893   3.869   2.430   1.351  0.0187  0.9579 -1.8079
 2468TIP3   OH228894   1.734   1.284  11.513  0.2502  0.3735  0.0549
 2468TIP3    H128895   1.707   1.199  11.477  0.0016  1.2283 -1.8144
 2468TIP3    H228896   1.809   1.263  11.570 -1.0256 -1.3290  1.1661
 2469TIP3   OH228897   5.082   1.668  12.809  0.3372 -0.2827  0.2614
 2469TIP3    H128898   5.028   1.671  12.888  0.1518  1.7086  0.0717
 2469TIP3    H228899   5.172   1.658  12.843  0.0637 -1.6866  0.6284
 2470TIP3   OH228900   0.329   2.862  10.403 -0.3729 -0.1119  0.6912
 2470TIP3    H128901   0.410   2.819  10.376 -0.8312 -0.6629  0.1840
 2470TIP3    H228902   0.355   2.919  10.475  0.4650 -0.2878  0.5325
 2471TIP3   OH228903   2.815   1.058  14.493  0.5959 -0.1666  0.0527
 2471TIP3    H128904   2.751   0.989  14.509  2.7577 -2.2734 -0.0085
 2471TIP3    H228905   2.763   1.138  14.484 -1.8401 -1.4037  2.3027
 2472TIP3   OH228906   4.383   1.571   6.414  0.4813  0.2614 -0.4956
 2472TIP3    H128907   4.420   1.654   6.385  0.7952  0.1089 -0.5266
 2472TIP3    H228908   4.307   1.596   6.468 -0.9925  0.5201 -2.6432
 2473TIP3   OH228909   1.067   3.273   5.886  0.0642 -0.1948  0.1742
 2473TIP3    H128910   1.097   3.239   5.970 -0.0788 -0.9018 -0.0565
 2473TIP3    H228911   1.087   3.366   5.889 -2.8804  0.4272  2.3036
 2474TIP3   OH228912   4.941   1.841  15.571 -0.0547 -0.2220 -0.1001
 2474TIP3    H128913   4.904   1.768  15.621 -0.2141  1.0307  1.6413
 2474TIP3    H228914   4.931   1.917  15.628  1.9824  0.8019 -1.0533
 2475TIP3   OH228915   5.641   0.065  12.558  0.2868  0.8563 -0.1822
 2475TIP3    H128916   5.718   0.096  12.510  0.5867 -0.4080 -0.5529
 2475TIP3    H228917   5.575   0.050  12.490  0.7736 -1.1220 -0.2430
 2476TIP3   OH228918   0.799   1.985   3.832 -0.3936 -0.6383  0.0710
 2476TIP3    H128919   0.732   1.945   3.887 -0.7070 -0.0339  0.1343
 2476TIP3    H228920   0.860   1.914   3.813 -0.3410 -0.8762  1.1040
 2477TIP3   OH228921   2.546   4.540  12.624 -0.7802  0.1308 -0.3401
 2477TIP3    H128922   2.564   4.450  12.650 -0.2487  0.3984  0.2309
 2477TIP3    H228923   2.633   4.578  12.607 -0.9946  0.5599 -0.4913
 2478TIP3   OH228924   3.380   2.380   1.684 -0.5521  0.4150  0.6802
 2478TIP3    H128925   3.321   2.429   1.741  0.6163  1.8427  0.6841
 2478TIP3    H228926   3.334   2.378   1.599 -0.7318  1.2917  0.7502
 2479TIP3   OH228927   6.677   1.394   1.762 -0.2161 -0.2196 -0.2347
 2479TIP3    H128928   6.642   1.362   1.679 -0.1346  0.6718 -0.6138
 2479TIP3    H228929   6.686   1.315   1.816  0.8981 -0.9688 -1.4868
 2480TIP3   OH228930   5.942   6.684   1.265  0.3411  0.0237  0.2748
 2480TIP3    H128931   5.917   6.591   1.264  0.0527  0.0938  0.7645
 2480TIP3    H228932   5.961   6.705   1.174  1.4796 -0.8088  0.3028
 2481TIP3   OH228933   4.122   4.949  16.174 -0.3623  0.0870 -0.4117
 2481TIP3    H128934   4.182   5.006  16.220 -0.6242  0.9410 -1.1112
 2481TIP3    H228935   4.065   4.913  16.242 -0.7271  1.3009 -0.0688
 2482TIP3   OH228936   3.108   5.161  12.765  0.3414 -0.2296 -0.7351
 2482TIP3    H128937   3.014   5.170  12.778  0.6737  2.0529  0.2804
 2482TIP3    H228938   3.124   5.067  12.772 -1.5224 -0.4167  1.5126
 2483TIP3   OH228939   3.118   2.521  17.032 -0.1193 -0.4991 -0.1089
 2483TIP3    H128940   3.176   2.509  17.108  1.3349  2.0580 -0.7720
 2483TIP3    H228941   3.050   2.581  17.064  0.0974  0.0133 -0.6060
 2484TIP3   OH228942   6.501   4.494   6.062  0.1765  0.0151 -0.3781
 2484TIP3    H128943   6.431   4.445   6.019  0.6363 -1.1617  0.1927
 2484TIP3    H228944   6.473   4.585   6.057 -0.4622 -0.2513 -1.8847
 2485TIP3   OH228945   2.151   1.577   4.705  0.5195 -0.3642  0.2636
 2485TIP3    H128946   2.160   1.638   4.778 -2.0109 -1.0254  1.1642
 2485TIP3    H228947   2.156   1.632   4.627  1.2298  0.5891  0.9689
 2486TIP3   OH228948   0.961   1.424  15.848  0.7044 -0.4331  0.0213
 2486TIP3    H128949   0.885   1.373  15.877 -0.5162  2.0165  1.3181
 2486TIP3    H228950   0.941   1.449  15.758 -0.5188  1.0019  0.6662
 2487TIP3   OH228951   5.007   4.899  11.372 -0.1915  0.4926  0.0565
 2487TIP3    H128952   5.022   4.913  11.279  0.2435 -0.5401 -0.0378
 2487TIP3    H228953   4.922   4.855  11.377 -0.3433  0.7984  0.1665
 2488TIP3   OH228954   4.406   5.798   3.686 -0.2214 -0.0899  0.2435
 2488TIP3    H128955   4.490   5.824   3.650 -0.7018 -0.7138 -1.3910
 2488TIP3    H228956   4.385   5.866   3.751  0.4380  1.3370 -1.0176
 2489TIP3   OH228957   4.181   0.977  11.715 -0.4494 -0.6750 -0.1379
 2489TIP3    H128958   4.155   0.892  11.753  0.2290 -0.6240  0.4486
 2489TIP3    H228959   4.270   0.991  11.747 -0.6803  0.4205  0.0308
 2490TIP3   OH228960   0.634   2.610   1.877 -0.0589 -0.4869 -0.0003
 2490TIP3    H128961   0.585   2.530   1.895 -1.1289 -0.1155 -1.1944
 2490TIP3    H228962   0.663   2.601   1.787 -0.0459  0.4097 -0.0885
 2491TIP3   OH228963   2.829   1.405  13.592  0.3721  0.4108 -0.4804
 2491TIP3    H128964   2.836   1.432  13.500  0.9232  0.8161 -0.3268
 2491TIP3    H228965   2.879   1.471  13.640 -0.4303  0.5498  0.1808
 2492TIP3   OH228966   3.787   4.347   5.108 -0.0761  0.5287  0.4230
 2492TIP3    H128967   3.850   4.402   5.062  0.2414 -0.8469 -0.8166
 2492TIP3    H228968   3.706   4.399   5.109  0.3454  1.2046 -0.3347
 2493TIP3   OH228969   3.695   2.238   3.497  0.2624 -0.6332 -0.0886
 2493TIP3    H128970   3.708   2.319   3.447  1.3618 -0.9090 -0.2504
 2493TIP3    H228971   3.709   2.168   3.434 -1.7201 -0.9494 -0.1933
 2494TIP3   OH228972   2.217   2.381   4.673  0.0317  0.3850  0.0019
 2494TIP3    H128973   2.230   2.286   4.666  0.3163  0.2618  1.9427
 2494TIP3    H228974   2.180   2.394   4.760  0.8005  2.1355  0.0966
 2495TIP3   OH228975   5.117   4.038  13.592  0.2779  0.4998 -0.0283
 2495TIP3    H128976   5.208   4.067  13.586 -0.1286  1.3785 -2.4739
 2495TIP3    H228977   5.123   3.944  13.611  1.7456  0.1477 -2.0654
 2496TIP3   OH228978   2.589   4.158   2.462  0.3139 -0.1695  0.2777
 2496TIP3    H128979   2.509   4.189   2.505  1.1242  1.6919  0.4810
 2496TIP3    H228980   2.600   4.068   2.493 -1.1494 -0.0971  1.0313
 2497TIP3   OH228981   6.028   5.203   1.358 -0.2438  0.3037 -0.2775
 2497TIP3    H128982   5.998   5.172   1.443  2.0884 -2.6857 -0.4562
 2497TIP3    H228983   6.060   5.292   1.374 -1.9346  0.6165  1.4529
 2498TIP3   OH228984   1.618   3.780  15.018  0.2945  0.3411 -0.6686
 2498TIP3    H128985   1.710   3.804  15.005  0.0314  1.6235 -0.3158
 2498TIP3    H228986   1.587   3.844  15.082 -0.6238 -0.6140 -0.1707
 2499TIP3   OH228987   3.896   6.497  15.118 -0.1174 -0.2776  0.4260
 2499TIP3    H128988   3.885   6.403  15.106 -0.6403 -0.1504 -0.1358
 2499TIP3    H228989   3.967   6.521  15.060 -0.0274 -0.3140  0.5211
 2500TIP3   OH228990   5.504   3.187  16.778 -0.3947 -0.6750 -0.0169
 2500TIP3    H128991   5.497   3.162  16.686 -1.1305 -1.4130  0.2247
 2500TIP3    H228992   5.526   3.280  16.777 -0.7893 -0.5915 -0.9421
 2501TIP3   OH228993   3.101   2.401   2.765 -0.4089  0.3472  0.4247
 2501TIP3    H128994   3.171   2.336   2.759 -1.2696 -0.5054 -0.6412
 2501TIP3    H228995   3.125   2.456   2.840  0.6299 -0.8401  0.9810
 2502TIP3   OH228996   2.273   6.124   1.215 -0.0178  0.0350  0.3040
 2502TIP3    H128997   2.276   6.212   1.254 -0.1047  0.4621 -0.6487
 2502TIP3    H228998   2.181   6.099   1.221 -0.1174  0.3038 -0.0670
 2503TIP3   OH228999   2.053   6.146  16.175  0.3260  0.1767  0.2440
 2503TIP3    H129000   1.991   6.074  16.187 -1.4253  1.5140 -0.3887
 2503TIP3    H229001   2.129   6.123  16.228 -0.8822 -1.3474  1.3340
 2504TIP3   OH229002   1.411   0.660   5.686 -0.5946  0.0643 -0.1918
 2504TIP3    H129003   1.354   0.720   5.636 -0.1370 -1.6499 -2.8491
 2504TIP3    H229004   1.500   0.688   5.663 -0.3816 -0.1968  0.3292
 2505TIP3   OH229005   0.060   0.500  11.253  0.2247 -0.2547 -0.7113
 2505TIP3    H129006  -0.014   0.464  11.303  1.2331  1.1213  1.8678
 2505TIP3    H229007   0.019   0.541  11.176 -1.6908  0.1936  0.4976
 2506TIP3   OH229008   3.868   3.641  17.148  0.4232 -0.1800  0.0036
 2506TIP3    H129009   3.874   3.560  17.199  1.5737 -0.7038 -0.9210
 2506TIP3    H229010   3.921   3.704  17.196  0.5506 -0.3430  0.0786
 2507TIP3   OH229011   2.692   2.562   5.467  0.8490 -0.4816 -0.6624
 2507TIP3    H129012   2.599   2.566   5.486  0.7516 -1.6666 -0.8995
 2507TIP3    H229013   2.701   2.499   5.396  1.7796  0.0205 -1.0147
 2508TIP3   OH229014   4.488   3.494  13.641 -0.1289 -0.3974  0.0310
 2508TIP3    H129015   4.553   3.423  13.635  0.7823  0.3905  0.3524
 2508TIP3    H229016   4.469   3.501  13.734  0.0343 -0.0032  0.0370
 2509TIP3   OH229017   1.999   3.747  15.630 -0.3003 -0.1316  0.4494
 2509TIP3    H129018   1.985   3.759  15.536  1.7214  2.0940  0.3720
 2509TIP3    H229019   1.913   3.762  15.669 -0.6935  1.3124 -0.8751
 2510TIP3   OH229020   6.484   4.959   2.639 -1.1730  0.2415  0.2445
 2510TIP3    H129021   6.402   4.987   2.679  0.7673  1.8431  3.2746
 2510TIP3    H229022   6.482   4.864   2.645 -2.4559  0.3006  0.9864
 2511TIP3   OH229023   4.204   1.724  11.967  0.3836  0.6171 -0.0176
 2511TIP3    H129024   4.232   1.777  11.893  0.1816  0.2296 -0.3759
 2511TIP3    H229025   4.119   1.760  11.992 -0.0419  0.0697 -0.6581
 2512TIP3   OH229026   5.489   4.716   3.192 -0.7174  0.0400  0.0807
 2512TIP3    H129027   5.444   4.764   3.261 -0.0145  0.4722  0.2481
 2512TIP3    H229028   5.421   4.663   3.150 -1.3977  0.7901  0.2379
 2513TIP3   OH229029   1.950   1.006  13.241 -0.2362 -0.3027 -0.2931
 2513TIP3    H129030   2.044   0.996  13.227  0.3261 -0.2513  3.0514
 2513TIP3    H229031   1.932   1.098  13.222  0.5200 -0.1466 -0.2521
 2514TIP3   OH229032   0.607   6.434   5.507 -0.6361 -0.1961  0.6176
 2514TIP3    H129033   0.527   6.465   5.551 -1.5107 -0.6979 -0.5969
 2514TIP3    H229034   0.607   6.340   5.523 -2.0170 -0.7003 -2.0793
 2515TIP3   OH229035   6.263   1.187   0.675 -0.1230  0.1915 -0.1593
 2515TIP3    H129036   6.202   1.113   0.672 -0.6543  0.5581  1.2185
 2515TIP3    H229037   6.325   1.165   0.745  0.9553  0.1134 -1.1257
 2516TIP3   OH229038   0.585   4.276   4.377  0.3936 -0.4659 -0.0369
 2516TIP3    H129039   0.628   4.344   4.324  0.6980  0.5359  1.4863
 2516TIP3    H229040   0.653   4.210   4.391  0.6890 -0.1007  0.2341
 2517TIP3   OH229041   4.105   2.737  16.680  0.1146 -0.4164 -0.1024
 2517TIP3    H129042   4.167   2.806  16.706 -0.4154  0.4374 -1.1006
 2517TIP3    H229043   4.126   2.719  16.589  0.4967 -1.8575  0.2554
 2518TIP3   OH229044   0.147   4.799  14.625 -0.3892 -0.8576 -0.2456
 2518TIP3    H129045   0.064   4.752  14.627 -1.3527  0.7130 -1.4237
 2518TIP3    H229046   0.187   4.774  14.542  0.4721 -1.8442  0.4572
 2519TIP3   OH229047   6.346   5.426  15.037 -0.2728 -0.1816  0.0897
 2519TIP3    H129048   6.269   5.391  14.993 -1.5400  1.5958  0.8366
 2519TIP3    H229049   6.312   5.462  15.119  1.1963  1.4496  0.0041
 2520TIP3   OH229050   2.164   1.997   2.720 -0.4121 -0.0702 -0.3937
 2520TIP3    H129051   2.171   1.908   2.754 -0.1249 -0.3940 -1.2906
 2520TIP3    H229052   2.172   2.053   2.798  1.9857 -0.7382 -0.1179
 2521TIP3   OH229053   5.306   3.585  10.452 -0.0938 -0.1821 -0.1094
 2521TIP3    H129054   5.320   3.647  10.380  0.6519  0.2012  0.3689
 2521TIP3    H229055   5.210   3.579  10.460 -0.1669  0.6634 -0.3583
 2522TIP3   OH229056   3.427   1.385   0.471 -0.6033 -0.4907  0.2340
 2522TIP3    H129057   3.513   1.426   0.476  0.2247 -2.2753  1.2631
 2522TIP3    H229058   3.367   1.450   0.507  0.1875  1.0674 -1.2084
 2523TIP3   OH229059   1.768   3.999  11.905  0.1921 -0.1791 -0.3949
 2523TIP3    H129060   1.798   3.947  11.979 -1.6120  0.1266  0.5819
 2523TIP3    H229061   1.774   4.090  11.935 -0.9508 -0.0735 -0.4411
 2524TIP3   OH229062   2.735   2.340   1.499  0.6965 -0.3476  0.7794
 2524TIP3    H129063   2.768   2.283   1.568 -0.1350 -1.3001  0.4124
 2524TIP3    H229064   2.743   2.287   1.419 -2.3416 -0.9073  0.7817
 2525TIP3   OH229065   1.958   0.135   0.412  0.3119  0.2102  0.5134
 2525TIP3    H129066   1.940   0.066   0.476  2.1661 -0.0225  0.8091
 2525TIP3    H229067   1.902   0.113   0.337  1.4271 -2.0591  0.3093
 2526TIP3   OH229068   5.924   6.079  12.096 -0.0754  0.1116  0.2981
 2526TIP3    H129069   5.924   6.049  12.005  2.8311  0.3660  0.1782
 2526TIP3    H229070   5.872   6.012  12.142 -3.5780  1.1918 -1.8349
 2527TIP3   OH229071   5.715   4.365   4.984  0.6821 -0.1299  0.2621
 2527TIP3    H129072   5.734   4.283   4.938 -0.3123 -1.1656  1.6495
 2527TIP3    H229073   5.792   4.420   4.968  1.0981 -1.1038 -1.1788
 2528TIP3   OH229074   2.949   4.285   3.965 -0.4552  0.4533  0.0396
 2528TIP3    H129075   2.955   4.197   3.928 -0.2859  1.3667 -2.1770
 2528TIP3    H229076   2.896   4.273   4.044  0.4498 -1.7948  0.3688
 2529TIP3   OH229077   0.426   6.786  16.003 -0.3910 -0.1520  0.6396
 2529TIP3    H129078   0.499   6.736  15.967  0.0160  0.3781  0.7353
 2529TIP3    H229079   0.402   6.847  15.933 -2.5935 -2.2242 -0.5084
 2530TIP3   OH229080   0.876   1.751  15.013  0.0900 -0.5229 -0.1856
 2530TIP3    H129081   0.821   1.681  15.048 -0.7937  0.4063  0.2934
 2530TIP3    H229082   0.833   1.832  15.041 -1.1846  0.2732 -4.1640
 2531TIP3   OH229083   5.736   2.238  10.551  0.8946  0.2996 -0.0654
 2531TIP3    H129084   5.755   2.219  10.459  1.4934  0.5851  0.0029
 2531TIP3    H229085   5.795   2.181  10.600 -1.9304 -2.5882  0.1924
 2532TIP3   OH229086   6.568   1.214  15.220  0.2503  0.4395 -0.1994
 2532TIP3    H129087   6.514   1.293  15.213 -1.2544 -0.6370 -1.2793
 2532TIP3    H229088   6.634   1.223  15.152  1.2691  1.6352  0.9327
 2533TIP3   OH229089   4.433   1.323   2.375  0.6582 -0.4343 -0.1626
 2533TIP3    H129090   4.488   1.366   2.309  1.3063 -0.3205  0.4458
 2533TIP3    H229091   4.495   1.280   2.434  0.0238 -1.9178 -0.5534
 2534TIP3   OH229092   3.846   4.938  14.642 -0.8791 -0.4845 -0.0356
 2534TIP3    H129093   3.916   4.894  14.594 -0.2935 -0.6632  0.9698
 2534TIP3    H229094   3.877   5.028  14.651  0.1241 -1.0247  2.1134
 2535TIP3   OH229095   4.922   2.656   1.112  0.1955 -0.1281  0.0171
 2535TIP3    H129096   4.942   2.669   1.020  3.9722 -1.9794  0.5005
 2535TIP3    H229097   4.885   2.740   1.141  0.3111  0.9400 -2.7875
 2536TIP3   OH229098   6.793   4.385  14.670  0.6443 -0.2493  0.1962
 2536TIP3    H129099   6.825   4.397  14.580  1.0847  0.4705  0.4432
 2536TIP3    H229100   6.805   4.471  14.711  0.0241 -0.4522  0.8105
 2537TIP3   OH229101   6.653   3.886  13.472  0.2653 -0.0037 -0.2441
 2537TIP3    H129102   6.591   3.870  13.402  1.2416  0.3224 -1.2019
 2537TIP3    H229103   6.638   3.977  13.497  0.7880  0.2715 -0.9171
 2538TIP3   OH229104   5.967   1.113   2.468 -0.7650 -0.1635  0.5167
 2538TIP3    H129105   5.957   1.052   2.540 -1.1327 -0.7431 -0.0240
 2538TIP3    H229106   5.921   1.192   2.496  0.5134  0.2038  1.6097
 2539TIP3   OH229107   2.858   2.850   3.017  0.3711 -0.7636  0.1326
 2539TIP3    H129108   2.875   2.858   3.111  2.5368 -1.5284 -0.1726
 2539TIP3    H229109   2.852   2.756   3.001 -1.8293 -0.5940 -0.2144
 2540TIP3   OH229110   3.505   1.207  13.678  0.5319  0.2258  0.2578
 2540TIP3    H129111   3.571   1.190  13.611 -1.6938  2.7292 -2.7005
 2540TIP3    H229112   3.515   1.300  13.699 -1.8941  0.6139 -0.1121
 2541TIP3   OH229113   5.258   1.364   0.325 -0.3173  0.2053  0.2260
 2541TIP3    H129114   5.327   1.334   0.385 -0.6636 -0.5386  0.2537
 2541TIP3    H229115   5.306   1.412   0.257  0.1924  0.0427  0.4644
 2542TIP3   OH229116   4.199   1.324   4.517 -0.3171  0.3172  0.3992
 2542TIP3    H129117   4.280   1.375   4.523 -1.1447  1.6656  0.4700
 2542TIP3    H229118   4.195   1.275   4.599  1.1055 -0.8072 -0.1938
 2543TIP3   OH229119   0.044   5.372  14.244 -0.1690 -0.2051 -0.3893
 2543TIP3    H129120  -0.030   5.402  14.190 -0.8692 -1.5326 -0.2091
 2543TIP3    H229121   0.121   5.408  14.201 -0.8673  0.5098 -1.0714
 2544TIP3   OH229122   1.925   2.950  14.637  0.2111 -0.2391 -0.3253
 2544TIP3    H129123   1.976   2.989  14.567  0.3586  0.6752  0.2837
 2544TIP3    H229124   1.889   3.024  14.685 -0.8543 -0.8654 -0.1349
 2545TIP3   OH229125   4.801   1.914  16.898 -0.4944 -0.2509  0.1593
 2545TIP3    H129126   4.825   1.861  16.822 -2.1692  1.5097 -1.6691
 2545TIP3    H229127   4.741   1.980  16.863  0.9040  2.3738  2.4695
 2546TIP3   OH229128   2.638   3.546  15.589  0.0896  0.4361 -0.5369
 2546TIP3    H129129   2.679   3.505  15.666 -2.4774 -1.4883 -0.1396
 2546TIP3    H229130   2.712   3.573  15.535  1.9224 -0.7727  1.2777
 2547TIP3   OH229131   1.398   0.688   4.169  0.4310 -0.2133 -0.5094
 2547TIP3    H129132   1.489   0.717   4.167  0.6506 -0.9323 -1.1770
 2547TIP3    H229133   1.403   0.593   4.175 -0.2693 -0.0755  3.2969
 2548TIP3   OH229134   3.684   1.091  10.583  0.1394 -0.3391 -0.6923
 2548TIP3    H129135   3.630   1.046  10.648  0.5901 -1.0892 -0.8304
 2548TIP3    H229136   3.621   1.135  10.526 -0.2750 -0.1230 -0.0724
 2549TIP3   OH229137   0.044   1.900   0.807  0.1789 -0.1221 -0.1997
 2549TIP3    H129138   0.041   1.996   0.812 -1.2015 -0.1601 -0.1364
 2549TIP3    H229139   0.089   1.882   0.724  1.4141  0.5716  0.3164
 2550TIP3   OH229140   2.797   1.495   5.439  0.6796  0.1523 -0.3968
 2550TIP3    H129141   2.773   1.494   5.532  1.4753  1.4076 -0.1580
 2550TIP3    H229142   2.893   1.500   5.439  0.6140  1.8355 -1.2495
 2551TIP3   OH229143   1.820   1.660   0.859 -0.1601 -0.0204  0.2184
 2551TIP3    H129144   1.759   1.733   0.845  0.7660  0.4017 -1.8676
 2551TIP3    H229145   1.903   1.703   0.878  0.1327 -0.5544  0.1503
 2552TIP3   OH229146   2.528   4.236  14.885  0.0020  0.4427 -0.2097
 2552TIP3    H129147   2.477   4.185  14.949  0.9122  0.5890  0.6539
 2552TIP3    H229148   2.488   4.216  14.801  0.8762 -2.4180 -0.0095
 2553TIP3   OH229149   1.826   4.255   2.632  0.2547  0.1526  0.2654
 2553TIP3    H129150   1.769   4.326   2.601 -0.2887  0.5856  2.1972
 2553TIP3    H229151   1.766   4.186   2.658  0.7233 -0.4112 -0.1513
 2554TIP3   OH229152   4.657   2.793  12.501  0.4062  0.0201 -0.5548
 2554TIP3    H129153   4.717   2.737  12.451 -0.6410 -1.8681  0.2521
 2554TIP3    H229154   4.673   2.770  12.592 -0.1242  0.9642 -0.2138
 2555TIP3   OH229155   3.884   6.096  11.192  0.3075  0.0436  0.1536
 2555TIP3    H129156   3.830   6.070  11.267  0.5965 -0.8102  0.0685
 2555TIP3    H229157   3.824   6.096  11.118 -0.2035  1.8611  0.5480
 2556TIP3   OH229158   3.623   1.351  16.294 -0.4155  0.4278  0.1601
 2556TIP3    H129159   3.543   1.382  16.337 -0.9413 -0.8566  0.1264
 2556TIP3    H229160   3.687   1.342  16.366 -0.7891 -0.1024  0.4291
 2557TIP3   OH229161   4.387   4.227   4.172  0.5275  0.0474  0.4991
 2557TIP3    H129162   4.452   4.162   4.145 -0.3508 -0.7475  0.2481
 2557TIP3    H229163   4.437   4.293   4.220  1.7149  0.1243 -0.8053
 2558TIP3   OH229164   4.753   6.213  16.684 -0.3818  0.5486 -0.9097
 2558TIP3    H129165   4.776   6.288  16.739 -0.7661 -0.7772  1.0649
 2558TIP3    H229166   4.669   6.182  16.719  1.0689 -2.4579  0.0219
 2559TIP3   OH229167   1.832   2.054   2.784 -0.4613 -0.7025 -0.5691
 2559TIP3    H129168   1.792   1.983   2.835 -0.0604 -1.5436 -1.4030
 2559TIP3    H229169   1.796   2.042   2.696 -2.2024  1.5379 -0.2242
 2560TIP3   OH229170   2.427   0.244  15.999 -0.0957 -0.0681 -0.4430
 2560TIP3    H129171   2.424   0.171  15.937 -0.2737  0.8379 -1.5158
 2560TIP3    H229172   2.518   0.249  16.026 -0.0668 -0.6323 -0.4271
 2561TIP3   OH229173   1.250   0.422  14.121  0.2416 -0.1672  0.4533
 2561TIP3    H129174   1.170   0.465  14.091  0.7191  1.6678  1.7430
 2561TIP3    H229175   1.303   0.492  14.159  1.8452 -1.5945  0.9332
 2562TIP3   OH229176   1.379   0.743  13.395  0.3839  0.2430 -0.0509
 2562TIP3    H129177   1.441   0.784  13.335  0.8412 -0.5599 -0.1447
 2562TIP3    H229178   1.403   0.776  13.481  1.2707 -0.4269 -0.0259
 2563TIP3   OH229179   0.787   5.924  11.612  0.2534 -0.2870 -0.0310
 2563TIP3    H129180   0.842   5.892  11.683 -0.4249 -2.0353 -0.2548
 2563TIP3    H229181   0.699   5.893  11.634  0.0412 -0.8624 -1.6262
 2564TIP3   OH229182   4.622   3.150   4.079 -0.1502  0.2261 -0.8268
 2564TIP3    H129183   4.634   3.211   4.152  1.3052 -0.0192 -0.8378
 2564TIP3    H229184   4.559   3.194   4.021 -1.5679  0.2717  0.7262
 2565TIP3   OH229185   3.540   2.820  13.563 -0.0999 -0.0005  0.2577
 2565TIP3    H129186   3.603   2.864  13.621  1.9460 -1.0032 -1.1323
 2565TIP3    H229187   3.515   2.741  13.612  0.6588 -0.2013  0.3431
 2566TIP3   OH229188   3.850   1.225  16.730 -0.3848  0.0260 -0.4515
 2566TIP3    H129189   3.895   1.157  16.680 -0.1202  1.4789 -2.2483
 2566TIP3    H229190   3.888   1.220  16.818  0.3814 -1.4241 -0.8562
 2567TIP3   OH229191   4.013   6.374  16.115  0.3354  0.3974  0.1191
 2567TIP3    H129192   4.039   6.466  16.111  1.6138  0.0723  0.5507
 2567TIP3    H229193   3.924   6.375  16.149 -0.0198  1.5282 -0.8144
 2568TIP3   OH229194   2.263   1.067  15.447  0.3666  0.1058 -0.2530
 2568TIP3    H129195   2.237   0.987  15.400 -1.8950 -0.2271  1.4913
 2568TIP3    H229196   2.355   1.054  15.466  0.1723 -1.8497 -0.5003
 2569TIP3   OH229197   1.893   4.781  15.481 -0.1415  0.8546 -0.1741
 2569TIP3    H129198   1.864   4.844  15.547 -1.3675 -1.3413  1.4629
 2569TIP3    H229199   1.815   4.729  15.462  1.3372 -1.6260  0.2251
 2570TIP3   OH229200   3.007   5.817   4.681 -0.0911  0.2324  0.1236
 2570TIP3    H129201   2.923   5.860   4.665 -0.1960 -0.3825 -0.9370
 2570TIP3    H229202   3.035   5.851   4.766 -0.3216  2.1868 -0.5636
 2571TIP3   OH229203   0.659   1.297   5.788 -0.1248  0.2706  0.2384
 2571TIP3    H129204   0.593   1.241   5.830  0.0187  1.1770  1.6787
 2571TIP3    H229205   0.609   1.348   5.724 -0.5523 -0.2012  0.1931
 2572TIP3   OH229206   3.737   2.799  11.059 -0.1353 -0.3308  0.1128
 2572TIP3    H129207   3.807   2.749  11.016  0.3987  0.2839  0.2618
 2572TIP3    H229208   3.782   2.853  11.123 -0.2577  3.1330 -2.5706
 2573TIP3   OH229209   0.856   1.901  16.657 -0.3495  0.3233 -0.4598
 2573TIP3    H129210   0.935   1.934  16.699 -0.7623 -0.1033  0.6597
 2573TIP3    H229211   0.883   1.817  16.619  0.1530  0.9418 -1.5154
 2574TIP3   OH229212   1.874   1.079  11.685 -0.1436  0.3137  0.1377
 2574TIP3    H129213   1.920   0.996  11.695 -0.0838  0.1325 -1.5108
 2574TIP3    H229214   1.921   1.140  11.742  0.4803 -0.5258  0.5215
 2575TIP3   OH229215   2.826   2.039   4.623 -0.0000  0.2589  0.5406
 2575TIP3    H129216   2.852   1.992   4.703  0.0983  1.3398  1.1477
 2575TIP3    H229217   2.772   1.976   4.575  1.5378 -1.0879  0.5301
 2576TIP3   OH229218   4.689   2.436   4.694  0.1958 -0.4012  0.2303
 2576TIP3    H129219   4.600   2.467   4.708 -0.0685 -0.5310 -1.1291
 2576TIP3    H229220   4.729   2.439   4.781 -1.4852 -1.5000  1.0790
 2577TIP3   OH229221   3.373   4.824   6.106  1.1549  0.3584 -0.0395
 2577TIP3    H129222   3.336   4.905   6.142  2.0793  1.9710 -2.6387
 2577TIP3    H229223   3.434   4.794   6.173  0.0132  1.2013  1.4081
 2578TIP3   OH229224   0.579   2.891  16.700 -0.2294 -0.0486 -0.0536
 2578TIP3    H129225   0.633   2.816  16.676  1.3388  0.6246  1.2768
 2578TIP3    H229226   0.587   2.897  16.795 -1.3717  1.0337 -0.0136
 2579TIP3   OH229227   4.854   6.387  17.204 -0.0458  0.5649 -0.2492
 2579TIP3    H129228   4.824   6.340  17.282  0.3810 -0.8841 -0.9344
 2579TIP3    H229229   4.949   6.380  17.207 -0.1058 -1.5433 -2.0951
 2580TIP3   OH229230   1.203   6.001   1.479 -0.2539  0.3614  0.3226
 2580TIP3    H129231   1.229   5.949   1.403 -0.6671 -0.1330  0.5187
 2580TIP3    H229232   1.265   6.074   1.480 -0.4951  0.5916 -0.7276
 2581TIP3   OH229233   1.041   5.481  15.517  0.0387  0.0812 -0.2154
 2581TIP3    H129234   1.114   5.419  15.512 -0.1076 -0.3979  2.7344
 2581TIP3    H229235   0.965   5.427  15.538 -0.3613  1.0390  0.9018
 2582TIP3   OH229236   3.998   2.911  16.929  0.1704  0.3303 -0.1737
 2582TIP3    H129237   3.998   2.901  16.834 -2.0506 -0.3219 -0.1464
 2582TIP3    H229238   3.913   2.952  16.949  0.3695 -0.0565  1.5646
 2583TIP3   OH229239   6.458   0.959  13.892 -0.1817 -0.0032  0.0220
 2583TIP3    H129240   6.380   0.979  13.840 -0.3913 -0.4014  0.1748
 2583TIP3    H229241   6.424   0.912  13.968  0.1656  0.2080  0.3108
 2584TIP3   OH229242   2.255   4.587   1.371  0.2841 -0.0793  0.3162
 2584TIP3    H129243   2.326   4.651   1.368  1.4882 -1.3606  0.6141
 2584TIP3    H229244   2.237   4.577   1.465  2.2634 -2.4589  0.4887
 2585TIP3   OH229245   0.877   5.011   0.958  0.1074  0.6848 -0.7844
 2585TIP3    H129246   0.847   5.080   1.017 -0.2289 -1.3834  1.5340
 2585TIP3    H229247   0.934   5.056   0.896 -1.1491  3.2648 -0.1547
 2586TIP3   OH229248   3.626   1.289  12.472 -0.1983 -0.2453  0.6268
 2586TIP3    H129249   3.602   1.198  12.493 -2.9073  0.2284 -0.1667
 2586TIP3    H229250   3.626   1.334  12.557  0.1048 -0.7549  0.8976
 2587TIP3   OH229251   3.379   2.803  13.045 -1.2934  0.2256 -0.0405
 2587TIP3    H129252   3.408   2.831  13.132 -1.1786  1.2593 -0.3937
 2587TIP3    H229253   3.357   2.711  13.054  0.6423 -0.1861  0.6197
 2588TIP3   OH229254   5.803   3.992   2.554  0.0477  0.3187  0.1535
 2588TIP3    H129255   5.790   4.032   2.467 -0.1170 -0.3502 -0.1350
 2588TIP3    H229256   5.896   4.002   2.571  0.1990 -0.1335 -0.3975
 2589TIP3   OH229257   5.257   6.555   3.619  0.2053 -0.6201 -0.3158
 2589TIP3    H129258   5.238   6.610   3.695 -2.5052 -1.3740 -0.3939
 2589TIP3    H229259   5.319   6.607   3.567  0.4443  0.8143  1.3359
 2590TIP3   OH229260   0.712   2.498   3.328  0.4052  0.3397  0.2354
 2590TIP3    H129261   0.688   2.508   3.420  0.8585  1.4219  0.2534
 2590TIP3    H229262   0.707   2.404   3.311  1.2005  0.0359  1.6086
 2591TIP3   OH229263   6.259   3.652   1.374 -0.0670 -0.4923  0.2257
 2591TIP3    H129264   6.173   3.694   1.367  0.0455 -0.3503 -0.2982
 2591TIP3    H229265   6.244   3.574   1.428 -0.1763  0.4994  1.6746
 2592TIP3   OH229266   0.448   2.837   0.507  0.2570  0.1582 -0.0278
 2592TIP3    H129267   0.393   2.805   0.436 -0.2049 -0.0163  0.4081
 2592TIP3    H229268   0.537   2.838   0.470 -0.0932  0.8809 -0.8777
 2593TIP3   OH229269   3.041   3.092   5.291  0.2789 -0.3985 -0.1997
 2593TIP3    H129270   3.104   3.032   5.252  0.2107 -1.8278  1.7608
 2593TIP3    H229271   3.081   3.117   5.375 -1.1429 -0.3059  0.4743
 2594TIP3   OH229272   2.671   1.303  12.120  0.1745  0.2271 -0.7257
 2594TIP3    H129273   2.721   1.351  12.185  1.0738 -3.0009  1.1150
 2594TIP3    H229274   2.734   1.283  12.051 -0.1116  1.3305 -1.3188
 2595TIP3   OH229275   3.794   3.459  11.698 -0.3003 -0.3041 -0.9408
 2595TIP3    H129276   3.699   3.463  11.687 -0.3306  0.1919 -0.5554
 2595TIP3    H229277   3.819   3.374  11.664 -0.8908 -0.4501 -1.0157
 2596TIP3   OH229278   2.653   5.437  15.958 -0.3686  0.0962  0.2479
 2596TIP3    H129279   2.706   5.517  15.961 -1.6766  1.0450 -1.3062
 2596TIP3    H229280   2.564   5.466  15.979 -0.8572 -0.9202 -0.3924
 2597TIP3   OH229281   1.789   1.903  14.990 -0.5557  0.6850 -0.0705
 2597TIP3    H129282   1.730   1.855  14.931  0.0782 -1.9428  1.3749
 2597TIP3    H229283   1.737   1.916  15.069  0.1466  0.0824  0.4925
 2598TIP3   OH229284   3.486   3.595   1.148  0.4155 -0.0030 -0.0669
 2598TIP3    H129285   3.558   3.622   1.205 -1.0069  1.0187  1.3015
 2598TIP3    H229286   3.465   3.506   1.176  0.9144 -0.1763 -0.2376
 2599TIP3   OH229287   2.521   5.256   1.868  0.1056  0.4007  0.3112
 2599TIP3    H129288   2.540   5.179   1.922 -0.2914  0.3218  0.3437
 2599TIP3    H229289   2.552   5.232   1.781 -0.7012 -0.0915  0.1534
 2600TIP3   OH229290   1.613   3.306  13.699 -0.7944  0.0037  0.0382
 2600TIP3    H129291   1.553   3.327  13.771 -0.3537 -1.4235  0.8495
 2600TIP3    H229292   1.622   3.388  13.650 -0.3566  1.2556  2.1595
 2601TIP3   OH229293   3.832   2.140  14.347 -0.1111  0.8302 -0.4719
 2601TIP3    H129294   3.823   2.053  14.384 -2.9157  0.8125 -1.1289
 2601TIP3    H229295   3.834   2.198  14.423 -0.5298  0.3800 -0.1155
 2602TIP3   OH229296   2.979   2.226  15.275  0.7458 -0.0305 -0.0579
 2602TIP3    H129297   2.960   2.295  15.212  0.3944 -0.3577 -0.3098
 2602TIP3    H229298   2.899   2.218  15.326  0.8330 -0.1657  0.0553
 2603TIP3   OH229299   1.818   0.129   4.026  0.0476  0.2906  0.1424
 2603TIP3    H129300   1.856   0.200   4.078  0.8556  0.2291 -0.3514
 2603TIP3    H229301   1.784   0.067   4.090  0.9217  0.2751  0.5936
 2604TIP3   OH229302   4.636   5.715  12.096  0.1209  0.0135  0.1056
 2604TIP3    H129303   4.725   5.737  12.123  0.2749  0.2290 -0.5851
 2604TIP3    H229304   4.646   5.643  12.034 -0.0854  0.9392 -1.0242
 2605TIP3   OH229305   5.131   3.733  16.336  0.4528 -0.4709 -0.3802
 2605TIP3    H129306   5.086   3.668  16.282 -0.0308  0.0369 -0.5963
 2605TIP3    H229307   5.123   3.699  16.425  1.6133 -1.5139 -0.6648
 2606TIP3   OH229308   0.419   2.249   5.582  0.5403 -0.6455 -0.2854
 2606TIP3    H129309   0.475   2.307   5.635  0.2074 -1.0916  0.5608
 2606TIP3    H229310   0.358   2.211   5.645 -0.3789 -0.5766 -1.1235
 2607TIP3   OH229311   1.735   6.279  12.747 -0.1919  0.1089 -0.5224
 2607TIP3    H129312   1.641   6.294  12.749 -0.2944 -0.5061 -0.5681
 2607TIP3    H229313   1.761   6.304  12.658 -0.3886 -0.1766 -0.6586
 2608TIP3   OH229314   6.401   6.383   5.191 -0.0753  0.3389 -0.1339
 2608TIP3    H129315   6.351   6.454   5.151  0.3640  0.7378  0.0196
 2608TIP3    H229316   6.487   6.390   5.149 -0.3257 -0.7189 -0.8468
 2609TIP3   OH229317   0.831   1.150  13.363 -0.4027  0.4795  0.2526
 2609TIP3    H129318   0.853   1.101  13.284 -0.0327 -0.0724  0.6982
 2609TIP3    H229319   0.858   1.240  13.344  1.7549 -0.0764  0.5947
 2610TIP3   OH229320   4.242   4.186  12.202 -0.2930  0.1544 -0.0699
 2610TIP3    H129321   4.331   4.178  12.234  0.1477  0.0874 -1.2870
 2610TIP3    H229322   4.225   4.103  12.157 -1.5555 -0.5139  1.5681
 2611TIP3   OH229323   3.332   6.084  15.069  0.0182  0.2351  0.0025
 2611TIP3    H129324   3.299   6.169  15.038 -0.3793 -0.1148 -0.5581
 2611TIP3    H229325   3.354   6.098  15.161  1.9166  1.5012 -0.6216
 2612TIP3   OH229326   1.963   2.439  15.315  0.3030 -0.0558 -0.5114
 2612TIP3    H129327   1.977   2.369  15.251 -0.2190 -0.3781 -0.2674
 2612TIP3    H229328   1.943   2.517  15.262  0.6279 -0.1443 -0.7670
 2613TIP3   OH229329   6.406   5.490  15.912 -0.4592  0.3524  0.2451
 2613TIP3    H129330   6.337   5.467  15.850 -0.6284 -1.2651  1.0043
 2613TIP3    H229331   6.484   5.443  15.881 -0.2912  0.3296  0.6866
 2614TIP3   OH229332   4.225   0.458  14.590  0.2839  0.0225  0.0485
 2614TIP3    H129333   4.245   0.551  14.589 -2.5901  0.6873 -0.3675
 2614TIP3    H229334   4.220   0.435  14.683  0.5666  0.3835  0.1543
 2615TIP3   OH229335   1.748   3.782  15.754  0.0340  0.3200  0.3334
 2615TIP3    H129336   1.736   3.761  15.847  1.5382 -0.7105  0.3196
 2615TIP3    H229337   1.691   3.858  15.739 -0.1383  0.5731  2.1199
 2616TIP3   OH229338   2.992   1.146   0.049 -0.4197  0.0831  0.5584
 2616TIP3    H129339   2.943   1.134   0.131 -1.5383 -2.4016 -0.4129
 2616TIP3    H229340   3.074   1.098   0.064 -0.2631  0.3373  0.5147
 2617TIP3   OH229341   6.630   5.490   4.558 -0.1616 -0.0851 -0.6713
 2617TIP3    H129342   6.595   5.428   4.494  1.8633 -1.2831 -0.6369
 2617TIP3    H229343   6.599   5.575   4.526 -2.3133 -1.0014 -1.1416
 2618TIP3   OH229344   2.415   6.215   2.379  0.3517 -0.4160 -0.2483
 2618TIP3    H129345   2.385   6.283   2.318 -0.1280 -1.2459 -0.9332
 2618TIP3    H229346   2.337   6.166   2.402  0.9579 -1.7782 -1.0445
 2619TIP3   OH229347   4.829   3.612   3.274  0.5019  0.3437 -0.4527
 2619TIP3    H129348   4.798   3.702   3.263 -0.2732 -0.2568 -3.7424
 2619TIP3    H229349   4.754   3.566   3.311  0.6665  0.8730  0.5728
 2620TIP3   OH229350   3.146   2.506   5.590 -0.0313  0.4148  0.4934
 2620TIP3    H129351   3.053   2.530   5.592 -0.0984  0.4895 -1.8461
 2620TIP3    H229352   3.151   2.427   5.644 -1.3260  0.7997  1.2052
 2621TIP3   OH229353   2.037   2.323  11.799 -0.3763  0.0996  0.5439
 2621TIP3    H129354   2.038   2.405  11.849  0.6666  0.0250  0.6589
 2621TIP3    H229355   2.076   2.345  11.715 -0.9093 -0.0801  0.2491
 2622TIP3   OH229356   0.861   0.342  16.326 -0.2852 -0.0664  0.1666
 2622TIP3    H129357   0.906   0.419  16.292 -1.1103  0.5900  0.5319
 2622TIP3    H229358   0.877   0.274  16.261  0.6576  0.3401 -0.0379
 2623TIP3   OH229359   2.009   0.058   0.086 -0.1959  0.0944 -0.7466
 2623TIP3    H129360   2.048  -0.018   0.130  1.5865  1.2990 -0.1534
 2623TIP3    H229361   1.917   0.056   0.110  0.0432 -1.3211  0.0845
 2624TIP3   OH229362   5.360   2.511  10.937 -0.1691 -0.3749  0.0566
 2624TIP3    H129363   5.310   2.518  11.019  0.7172 -0.5703  0.6146
 2624TIP3    H229364   5.303   2.550  10.871 -0.3863  0.8893  0.9813
 2625TIP3   OH229365   0.135   3.758  11.226 -0.4998 -0.1810  0.3847
 2625TIP3    H129366   0.063   3.761  11.290 -0.3328  0.8669  0.5181
 2625TIP3    H229367   0.191   3.832  11.248 -0.8210  0.6285 -1.4193
 2626TIP3   OH229368   3.061   4.182  11.745  0.1611 -0.1882 -0.5743
 2626TIP3    H129369   2.984   4.177  11.688  0.6991 -0.3256 -1.2998
 2626TIP3    H229370   3.031   4.147  11.828 -0.1520 -1.6942 -1.3011
 2627TIP3   OH229371   6.313   1.681   4.655 -0.4095  0.0052  0.8273
 2627TIP3    H129372   6.327   1.726   4.571 -1.6071 -1.3507 -0.1232
 2627TIP3    H229373   6.342   1.744   4.721  1.7693  0.6073 -0.6485
 2628TIP3   OH229374   3.714   4.142  15.427 -0.4641 -0.3993  0.1572
 2628TIP3    H129375   3.772   4.107  15.495  0.7102  0.3850 -0.4179
 2628TIP3    H229376   3.649   4.074  15.413  0.3025 -1.2844  0.8576
 2629TIP3   OH229377   2.804   3.404  12.692 -0.0981  0.1373 -0.1662
 2629TIP3    H129378   2.871   3.344  12.725 -0.0124  0.9769  1.2173
 2629TIP3    H229379   2.831   3.422  12.602  0.5869 -0.8819 -0.1740
 2630TIP3   OH229380   4.352   3.870  13.230 -0.7215 -0.0967  0.0830
 2630TIP3    H129381   4.353   3.916  13.314  0.9826  0.6002 -0.3097
 2630TIP3    H229382   4.360   3.777  13.254  0.8818  0.1761  0.6408
 2631TIP3   OH229383   6.760   5.664   5.620 -0.0360  0.3283  0.7973
 2631TIP3    H129384   6.703   5.589   5.603  0.9121  0.0038 -1.0687
 2631TIP3    H229385   6.812   5.638   5.696 -0.5658 -0.4028  0.9154
 2632TIP3   OH229386   6.622   4.911  14.315 -0.4605  0.6940 -0.1838
 2632TIP3    H129387   6.614   5.006  14.326  3.5702  0.8363  2.6623
 2632TIP3    H229388   6.704   4.900  14.265 -0.0644 -1.3114  0.8713
 2633TIP3   OH229389   1.698   3.832   6.022 -0.1996 -0.4844 -0.3717
 2633TIP3    H129390   1.632   3.795   6.079 -0.2901  0.1727 -0.0436
 2633TIP3    H229391   1.725   3.913   6.065  0.0224 -0.1879 -1.0492
 2634TIP3   OH229392   5.420   4.085  15.514 -0.5191  0.2544  0.0095
 2634TIP3    H129393   5.482   4.112  15.447 -0.6023  0.6479  0.0905
 2634TIP3    H229394   5.441   3.993  15.531  0.0675  0.4030  0.0759
 2635TIP3   OH229395   2.266   6.695   2.020 -0.3279 -0.5116 -0.0234
 2635TIP3    H129396   2.310   6.614   2.048  0.2274 -0.1063  0.2902
 2635TIP3    H229397   2.311   6.764   2.068 -1.6770 -0.1261  0.7103
 2636TIP3   OH229398   0.156   6.344   5.488 -0.0179  0.1316 -0.1420
 2636TIP3    H129399   0.192   6.360   5.575 -0.1168  0.9413 -0.2428
 2636TIP3    H229400   0.064   6.322   5.504  0.6146 -2.4651  0.1548
 2637TIP3   OH229401   6.396   0.625   4.271  0.2074  0.2994  0.2468
 2637TIP3    H129402   6.442   0.677   4.337  1.4771 -0.9372  0.3478
 2637TIP3    H229403   6.443   0.644   4.189 -0.2234  0.4158  0.0265
 2638TIP3   OH229404   4.351   3.807   3.522  0.0562  0.2379 -0.3284
 2638TIP3    H129405   4.287   3.768   3.582 -0.1139  0.9902 -0.0215
 2638TIP3    H229406   4.398   3.871   3.575  0.8029 -0.0281 -0.6574
 2639TIP3   OH229407   5.636   3.533  12.763  0.0066 -0.1811 -0.0667
 2639TIP3    H129408   5.668   3.564  12.848 -0.5346 -0.0981  0.1073
 2639TIP3    H229409   5.569   3.468  12.785 -1.2516  0.9806 -0.4240
 2640TIP3   OH229410   1.744   1.728  11.680 -0.3978  0.0090 -0.1586
 2640TIP3    H129411   1.725   1.744  11.588  1.5372 -0.4566 -0.6674
 2640TIP3    H229412   1.676   1.667  11.709 -1.7471  1.1118 -0.9189
 2641TIP3   OH229413   0.575   5.134   1.413  0.0489 -0.3661 -0.0798
 2641TIP3    H129414   0.655   5.080   1.416 -0.3096 -0.9678 -1.2942
 2641TIP3    H229415   0.546   5.138   1.505  1.9028  0.5275  0.4948
 2642TIP3   OH229416   6.686   6.169   5.560  0.3695  0.5511 -0.5406
 2642TIP3    H129417   6.596   6.200   5.553 -0.1505 -0.9251 -0.4879
 2642TIP3    H229418   6.684   6.080   5.526  1.5640  0.0568  0.6086
 2643TIP3   OH229419   4.993   4.301  14.112  0.3821  0.7899 -0.3284
 2643TIP3    H129420   4.984   4.229  14.174  1.8338  1.5857  0.8419
 2643TIP3    H229421   4.924   4.363  14.137 -1.5102 -0.6041 -1.9658
 2644TIP3   OH229422   1.622   6.051   1.859  0.6603  0.4982  0.0428
 2644TIP3    H129423   1.597   6.024   1.947 -1.8458  0.5804 -0.5912
 2644TIP3    H229424   1.670   5.976   1.823  3.1850  1.1001  2.0125
 2645TIP3   OH229425   3.210   3.845  14.012 -0.4859  0.3012  0.0347
 2645TIP3    H129426   3.297   3.818  14.040 -0.7777 -1.8456 -1.0270
 2645TIP3    H229427   3.224   3.889  13.928 -0.2844  1.0699  0.4739
 2646TIP3   OH229428   6.020   4.042   4.647 -0.0363 -0.0057 -0.1148
 2646TIP3    H129429   5.954   4.077   4.587  1.1719 -3.1607 -3.4581
 2646TIP3    H229430   6.103   4.076   4.614  0.4898 -0.2212  0.9557
 2647TIP3   OH229431   6.523   0.739  15.262 -0.2443  0.0186  0.2899
 2647TIP3    H129432   6.484   0.805  15.319  1.2347  0.7631  0.4803
 2647TIP3    H229433   6.603   0.712  15.308  0.3241 -0.2633 -0.8484
 2648TIP3   OH229434   6.592   6.434   3.840 -0.3826  0.2096  0.3751
 2648TIP3    H129435   6.629   6.445   3.753 -0.6822 -0.7779  0.1201
 2648TIP3    H229436   6.652   6.373   3.884 -1.5473 -1.1786  0.0537
 2649TIP3   OH229437   0.530   5.980  10.917  0.2998  0.3518  0.8554
 2649TIP3    H129438   0.535   5.919  10.990  1.1353 -0.2540  0.3075
 2649TIP3    H229439   0.618   5.977  10.878  0.0890  1.2492  0.3069
 2650TIP3   OH229440   6.567   5.640  12.491 -0.3815 -0.7209  0.1252
 2650TIP3    H129441   6.561   5.710  12.426  0.6543 -0.8292 -0.0831
 2650TIP3    H229442   6.623   5.574  12.450  3.1416  0.6988  2.4633
 2651TIP3   OH229443   5.679   3.448  16.717  0.2427 -0.1653 -0.0671
 2651TIP3    H129444   5.771   3.422  16.708  0.6779  1.6515 -1.1466
 2651TIP3    H229445   5.665   3.457  16.811  1.8646  1.9194 -0.0054
 2652TIP3   OH229446   5.032   3.390  16.786  0.3180 -0.0823 -0.3050
 2652TIP3    H129447   5.099   3.437  16.835 -0.1299 -0.0382  0.2722
 2652TIP3    H229448   5.072   3.305  16.766  0.7297  0.1371 -0.4030
 2653TIP3   OH229449   0.674   4.965   0.466  0.0264  0.0421 -0.5147
 2653TIP3    H129450   0.681   4.935   0.557  0.5829 -1.6762 -1.0997
 2653TIP3    H229451   0.677   5.060   0.472  2.3455 -0.0828  1.0899
 2654TIP3   OH229452   3.111   1.621  15.787  0.6438 -0.2740 -0.0445
 2654TIP3    H129453   3.170   1.569  15.734 -0.1028 -1.4064  0.2173
 2654TIP3    H229454   3.118   1.709  15.751  0.6375 -0.8916 -1.5983
 2655TIP3   OH229455   5.775   3.753   1.687  0.7078 -0.0654 -0.3894
 2655TIP3    H129456   5.791   3.713   1.601  1.1095  0.7162 -0.6900
 2655TIP3    H229457   5.783   3.681   1.749  0.0813 -0.7066 -1.0357
 2656TIP3   OH229458   6.678   2.873  15.030  0.3614 -0.3487  0.7245
 2656TIP3    H129459   6.665   2.921  14.949  0.5223  0.9680  1.4659
 2656TIP3    H229460   6.593   2.831  15.047 -0.6481  1.9427  1.5202
 2657TIP3   OH229461   2.714   0.875   0.353 -0.8487 -0.1356  0.3384
 2657TIP3    H129462   2.660   0.841   0.282 -1.3569  1.4262 -0.0384
 2657TIP3    H229463   2.778   0.805   0.370 -1.1536 -0.8055 -1.1809
 2658TIP3   OH229464   3.095   1.942   4.468  0.4950  0.8839  0.0128
 2658TIP3    H129465   3.104   1.925   4.562 -2.4693 -0.6147  0.0740
 2658TIP3    H229466   3.095   1.855   4.428  2.0963  1.5181 -1.4557
 2659TIP3   OH229467   2.896   5.252   1.143  0.3045 -0.0960  0.2464
 2659TIP3    H129468   2.853   5.185   1.196  0.8505 -0.0334  0.7785
 2659TIP3    H229469   2.989   5.244   1.165  0.4230  0.5584  0.0029
 2660TIP3   OH229470   3.119   0.491  15.429  0.0292 -0.0556  0.1669
 2660TIP3    H129471   3.060   0.448  15.491  0.3960  0.0192  0.5731
 2660TIP3    H229472   3.077   0.574  15.408 -0.2232 -0.1975  0.1144
 2661TIP3   OH229473   3.999   1.439  16.643 -0.2500 -0.8215  0.5905
 2661TIP3    H129474   3.942   1.370  16.677 -0.2007 -1.0419  0.2314
 2661TIP3    H229475   3.949   1.520  16.653 -0.0654 -0.8262  1.5847
 2662TIP3   OH229476   4.147   4.044  14.799  0.1022  0.4352  0.3875
 2662TIP3    H129477   4.151   4.015  14.708  2.2970 -1.2273  0.9872
 2662TIP3    H229478   4.173   4.137  14.795 -1.1099  0.7389 -0.8233
 2663TIP3   OH229479   5.428   4.090  10.710  0.1180  0.5357  0.2251
 2663TIP3    H129480   5.496   4.131  10.656  0.2622 -0.7481 -0.5824
 2663TIP3    H229481   5.349   4.141  10.691  0.5077  1.0370 -0.0563
 2664TIP3   OH229482   3.507   2.218  14.491 -0.5997  0.0187  0.0051
 2664TIP3    H129483   3.412   2.223  14.494 -0.5478  1.5751 -0.8656
 2664TIP3    H229484   3.526   2.162  14.416 -0.8328 -0.9024  0.6240
 2665TIP3   OH229485   0.434   4.569   3.823  0.0327  0.0747  0.1964
 2665TIP3    H129486   0.414   4.501   3.888 -1.4740  0.8456  0.5543
 2665TIP3    H229487   0.375   4.641   3.845  1.6927  1.5556 -0.1164
 2666TIP3   OH229488   2.032   0.425   1.253  0.3051 -0.2846 -0.8947
 2666TIP3    H129489   2.105   0.486   1.241  0.1150  0.6702  2.3184
 2666TIP3    H229490   2.066   0.341   1.224  2.3131  0.3722 -0.5233
 2667TIP3   OH229491   0.248   6.623  14.898 -0.1424 -0.6975  0.5500
 2667TIP3    H129492   0.207   6.537  14.899 -0.9184 -0.3318  0.5755
 2667TIP3    H229493   0.177   6.684  14.918 -0.2026  0.1809 -2.0529
 2668TIP3   OH229494   5.620   0.582  16.103 -0.5293  0.1337  0.6164
 2668TIP3    H129495   5.627   0.492  16.137 -0.8789  0.5245  1.7572
 2668TIP3    H229496   5.700   0.595  16.053  0.6133 -0.0166  2.3722
 2669TIP3   OH229497   1.680   0.395   2.587 -0.6277 -0.1036 -0.2696
 2669TIP3    H129498   1.709   0.336   2.518  0.9806  2.2205 -1.6033
 2669TIP3    H229499   1.737   0.374   2.662  0.9615  0.7907 -1.2142
 2670TIP3   OH229500   4.432   3.547  15.183 -0.0968  0.5480  1.0049
 2670TIP3    H129501   4.480   3.628  15.165  0.8055 -0.2075  0.0177
 2670TIP3    H229502   4.487   3.500  15.246  0.7886 -0.5957 -0.5859
 2671TIP3   OH229503   6.002   0.367   0.780 -0.2677 -0.4518 -0.0173
 2671TIP3    H129504   5.935   0.370   0.849  0.8684  1.8228  1.0665
 2671TIP3    H229505   5.952   0.371   0.698 -1.5650 -1.5686  0.6965
 2672TIP3   OH229506   0.223   2.944   6.024 -0.1471 -0.4294 -0.1656
 2672TIP3    H129507   0.313   2.925   6.048 -0.3919 -2.8021 -1.0158
 2672TIP3    H229508   0.174   2.933   6.105  0.4143  1.5795  0.4601
 2673TIP3   OH229509   1.742   2.701  11.388  0.1086  0.1908  0.2811
 2673TIP3    H129510   1.735   2.662  11.301  0.9114  0.9490 -0.1416
 2673TIP3    H229511   1.654   2.734  11.407  0.4224  1.9970 -1.2107
 2674TIP3   OH229512   5.026   6.651   6.155  0.1981 -0.1927  0.4543
 2674TIP3    H129513   5.071   6.604   6.085 -1.0447  2.3233 -2.1837
 2674TIP3    H229514   4.968   6.587   6.195 -0.4914 -1.2740 -2.1624
 2675TIP3   OH229515   2.901   6.191  14.074  0.0304  0.0316  0.3391
 2675TIP3    H129516   2.893   6.209  13.980  1.9791  0.5991  0.2495
 2675TIP3    H229517   2.937   6.102  14.079  1.3340  0.5488  0.4842
 2676TIP3   OH229518   1.806   1.230   1.148  0.0990 -0.2847  0.3772
 2676TIP3    H129519   1.767   1.214   1.062  1.5995 -0.2572 -0.3085
 2676TIP3    H229520   1.801   1.325   1.159  0.1459 -0.2620  0.2087
 2677TIP3   OH229521   4.481   0.522   3.684  0.2714 -0.4077 -0.3554
 2677TIP3    H129522   4.424   0.446   3.696  1.6676 -1.2697  0.9013
 2677TIP3    H229523   4.517   0.511   3.596 -1.5850  0.2261 -1.2269
 2678TIP3   OH229524   6.371   3.526  15.158 -0.7755 -0.2665 -0.3147
 2678TIP3    H129525   6.352   3.462  15.090 -0.9886 -0.4593 -0.0750
 2678TIP3    H229526   6.394   3.473  15.235 -0.0013 -0.0466 -0.3863
 2679TIP3   OH229527   0.839   2.437  15.174  0.4255 -0.4082  0.3128
 2679TIP3    H129528   0.851   2.361  15.232 -0.6083  0.1911  1.3124
 2679TIP3    H229529   0.745   2.455  15.176  0.3954 -0.2813 -1.4422
 2680TIP3   OH229530   0.866   0.873  11.215 -0.5113 -0.1891  0.5086
 2680TIP3    H129531   0.774   0.846  11.210 -0.9782  1.0091  2.0831
 2680TIP3    H229532   0.873   0.946  11.153 -1.0396  0.8040  1.6078
 2681TIP3   OH229533   2.767   4.897  13.736  0.5428 -0.3653  0.1228
 2681TIP3    H129534   2.730   4.915  13.649  1.1086 -0.6330 -0.1796
 2681TIP3    H229535   2.792   4.984  13.769 -0.0181 -0.2239  0.1759
 2682TIP3   OH229536   6.119   2.977   5.147 -0.7326 -0.1209 -0.0621
 2682TIP3    H129537   6.061   2.904   5.168 -0.2252 -0.6297 -0.4048
 2682TIP3    H229538   6.207   2.942   5.161 -0.4955  0.5456  0.1490
 2683TIP3   OH229539   1.074   2.105   2.376 -0.3189  0.0985 -0.1637
 2683TIP3    H129540   1.162   2.142   2.373 -1.0059  1.8670  0.8459
 2683TIP3    H229541   1.046   2.115   2.467 -0.5628 -2.8870  0.1256
 2684TIP3   OH229542   2.251   4.456  16.665 -0.1717 -0.7167 -0.9839
 2684TIP3    H129543   2.185   4.497  16.609 -0.7947 -0.6638 -0.2025
 2684TIP3    H229544   2.251   4.364  16.638 -0.0656 -0.5779 -1.4618
 2685TIP3   OH229545   2.418   0.443   6.699  0.2908  0.2518  0.2810
 2685TIP3    H129546   2.434   0.514   6.762 -0.1503  1.2153 -0.6789
 2685TIP3    H229547   2.326   0.454   6.674 -0.0545 -1.2497  0.8330
 2686TIP3   OH229548   1.632   2.282  17.036  0.0342  0.0513 -0.2214
 2686TIP3    H129549   1.594   2.339  17.103 -0.2899 -0.4229 -0.0001
 2686TIP3    H229550   1.700   2.336  16.994 -1.2811  1.1046 -1.0255
 2687TIP3   OH229551   2.665   0.098  11.434 -0.2579 -0.0818  0.2392
 2687TIP3    H129552   2.595   0.110  11.371 -0.3153  1.6996  0.6247
 2687TIP3    H229553   2.632   0.032  11.495 -0.9860 -0.3423 -0.4400
 2688TIP3   OH229554   0.155   1.841  17.070  0.0204  0.0492 -0.5394
 2688TIP3    H129555   0.221   1.832  17.001  0.0933 -0.5445 -0.3883
 2688TIP3    H229556   0.188   1.913  17.125  0.2576  0.1279 -0.7811
 2689TIP3   OH229557   3.561   5.265  17.202  0.2787  0.1023  0.2619
 2689TIP3    H129558   3.525   5.189  17.249  0.1663 -1.0833 -1.6795
 2689TIP3    H229559   3.653   5.269  17.229  1.3387 -3.0901 -2.4165
 2690TIP3   OH229560   0.386   6.627   5.673 -0.1926 -0.0800  0.0354
 2690TIP3    H129561   0.341   6.554   5.714  0.7164 -0.5497  0.1999
 2690TIP3    H229562   0.321   6.697   5.671 -0.4883 -0.2984  1.5531
 2691TIP3   OH229563   6.404   6.631   2.137 -0.3130  0.1319 -0.2099
 2691TIP3    H129564   6.379   6.599   2.051 -0.4686 -1.0866  0.2734
 2691TIP3    H229565   6.323   6.629   2.188  0.1682 -1.1524  0.5497
 2692TIP3   OH229566   3.358   6.306  11.215  0.0454  0.4716  0.5448
 2692TIP3    H129567   3.374   6.280  11.124  1.8451  1.5196  0.5358
 2692TIP3    H229568   3.392   6.233  11.267  2.1854  1.3343  0.4337
 2693TIP3   OH229569   3.485   2.239   4.730  0.0601  0.2567 -0.5443
 2693TIP3    H129570   3.563   2.256   4.677 -0.6464 -1.3552 -2.1528
 2693TIP3    H229571   3.461   2.148   4.710 -0.8978 -0.0184  1.6911
 2694TIP3   OH229572   5.628   3.840  14.859 -0.2035 -0.7926 -0.1511
 2694TIP3    H129573   5.620   3.908  14.926 -0.2091 -2.2111  1.3245
 2694TIP3    H229574   5.677   3.882  14.788 -0.7114  0.9177  0.4860
 2695TIP3   OH229575   4.373   5.901   1.433  0.1410  0.2156 -0.2794
 2695TIP3    H129576   4.455   5.931   1.472  0.9392 -0.4594 -1.4176
 2695TIP3    H229577   4.355   5.817   1.476  2.0634 -1.5168 -2.6914
 2696TIP3   OH229578   4.310   2.258  15.350 -0.1688  0.0128 -0.0949
 2696TIP3    H129579   4.267   2.263  15.435 -1.8265  0.3190 -0.9413
 2696TIP3    H229580   4.401   2.235  15.371 -0.1762  1.5918  1.8560
 2697TIP3   OH229581   3.148   4.775   0.860  0.0127  0.3475 -0.1747
 2697TIP3    H129582   3.085   4.806   0.926  0.5962 -0.5466  0.8159
 2697TIP3    H229583   3.220   4.738   0.911  0.3389 -0.6313 -1.3179
 2698TIP3   OH229584   2.439   0.221  12.384 -0.3459  0.1362 -0.0551
 2698TIP3    H129585   2.483   0.193  12.465 -1.0512  3.1933  1.4753
 2698TIP3    H229586   2.363   0.163  12.378  0.3341 -0.8828  0.8380
 2699TIP3   OH229587   6.047   1.175   5.904 -0.3981 -0.2256 -0.8128
 2699TIP3    H129588   5.961   1.133   5.911  0.3391 -1.8076 -1.0522
 2699TIP3    H229589   6.087   1.162   5.990 -1.2429  2.4643  0.0404
 2700TIP3   OH229590   3.257   4.427  13.452  0.1785  0.1397  0.2259
 2700TIP3    H129591   3.254   4.332  13.462  1.7732 -0.2533 -2.4703
 2700TIP3    H229592   3.345   4.445  13.419  0.8977  2.8943  3.4041
 2701TIP3   OH229593   0.352   2.346   0.643 -0.4296  0.0680 -0.0856
 2701TIP3    H129594   0.312   2.371   0.560  1.4622  0.2598 -0.9837
 2701TIP3    H229595   0.367   2.429   0.688  0.3097  0.1257 -0.4203
 2702TIP3   OH229596   4.976   6.060  16.710  0.1415  0.5318 -0.3792
 2702TIP3    H129597   4.893   6.106  16.701  0.2056  0.5899 -0.6857
 2702TIP3    H229598   4.977   5.998  16.636 -0.2113 -0.3691  0.3601
 2703TIP3   OH229599   6.561   1.273   1.534 -0.2559  0.2791 -0.0496
 2703TIP3    H129600   6.651   1.247   1.512 -0.1009 -0.9703  1.9228
 2703TIP3    H229601   6.506   1.212   1.486  0.0521 -1.4095  1.6552
 2704TIP3   OH229602   0.497   2.203  11.959 -0.4896 -0.2717 -0.2903
 2704TIP3    H129603   0.474   2.261  12.032 -0.0921  1.4613 -1.4904
 2704TIP3    H229604   0.589   2.181  11.974 -0.9937 -1.6780  0.8630
 2705TIP3   OH229605   1.874   3.282   5.657  0.2260  0.2342 -0.1492
 2705TIP3    H129606   1.935   3.209   5.651  0.7664  0.6534  0.2202
 2705TIP3    H229607   1.796   3.245   5.699 -0.3606 -0.6579 -1.9661
 2706TIP3   OH229608   2.093   4.905  14.616 -0.2511 -0.7760  0.1687
 2706TIP3    H129609   2.157   4.873  14.679  0.3341 -0.5967 -0.3336
 2706TIP3    H229610   2.067   4.827  14.566  0.3628 -0.6726 -0.3256
 2707TIP3   OH229611   1.445   5.152  15.331  0.1712 -0.1374  0.0169
 2707TIP3    H129612   1.510   5.124  15.395 -0.8859  1.4312  1.8250
 2707TIP3    H229613   1.496   5.191  15.260  1.1871  2.2930  2.0215
 2708TIP3   OH229614   6.808   0.200   0.052 -0.2768 -0.4801  0.0429
 2708TIP3    H129615   6.775   0.110   0.063 -0.6228 -0.5060 -1.1273
 2708TIP3    H229616   6.793   0.241   0.137  0.3135 -1.6643  0.7395
 2709TIP3   OH229617   6.017   6.058   1.483  0.7995  0.7232  0.0366
 2709TIP3    H129618   6.081   6.096   1.422 -0.9292  3.2359 -0.2813
 2709TIP3    H229619   6.053   6.078   1.570  2.9113 -2.2529 -0.0784
 2710TIP3   OH229620   2.262   1.395   4.992 -0.2932  0.5367  0.5734
 2710TIP3    H129621   2.295   1.310   4.962  0.3728  0.5995  1.1151
 2710TIP3    H229622   2.218   1.376   5.075  0.4357  0.8240  1.0278
 2711TIP3   OH229623   6.622   5.763  15.958 -0.3501  0.0691 -0.3444
 2711TIP3    H129624   6.700   5.724  15.997 -1.1915 -0.7950  0.5089
 2711TIP3    H229625   6.550   5.710  15.992 -1.3852  1.4368 -0.3694
 2712TIP3   OH229626   4.948   3.794   0.320  0.5211  0.0580 -0.2558
 2712TIP3    H129627   4.977   3.863   0.380 -2.2805  0.7798  0.3682
 2712TIP3    H229628   4.908   3.841   0.247 -0.1506 -0.8782 -0.5009
 2713TIP3   OH229629   4.072   2.483  13.481 -0.1287  0.6127 -0.1426
 2713TIP3    H129630   4.001   2.479  13.544  1.9625 -0.0453  2.2404
 2713TIP3    H229631   4.077   2.394  13.444 -0.4371  0.6220 -0.2074
 2714TIP3   OH229632   1.544   4.929   0.569 -0.1685  0.3295 -0.1013
 2714TIP3    H129633   1.614   4.975   0.522 -1.1500  0.2197 -1.6905
 2714TIP3    H229634   1.515   4.862   0.508 -1.8009  0.4902  0.4878
 2715TIP3   OH229635   4.862   5.503  17.056 -0.1781 -0.1502 -0.0047
 2715TIP3    H129636   4.923   5.435  17.087 -0.3994  0.7190  2.4729
 2715TIP3    H229637   4.903   5.585  17.083 -1.2447  0.5653 -0.5604
 2716TIP3   OH229638   5.221   4.363   0.034  0.0436  0.3394 -0.1532
 2716TIP3    H129639   5.191   4.273   0.051  0.9084 -0.1395 -1.1053
 2716TIP3    H229640   5.144   4.406  -0.005 -0.2311 -0.1188 -0.1273
 2717TIP3   OH229641   6.610   1.349  13.409 -0.1663  0.0207 -0.1985
 2717TIP3    H129642   6.647   1.357  13.497 -0.6635 -1.3295  0.1495
 2717TIP3    H229643   6.536   1.290  13.419 -2.1332  2.2899 -0.9949
 2718TIP3   OH229644   6.238   4.209  12.896 -0.7044 -0.3949 -0.3402
 2718TIP3    H129645   6.320   4.172  12.863 -1.2735 -1.0877 -0.9914
 2718TIP3    H229646   6.182   4.133  12.913  0.0864 -0.2142  3.7195
 2719TIP3   OH229647   1.087   3.219  14.942 -0.8261  0.7467  0.1426
 2719TIP3    H129648   1.171   3.254  14.914 -0.5159 -0.4230 -0.4019
 2719TIP3    H229649   1.023   3.286  14.916 -0.1933  1.1109 -0.4766
 2720TIP3   OH229650   3.630   6.300  14.712  0.0529  0.2469 -0.5704
 2720TIP3    H129651   3.641   6.344  14.628  1.8196  0.0233 -0.4616
 2720TIP3    H229652   3.615   6.208  14.689 -1.2023  0.4712 -0.6960
 2721TIP3   OH229653   6.641   3.547   0.629  0.4341 -0.0664 -1.2225
 2721TIP3    H129654   6.601   3.461   0.616 -1.1233  0.4340  0.0335
 2721TIP3    H229655   6.604   3.577   0.712 -0.1642  2.4346 -2.3605
 2722TIP3   OH229656   4.378   5.662  12.217  0.6685  0.4219 -0.4386
 2722TIP3    H129657   4.460   5.704  12.191  0.3161  1.6914  0.4941
 2722TIP3    H229658   4.400   5.617  12.299  0.7942 -0.4249 -0.9332
 2723TIP3   OH229659   1.533   3.925   5.518 -0.3155  0.5669 -0.2693
 2723TIP3    H129660   1.474   3.925   5.442 -1.5103 -0.7373  0.6166
 2723TIP3    H229661   1.574   3.839   5.517 -0.7210  0.3442  0.8274
 2724TIP3   OH229662   2.978   5.281  16.424 -0.2956 -0.0636 -0.1517
 2724TIP3    H129663   3.004   5.369  16.396 -1.0299  0.5370  0.9944
 2724TIP3    H229664   2.999   5.225  16.350 -0.8875  1.2642 -1.3535
 2725TIP3   OH229665   0.101   4.598   0.765 -0.0578  0.6488  0.2117
 2725TIP3    H129666   0.151   4.664   0.813 -0.6952  0.4231  1.1919
 2725TIP3    H229667   0.167   4.539   0.729  0.4923  1.5384 -0.2728
 2726TIP3   OH229668   3.824   1.582  13.466 -0.2071  0.0040 -0.0491
 2726TIP3    H129669   3.767   1.648  13.506  0.8279  2.1311 -1.9825
 2726TIP3    H229670   3.771   1.543  13.397 -0.9835 -1.5607  1.4092
 2727TIP3   OH229671   2.795   3.794  12.657  0.5627 -0.2642 -0.6459
 2727TIP3    H129672   2.744   3.867  12.622 -1.9334 -2.5563 -2.0878
 2727TIP3    H229673   2.857   3.772  12.587  0.9573  0.1440 -0.4255
 2728TIP3   OH229674   3.107   5.402  13.395  0.3574  0.5176  0.3242
 2728TIP3    H129675   3.128   5.467  13.462  0.7209 -0.6535  1.3565
 2728TIP3    H229676   3.069   5.453  13.323  0.6876  1.8721  1.0991
 2729TIP3   OH229677   5.873   0.229  16.824 -0.6728  0.0867 -0.1780
 2729TIP3    H129678   5.813   0.299  16.800 -0.3563  0.4362  0.0390
 2729TIP3    H229679   5.816   0.153  16.837 -1.3413  0.9274  2.1298
 2730TIP3   OH229680   6.151   4.252  15.147  0.4678  0.0007  0.2836
 2730TIP3    H129681   6.085   4.320  15.159  1.0320  0.8498 -1.3724
 2730TIP3    H229682   6.222   4.275  15.207  0.5049  0.6702 -0.0211
 2731TIP3   OH229683   6.534   2.344   0.169  0.6190 -0.0384  0.6065
 2731TIP3    H129684   6.603   2.350   0.236  2.5055  3.8391 -1.4738
 2731TIP3    H229685   6.580   2.315   0.090  0.0933  3.2263 -0.9762
 2732TIP3   OH229686   6.576   2.482   4.487 -0.3146 -0.0781 -0.1256
 2732TIP3    H129687   6.635   2.528   4.548 -0.7800  0.2730  0.0629
 2732TIP3    H229688   6.518   2.432   4.543  0.6758 -1.5106 -0.3557
 2733TIP3   OH229689   5.186   5.614   4.835  0.1228  0.4635  0.3598
 2733TIP3    H129690   5.242   5.625   4.913 -0.7392 -0.4583  1.1216
 2733TIP3    H229691   5.147   5.700   4.822  1.9476  1.2087 -0.3667
 2734TIP3   OH229692   0.395   1.729  12.664  0.4391 -0.1691  0.6023
 2734TIP3    H129693   0.325   1.764  12.609  1.0852 -1.2848 -0.9671
 2734TIP3    H229694   0.350   1.688  12.737 -0.6527 -1.8128 -0.9357
 2735TIP3   OH229695   3.528   6.814  13.152  0.5101 -0.5120 -0.2494
 2735TIP3    H129696   3.615   6.774  13.151  1.1503  0.8472  0.8744
 2735TIP3    H229697   3.522   6.859  13.236 -0.5018  1.1216 -1.1577
 2736TIP3   OH229698   4.775   3.322   4.506 -0.4462 -0.1186 -0.5010
 2736TIP3    H129699   4.715   3.330   4.580 -1.0719  2.3351 -1.2316
 2736TIP3    H229700   4.860   3.351   4.541 -1.0303  2.3761 -1.0589
 2737TIP3   OH229701   4.313   4.090  13.964  0.4387  0.0795  0.1086
 2737TIP3    H129702   4.262   4.140  14.027 -0.5261  0.3273 -0.8536
 2737TIP3    H229703   4.325   4.005  14.006  1.6606  0.9417  1.5329
 2738TIP3   OH229704   2.904   6.765   6.396  0.0909 -0.5263 -0.5162
 2738TIP3    H129705   2.891   6.857   6.371  0.0697 -0.0888  1.0397
 2738TIP3    H229706   2.817   6.735   6.423  0.5603 -0.2435  1.3810
 2739TIP3   OH229707   4.805   6.309  12.102 -0.3003 -0.2207 -0.4123
 2739TIP3    H129708   4.843   6.392  12.133  1.0205  0.0769 -2.6753
 2739TIP3    H229709   4.716   6.332  12.076  0.1690  0.6062 -1.3589
 2740TIP3   OH229710   6.153   4.924   5.389  0.4368  0.8136  0.1884
 2740TIP3    H129711   6.084   4.990   5.388  0.5870  0.9580 -0.8571
 2740TIP3    H229712   6.106   4.841   5.398  0.1127  0.9117 -0.5213
 2741TIP3   OH229713   0.349   3.229  17.208 -0.2064  0.0202 -0.2191
 2741TIP3    H129714   0.369   3.281  17.285 -1.7580 -1.4171  1.1771
 2741TIP3    H229715   0.319   3.293  17.143  0.5449  1.1659  0.5390
 2742TIP3   OH229716   6.210   5.508   2.921  0.3353 -0.5996 -0.0336
 2742TIP3    H129717   6.222   5.541   3.010  0.4525 -0.2793 -0.1701
 2742TIP3    H229718   6.121   5.534   2.897  1.4430  2.2309 -1.2562
 2743TIP3   OH229719   1.906   0.697  12.142  0.2657  0.1136  0.4650
 2743TIP3    H129720   1.893   0.602  12.132  1.8864 -0.1115  0.2422
 2743TIP3    H229721   1.842   0.737  12.083  0.6844 -0.8937 -0.6980
 2744TIP3   OH229722   1.446   5.751  11.959 -0.1109  0.4044 -0.5335
 2744TIP3    H129723   1.465   5.827  12.013  1.4017 -0.9162  0.8424
 2744TIP3    H229724   1.379   5.781  11.898 -0.8233  2.3198  1.1495
 2745TIP3   OH229725   6.459   5.957  14.863 -0.5329 -0.0233 -0.1845
 2745TIP3    H129726   6.501   5.871  14.866  0.1222  0.3623  2.0162
 2745TIP3    H229727   6.388   5.951  14.927 -0.4381  1.1182  0.0217
 2746TIP3   OH229728   3.701   4.668   3.197  0.5161  0.0162 -0.2347
 2746TIP3    H129729   3.780   4.720   3.216  0.5023 -0.1332  0.2216
 2746TIP3    H229730   3.657   4.659   3.281 -1.1710  2.0281 -0.8805
 2747TIP3   OH229731   4.439   4.915   3.547 -0.1731 -0.1984  0.3275
 2747TIP3    H129732   4.386   4.937   3.471  0.7316  0.6312 -0.0625
 2747TIP3    H229733   4.456   4.822   3.538 -2.2576 -0.6654  0.8891
 2748TIP3   OH229734   1.428   5.342  16.526 -0.3393  0.5561  0.1103
 2748TIP3    H129735   1.466   5.375  16.445  1.8028  0.5622  1.0611
 2748TIP3    H229736   1.346   5.389  16.536 -0.4137  0.8698 -1.8227
 2749TIP3   OH229737   0.264   1.201   6.129 -0.6016  0.3330  0.1006
 2749TIP3    H129738   0.199   1.182   6.061 -1.8826  0.3519  1.3125
 2749TIP3    H229739   0.214   1.209   6.209  0.4469  4.2548  0.4571
 2750TIP3   OH229740   1.011   0.205  13.283 -0.0612  0.0175  0.2265
 2750TIP3    H129741   0.959   0.130  13.312 -1.6011  1.7372  2.0859
 2750TIP3    H229742   1.034   0.251  13.364 -0.5895  2.4701 -0.9542
 2751TIP3   OH229743   4.701   0.434   5.601  0.2933 -0.4557  0.7084
 2751TIP3    H129744   4.693   0.483   5.520 -2.1283 -0.3438  0.9819
 2751TIP3    H229745   4.708   0.501   5.669  0.2584 -0.5237  0.7797
 2752TIP3   OH229746   4.406   6.521  14.633  0.8590  0.0001 -0.1821
 2752TIP3    H129747   4.372   6.441  14.674  0.4282  0.3817  0.2249
 2752TIP3    H229748   4.330   6.580  14.632  0.1234 -0.8941 -3.9321
 2753TIP3   OH229749   0.350   1.312  15.703  0.1409  0.4872  0.5983
 2753TIP3    H129750   0.287   1.384  15.697 -0.7623 -0.3586 -0.2768
 2753TIP3    H229751   0.297   1.233  15.696  1.0212 -0.2935  2.4081
 2754TIP3   OH229752   2.963   4.476   3.770  0.0375 -0.0621 -0.5399
 2754TIP3    H129753   2.870   4.498   3.769 -0.1181 -0.7532 -2.2808
 2754TIP3    H229754   2.970   4.409   3.838 -1.3126 -2.3241 -2.5545
 2755TIP3   OH229755   0.175   0.374  10.915  0.2240  0.5689  0.4270
 2755TIP3    H129756   0.244   0.438  10.929 -1.3295  2.8290 -1.7922
 2755TIP3    H229757   0.094   0.423  10.931 -0.9423 -1.3037  0.3796
 2756TIP3   OH229758   2.965   5.900  13.117 -0.9946 -0.2196 -0.0412
 2756TIP3    H129759   2.880   5.938  13.093 -0.8975 -0.1581 -0.2848
 2756TIP3    H229760   3.002   5.962  13.180 -2.0554 -1.2959  1.6723
 2757TIP3   OH229761   0.911   0.333   2.723 -0.0497  0.8661  0.1407
 2757TIP3    H129762   0.816   0.346   2.728  0.0830  1.7023  0.5956
 2757TIP3    H229763   0.942   0.348   2.812  0.6210  1.5174 -0.2011
 2758TIP3   OH229764   5.680   5.481   2.603  0.2220 -0.6462 -0.3644
 2758TIP3    H129765   5.681   5.474   2.698  0.6687 -2.4150 -0.4834
 2758TIP3    H229766   5.684   5.575   2.586 -1.7867 -0.2011  1.3810
 2759TIP3   OH229767   2.020   5.445   4.966  0.4100  0.3523  0.2796
 2759TIP3    H129768   1.951   5.429   4.901  0.0730 -2.4386  1.2759
 2759TIP3    H229769   2.074   5.514   4.927 -0.3565 -0.5735 -2.5116
 2760TIP3   OH229770   2.298   0.075  14.963 -0.1658 -0.2575 -0.2094
 2760TIP3    H129771   2.347   0.157  14.962  1.3402 -1.1434 -0.1650
 2760TIP3    H229772   2.211   0.099  14.995  0.8104  1.0179  1.5801
 2761TIP3   OH229773   5.139   5.935   1.783 -0.4755 -0.3115  0.3076
 2761TIP3    H129774   5.160   5.980   1.865 -1.4766  1.0985 -0.2034
 2761TIP3    H229775   5.219   5.885   1.763 -0.1302 -0.4734  1.9927
 2762TIP3   OH229776   0.410   2.316  15.615 -0.1648 -0.3432 -0.5039
 2762TIP3    H129777   0.431   2.308  15.522 -0.5692  0.6139 -0.6903
 2762TIP3    H229778   0.402   2.410  15.629  3.4162 -0.2458  1.2995
 2763TIP3   OH229779   2.449   1.993   0.963 -0.0761 -0.0809  0.3707
 2763TIP3    H129780   2.360   1.966   0.985 -0.2074  0.4552  0.4955
 2763TIP3    H229781   2.458   1.971   0.870 -0.2499 -0.3698  0.4209
 2764TIP3   OH229782   6.272   4.894  12.803 -0.4481 -0.3612  0.0994
 2764TIP3    H129783   6.216   4.879  12.727 -2.5885  0.7050  1.4111
 2764TIP3    H229784   6.246   4.827  12.866  0.0114 -0.1068  0.5655
 2765TIP3   OH229785   1.808   3.045  11.824  0.5376 -0.0055 -0.4874
 2765TIP3    H129786   1.883   3.033  11.766  0.7309  1.1782 -0.5037
 2765TIP3    H229787   1.819   2.980  11.893  0.4483 -1.2367 -1.6366
 2766TIP3   OH229788   1.117   3.608  10.652  0.3728  0.3628 -0.1694
 2766TIP3    H129789   1.075   3.650  10.577  1.7735  0.3713 -0.9760
 2766TIP3    H229790   1.045   3.567  10.700 -0.3675 -1.0379 -2.4006
 2767TIP3   OH229791   4.624   5.035  14.182  0.2835  0.6161 -0.0071
 2767TIP3    H129792   4.629   4.961  14.121  0.7001 -0.9287  1.8592
 2767TIP3    H229793   4.575   5.002  14.257 -2.2200  3.1809 -0.4053
 2768TIP3   OH229794   1.312   1.735   2.541 -0.3588  0.1031 -0.1358
 2768TIP3    H129795   1.375   1.749   2.470  1.7603  1.4055  1.9245
 2768TIP3    H229796   1.330   1.646   2.571  2.3843  1.3402  2.1361
 2769TIP3   OH229797   1.808   1.696  11.053  0.5495 -0.0304  0.4285
 2769TIP3    H129798   1.871   1.676  11.122  0.7844  1.5373  0.6793
 2769TIP3    H229799   1.855   1.753  10.992 -0.7467  1.6308  0.9124
 2770TIP3   OH229800   6.274   3.442   0.022  0.3873 -0.6290  0.1254
 2770TIP3    H129801   6.226   3.430   0.104  1.1063 -1.4940  0.4308
 2770TIP3    H229802   6.207   3.466  -0.042 -0.6095 -2.6862  0.3547
 2771TIP3   OH229803   1.612   2.990  14.578  0.8730  0.2935  0.1009
 2771TIP3    H129804   1.655   2.921  14.629 -0.9418  0.3189  1.7137
 2771TIP3    H229805   1.669   3.067  14.590  1.4555 -0.1957  0.5526
 2772TIP3   OH229806   3.397   4.953   3.751  0.5458  0.6463 -0.5957
 2772TIP3    H129807   3.350   4.888   3.697  0.8263  0.3217 -0.4512
 2772TIP3    H229808   3.448   4.900   3.813 -0.3054  1.0278  0.4397
 2773TIP3   OH229809   3.447   5.344   1.505  0.0461 -0.4231  0.8162
 2773TIP3    H129810   3.381   5.294   1.553  0.5939 -0.1369  1.8890
 2773TIP3    H229811   3.401   5.377   1.428 -0.4957 -1.9751  0.4696
 2774TIP3   OH229812   4.320   0.100   3.364 -0.0965  0.7251  0.2077
 2774TIP3    H129813   4.365   0.140   3.289 -0.4966 -0.5969 -0.7459
 2774TIP3    H229814   4.315   0.171   3.428  0.3084  1.8652 -0.9801
 2775TIP3   OH229815   1.756   5.045  16.914 -0.0348 -0.0996 -0.0164
 2775TIP3    H129816   1.722   5.122  16.868 -1.0113  0.2652  1.2778
 2775TIP3    H229817   1.822   5.080  16.973 -0.2299 -0.2923  0.3179
 2776TIP3   OH229818   1.647   1.422  16.683  0.3981  0.4702  0.0542
 2776TIP3    H129819   1.690   1.508  16.687 -1.1718  1.2841 -0.1755
 2776TIP3    H229820   1.562   1.435  16.725 -0.4988 -0.5515 -1.3606
 2777TIP3   OH229821   6.261   0.483  16.749  0.2490  0.2812 -0.4003
 2777TIP3    H129822   6.211   0.497  16.668 -0.8781 -1.7011 -0.0642
 2777TIP3    H229823   6.229   0.552  16.808 -3.5313 -2.0154  0.4270
 2778TIP3   OH229824   2.662   0.815  14.523  0.4937 -0.0337 -0.0759
 2778TIP3    H129825   2.745   0.794  14.566 -0.3463  0.6764  1.9361
 2778TIP3    H229826   2.597   0.759  14.566 -0.7660  2.3622  1.2592
 2779TIP3   OH229827   0.156   3.175   1.960  0.3310  0.6228  0.7140
 2779TIP3    H129828   0.072   3.220   1.968  1.1686  2.2555  0.3610
 2779TIP3    H229829   0.143   3.113   1.888 -1.6379 -1.6033  2.8765
 2780TIP3   OH229830   1.923   0.085  13.946  0.4462 -0.6666 -0.0160
 2780TIP3    H129831   1.868   0.127  14.011 -1.6116 -1.8994 -0.9183
 2780TIP3    H229832   1.933  -0.005  13.978 -0.1219 -1.1232 -1.1060
 2781TIP3   OH229833   3.575   2.889  11.303  0.3958  0.3242 -0.2886
 2781TIP3    H129834   3.626   2.920  11.378  1.9988 -0.9120 -0.8517
 2781TIP3    H229835   3.502   2.951  11.297  0.8581  1.0826  1.6066
 2782TIP3   OH229836   6.342   5.282   1.300  0.1435  0.0304 -0.0337
 2782TIP3    H129837   6.269   5.305   1.243  0.7049 -0.4555 -0.9745
 2782TIP3    H229838   6.410   5.346   1.277 -0.0617  0.6149  0.9862
 2783TIP3   OH229839   5.735   6.357   3.585 -0.4076  0.0710  0.7399
 2783TIP3    H129840   5.715   6.269   3.554 -0.5550  0.3891 -0.0798
 2783TIP3    H229841   5.653   6.389   3.622 -0.1657 -0.4058  1.7083
 2784TIP3   OH229842   0.738   6.122   2.862  0.0809  0.1510 -0.3895
 2784TIP3    H129843   0.721   6.046   2.918 -0.1422  0.3673 -0.1699
 2784TIP3    H229844   0.669   6.119   2.796 -0.5615  0.7832  0.2519
 2785TIP3   OH229845   4.140   3.655   0.929  0.3140  0.4262  0.5572
 2785TIP3    H129846   4.222   3.635   0.973  0.3633 -0.2866  0.1473
 2785TIP3    H229847   4.077   3.669   1.000  0.6736  0.4838  0.8656
 2786TIP3   OH229848   0.191   0.070  16.753 -0.0526  0.0297 -0.0362
 2786TIP3    H129849   0.220  -0.001  16.810  0.7308  2.4385  2.7153
 2786TIP3    H229850   0.269   0.094  16.703 -0.7094 -2.0083 -2.0950
 2787TIP3   OH229851   3.504   2.979   4.342  0.0125 -0.2558 -0.4225
 2787TIP3    H129852   3.528   2.901   4.392 -1.3310  0.5482  1.5174
 2787TIP3    H229853   3.425   2.954   4.294  0.6462 -0.6515 -1.2940
 2788TIP3   OH229854   4.310   6.777   1.166  0.4727 -0.1948  0.0526
 2788TIP3    H129855   4.235   6.761   1.224  1.4697 -0.3833  1.3022
 2788TIP3    H229856   4.370   6.705   1.183 -0.1447 -1.4701 -2.8099
 2789TIP3   OH229857   0.151   4.497   1.260 -0.0584  0.1063 -0.1334
 2789TIP3    H129858   0.149   4.482   1.165 -0.0377  0.7746 -0.2424
 2789TIP3    H229859   0.218   4.564   1.272 -0.1112  0.0738  0.3510
 2790TIP3   OH229860   2.810   2.641   5.867 -0.2379  0.3713 -0.2440
 2790TIP3    H129861   2.783   2.604   5.952  2.1899 -0.7220  0.0847
 2790TIP3    H229862   2.866   2.715   5.890 -0.6341  0.8756 -0.9039
 2791TIP3   OH229863   5.675   5.307   5.023  0.1040  0.0650  0.1123
 2791TIP3    H129864   5.749   5.326   5.081  0.7472  2.1730 -1.3447
 2791TIP3    H229865   5.716   5.286   4.939 -0.8554 -1.9435  0.1181
 2792TIP3   OH229866   0.980   1.003  11.442 -0.5111  0.0630 -0.0468
 2792TIP3    H129867   0.917   0.964  11.382  0.2249 -0.8159 -0.2510
 2792TIP3    H229868   1.027   0.929  11.480 -0.7018  0.6426  1.3159
 2793TIP3   OH229869   1.378   2.065   3.523  0.0824 -0.5785 -0.1508
 2793TIP3    H129870   1.386   2.093   3.431 -0.3203 -1.0842 -0.3424
 2793TIP3    H229871   1.312   2.124   3.559  1.1483  0.4490  0.1562
 2794TIP3   OH229872   6.539   5.249   3.494 -0.7518 -0.1184 -0.8772
 2794TIP3    H129873   6.541   5.341   3.465  0.3296  1.0120  2.5663
 2794TIP3    H229874   6.548   5.199   3.413 -0.1701  2.8206 -2.7365
 2795TIP3   OH229875   6.451   3.374  11.937  0.5628 -0.3156 -0.2220
 2795TIP3    H129876   6.508   3.451  11.942 -0.0576  0.3443 -2.4791
 2795TIP3    H229877   6.479   3.329  11.857 -0.9193 -0.9298 -0.4098
 2796TIP3   OH229878   3.619   2.228   1.726  0.1936 -0.0015 -0.2612
 2796TIP3    H129879   3.557   2.292   1.691 -1.0198 -0.4249  1.0696
 2796TIP3    H229880   3.683   2.216   1.656 -0.4639  1.4581 -1.1392
 2797TIP3   OH229881   3.707   4.203   1.475 -0.4187 -0.0058 -0.1336
 2797TIP3    H129882   3.644   4.132   1.462 -2.3421  1.1228  2.4229
 2797TIP3    H229883   3.652   4.282   1.482  1.2507  1.0111  2.1199
 2798TIP3   OH229884   5.874   5.559   6.102  0.3723 -0.1525  0.7431
 2798TIP3    H129885   5.886   5.464   6.092  0.4022 -0.0124 -0.7238
 2798TIP3    H229886   5.963   5.592   6.118  0.4059 -0.3406  0.9482
 2799TIP3   OH229887   4.741   3.564  11.090  0.2246  0.2589  0.4223
 2799TIP3    H129888   4.742   3.637  11.153  2.3584  1.4956 -0.9509
 2799TIP3    H229889   4.790   3.598  11.015 -0.6340 -1.8679 -1.1316
 2800TIP3   OH229890   0.712   4.134   1.417  0.3620  0.3486  0.1419
 2800TIP3    H129891   0.681   4.215   1.458  0.8386  0.6562 -0.0929
 2800TIP3    H229892   0.728   4.075   1.490  0.2281  0.5451  0.3323
 2801TIP3   OH229893   6.185   0.275   4.385  0.7160  0.2619  0.1941
 2801TIP3    H129894   6.213   0.250   4.474 -0.6148 -0.8922  0.3057
 2801TIP3    H229895   6.249   0.234   4.327  0.0336 -1.2556  0.5057
 2802TIP3   OH229896   1.722   4.372   2.217 -0.4490  0.6458 -0.5665
 2802TIP3    H129897   1.764   4.455   2.238  0.3392  0.0361  0.3049
 2802TIP3    H229898   1.766   4.308   2.273 -1.6214 -0.2217 -0.6137
 2803TIP3   OH229899   5.533   0.947   1.743  0.6159 -0.3435 -0.4863
 2803TIP3    H129900   5.515   0.853   1.750  1.1950 -0.5305 -1.4931
 2803TIP3    H229901   5.447   0.988   1.750  0.4236 -0.8956  0.6785
 2804TIP3   OH229902   6.049   2.165   1.614  0.0813  0.4696  0.2038
 2804TIP3    H129903   5.973   2.209   1.650  0.2380 -0.7697  2.0911
 2804TIP3    H229904   6.027   2.152   1.521 -0.4391  3.4058 -0.1303
 2805TIP3   OH229905   2.635   6.709   5.677  0.1534 -0.4311  0.0069
 2805TIP3    H129906   2.664   6.632   5.628 -1.1174  0.9476 -3.0915
 2805TIP3    H229907   2.710   6.733   5.731  1.9758 -1.5534 -1.9397
 2806TIP3   OH229908   6.452   1.120  13.077 -0.5503  0.4253  0.0352
 2806TIP3    H129909   6.372   1.143  13.125 -1.0195  1.5485 -1.2775
 2806TIP3    H229910   6.495   1.204  13.060 -0.3670  0.0339 -1.4812
 2807TIP3   OH229911   0.880   0.270   0.372  0.0242 -0.0119 -0.0447
 2807TIP3    H129912   0.814   0.335   0.349 -1.7795 -2.0921 -0.9377
 2807TIP3    H229913   0.868   0.256   0.466  0.6313  1.1549  0.2127
 2808TIP3   OH229914   0.894   3.116   2.699  0.0600 -0.2131  0.2205
 2808TIP3    H129915   0.933   3.074   2.622 -0.1931 -0.1515  0.0574
 2808TIP3    H229916   0.801   3.092   2.694 -0.1267  0.5472  0.0039
 2809TIP3   OH229917   0.141   0.416  16.907  0.3313  1.0628 -0.3221
 2809TIP3    H129918   0.156   0.361  16.983 -2.3072  0.1769 -0.3966
 2809TIP3    H229919   0.213   0.396  16.848  0.8693 -0.2974  0.7802
 2810TIP3   OH229920   5.613   4.348   1.665  0.3456  0.1934 -0.3166
 2810TIP3    H129921   5.526   4.325   1.633 -0.4407  1.8312  0.5511
 2810TIP3    H229922   5.666   4.270   1.650 -1.1072 -0.5943 -1.4624
 2811TIP3   OH229923   0.883   6.818   2.994 -0.7123  0.1014  0.0172
 2811TIP3    H129924   0.857   6.909   2.983  0.0212  0.3441  0.2516
 2811TIP3    H229925   0.925   6.816   3.080  0.3727 -0.2028 -0.5131
 2812TIP3   OH229926   5.976   6.510   2.111  0.0711  0.3742 -0.5091
 2812TIP3    H129927   5.921   6.582   2.078 -0.2709  0.6770  0.7153
 2812TIP3    H229928   6.004   6.539   2.197  1.5359 -0.1292 -0.8070
 2813TIP3   OH229929   0.186   2.185  13.829 -0.2180 -0.0511  0.1668
 2813TIP3    H129930   0.099   2.156  13.803  0.2836 -0.1636 -1.4216
 2813TIP3    H229931   0.244   2.155  13.759  0.6552  2.7435 -0.3730
 2814TIP3   OH229932   0.340   3.145   5.846  0.4015  0.2325  0.4647
 2814TIP3    H129933   0.284   3.109   5.914 -0.9552 -2.0406 -1.7360
 2814TIP3    H229934   0.404   3.075   5.828 -0.9239 -0.3188 -2.3733
 2815TIP3   OH229935   6.528   5.649  14.314  1.0012  0.5763  0.2726
 2815TIP3    H129936   6.489   5.597  14.384  1.9746 -0.9338 -0.2543
 2815TIP3    H229937   6.474   5.629  14.237  1.7893 -0.2282 -0.0859
 2816TIP3   OH229938   4.782   0.970  13.774  0.4187 -0.1881 -0.0830
 2816TIP3    H129939   4.875   0.967  13.752  0.2071 -0.9334 -0.9231
 2816TIP3    H229940   4.737   0.959  13.690 -0.4187 -1.0134  0.4584
 2817TIP3   OH229941   0.425   3.682   2.142 -0.0175  0.2234  0.8298
 2817TIP3    H129942   0.400   3.721   2.058  3.6661 -0.1623 -0.5340
 2817TIP3    H229943   0.492   3.740   2.177  1.7687 -2.0142  1.2887
 2818TIP3   OH229944   3.039   3.293   2.982 -0.1561  0.4642 -0.3543
 2818TIP3    H129945   2.972   3.294   3.051 -0.1038  0.1176 -0.2960
 2818TIP3    H229946   2.993   3.323   2.904 -0.9011 -1.6142 -0.7668
 2819TIP3   OH229947   0.034   3.745   2.674 -0.0283 -0.3542 -0.2414
 2819TIP3    H129948   0.082   3.698   2.606  0.0822 -0.0907 -0.3460
 2819TIP3    H229949  -0.054   3.754   2.639  0.7603  2.4410 -1.6835
 2820TIP3   OH229950   6.389   1.174   6.006 -0.2107  0.1066 -0.1401
 2820TIP3    H129951   6.362   1.265   6.021 -1.4714 -0.0786 -1.1568
 2820TIP3    H229952   6.439   1.177   5.924  1.3670  0.1633  0.8082
 2821TIP3   OH229953   6.157   1.791   4.318  0.6492 -0.2992 -0.1112
 2821TIP3    H129954   6.135   1.759   4.230  0.9403  1.3066 -0.7844
 2821TIP3    H229955   6.145   1.715   4.375 -0.6384 -1.0559 -1.3724
 2822TIP3   OH229956   4.821   3.303   2.811  0.0159  0.5748  0.0829
 2822TIP3    H129957   4.887   3.255   2.862  0.3839  1.9321  0.9301
 2822TIP3    H229958   4.871   3.357   2.751 -0.3861  0.0909 -0.6921
 2823TIP3   OH229959   3.960   2.044   3.900 -0.2905  0.4620 -0.2688
 2823TIP3    H129960   3.982   1.951   3.905  1.0395  0.7697 -0.1538
 2823TIP3    H229961   3.904   2.052   3.822 -0.4576 -0.4405 -0.2400
 2824TIP3   OH229962   5.857   3.522   4.860 -0.3213 -0.4674 -0.0397
 2824TIP3    H129963   5.809   3.466   4.799  1.1573 -0.3503 -1.3318
 2824TIP3    H229964   5.865   3.606   4.815 -0.4486  0.0611  0.9081
 2825TIP3   OH229965   6.452   2.069   3.464 -0.1552  0.3365  0.1012
 2825TIP3    H129966   6.482   2.128   3.395  1.5352  1.5726  1.8531
 2825TIP3    H229967   6.461   1.982   3.426  0.7530  1.0002 -1.2513
 2826TIP3   OH229968   0.241   3.040   4.681  0.3365  0.7673  0.6576
 2826TIP3    H129969   0.278   2.996   4.757  0.8504 -0.4746 -0.2946
 2826TIP3    H229970   0.159   2.993   4.664  0.1855  1.0890  0.4865
 2827TIP3   OH229971   4.418   5.747   5.100  0.1373 -0.2359 -0.2235
 2827TIP3    H129972   4.442   5.718   5.188 -2.3270  0.3207  0.6716
 2827TIP3    H229973   4.469   5.827   5.087 -0.4169  0.3794  1.2251
 2828TIP3   OH229974   1.988   6.693  14.126  0.2920  0.3863 -0.4066
 2828TIP3    H129975   2.081   6.706  14.109  0.6191 -1.3169  0.0051
 2828TIP3    H229976   1.979   6.700  14.221 -0.2374  1.9604 -0.5694
 2829TIP3   OH229977   5.429   5.002   4.673 -0.2918 -0.0852  0.1507
 2829TIP3    H129978   5.426   4.975   4.582  1.0795  1.5740 -0.4083
 2829TIP3    H229979   5.445   4.921   4.721 -0.2987 -0.8651 -1.1490
 2830TIP3   OH229980   0.246   0.797   5.256 -0.3846 -0.4291  0.3087
 2830TIP3    H129981   0.200   0.717   5.282 -1.4652  0.3214  0.7646
 2830TIP3    H229982   0.273   0.837   5.338  0.2996 -0.4111  0.0740
 2831TIP3   OH229983   6.255   6.604   5.123 -0.0461  0.6252 -0.2444
 2831TIP3    H129984   6.199   6.616   5.046  1.0355  2.7816 -0.7111
 2831TIP3    H229985   6.224   6.669   5.186  0.6415  0.4786  0.2413
 2832TIP3   OH229986   4.950   3.363   3.399 -0.0529 -0.0973  0.5363
 2832TIP3    H129987   4.952   3.443   3.452  1.2925  0.8487 -0.9007
 2832TIP3    H229988   4.865   3.366   3.355 -0.2641  0.2282  0.9612
 2833TIP3   OH229989   0.699   6.500   4.081  0.5600  0.2872  0.1249
 2833TIP3    H129990   0.765   6.464   4.023  0.0172  0.5486 -0.6669
 2833TIP3    H229991   0.748   6.545   4.150  1.2127 -0.5644  0.2231
 2834TIP3   OH229992   4.731   0.815   6.087 -0.0213 -0.4653  0.1315
 2834TIP3    H129993   4.740   0.894   6.034  1.2111 -0.3023  0.5674
 2834TIP3    H229994   4.817   0.804   6.129  0.3282 -2.9044 -1.1257
 2835TIP3   OH229995   5.771   0.828  16.431 -0.2560  0.8437  0.0307
 2835TIP3    H129996   5.709   0.764  16.397  0.4734  0.9004 -1.4128
 2835TIP3    H229997   5.722   0.875  16.499 -1.0101 -0.7675  0.6251
 2836TIP3   OH229998   1.546   1.611  15.900 -0.0419 -0.0981  0.1240
 2836TIP3    H129999   1.615   1.645  15.843 -1.2515 -1.5104 -2.2669
 2836TIP3    H230000   1.464   1.631  15.854 -1.0751 -1.0905  1.4717
 2837TIP3   OH230001   4.501   4.583  15.604 -0.5070 -0.6111 -0.2000
 2837TIP3    H130002   4.499   4.566  15.698  0.2214  0.3723  0.0057
 2837TIP3    H230003   4.577   4.639  15.592 -1.1220  0.0075 -1.2442
 2838TIP3   OH230004   1.874   5.543   1.686 -0.4321  0.1070  0.4058
 2838TIP3    H130005   1.888   5.576   1.774  1.2438  3.9508 -1.2141
 2838TIP3    H230006   1.960   5.548   1.644 -1.1982 -1.6350 -1.4864
 2839TIP3   OH230007   4.810   3.282   3.137  0.0671  0.6201  0.0511
 2839TIP3    H130008   4.763   3.360   3.108 -1.2729 -0.4500 -0.6970
 2839TIP3    H230009   4.896   3.288   3.095  0.3521  2.1872  0.8073
 2840TIP3   OH230010   6.172   4.773   2.657  0.1461 -0.5969 -0.1259
 2840TIP3    H130011   6.191   4.756   2.565 -1.5594 -0.8960 -0.4384
 2840TIP3    H230012   6.168   4.868   2.664 -0.0774 -0.5852 -0.4273
 2841TIP3   OH230013   0.514   6.630  15.302  0.0854 -0.5650 -0.7305
 2841TIP3    H130014   0.589   6.577  15.278  0.1050  0.8706 -4.1170
 2841TIP3    H230015   0.456   6.570  15.349  2.3497 -2.2354 -0.0063
 2842TIP3   OH230016   3.614   1.976  11.952 -0.3188  0.1359 -1.0929
 2842TIP3    H130017   3.613   2.018  12.038  1.2402 -1.4609 -0.2671
 2842TIP3    H230018   3.664   2.036  11.897  2.6120 -0.9184  0.2880
 2843TIP3   OH230019   4.245   1.113   2.682  0.5579 -0.1808 -0.1342
 2843TIP3    H130020   4.221   1.087   2.593 -0.5389  1.5723 -0.3761
 2843TIP3    H230021   4.267   1.206   2.675  1.2325 -0.2121  1.2964
 2844TIP3   OH230022   1.396   0.189   4.173 -0.4192 -0.3787 -0.1282
 2844TIP3    H130023   1.443   0.200   4.091  0.4817 -0.3011  0.3913
 2844TIP3    H230024   1.365   0.098   4.172 -2.4874  0.3051 -1.6224
 2845TIP3   OH230025   6.166   3.319   5.559 -0.4766 -0.4195 -0.6558
 2845TIP3    H130026   6.248   3.271   5.545  0.4606  1.1328 -0.6250
 2845TIP3    H230027   6.154   3.369   5.478  0.0517  1.4381  0.3869
 2846TIP3   OH230028   4.168   2.011   6.166  0.1294 -0.3044  0.0663
 2846TIP3    H130029   4.219   1.975   6.238 -0.0928 -1.3126 -0.2759
 2846TIP3    H230030   4.082   2.029   6.204  0.8258  1.7717  0.7473
 2847TIP3   OH230031   0.846   0.478  16.011 -0.0631 -0.1603  0.2034
 2847TIP3    H130032   0.909   0.427  15.960 -1.1500  0.4636 -1.8351
 2847TIP3    H230033   0.872   0.569  15.997 -0.8432  0.0539  0.1133
 2848TIP3   OH230034   5.096   2.990   4.863 -0.1929 -0.5635 -0.4598
 2848TIP3    H130035   5.032   2.940   4.812  0.7454 -0.7263 -1.4921
 2848TIP3    H230036   5.070   3.081   4.851 -2.5043 -0.8180  2.2328
 2849TIP3   OH230037   1.718   4.753   0.179 -0.3183  0.1507  0.1761
 2849TIP3    H130038   1.781   4.704   0.232 -0.3381  0.8997  0.8946
 2849TIP3    H230039   1.738   4.728   0.089  1.6808  1.1839  0.3218
 2850TIP3   OH230040   5.245   6.552  10.843  0.0377  0.3376  0.1247
 2850TIP3    H130041   5.165   6.580  10.800  0.1724  1.6793  0.6959
 2850TIP3    H230042   5.256   6.461  10.818 -1.7255  0.1069  0.1280
 2851TIP3   OH230043   3.357   0.225  16.651 -0.2051 -0.0322  0.5257
 2851TIP3    H130044   3.399   0.238  16.736  0.8731  2.6889 -0.3412
 2851TIP3    H230045   3.276   0.275  16.656  0.1420  0.6279 -0.2043
 2852TIP3   OH230046   0.595   3.595   1.590  0.0045 -0.2987 -0.8108
 2852TIP3    H130047   0.604   3.589   1.686 -1.1646 -2.1691 -0.8067
 2852TIP3    H230048   0.511   3.639   1.576 -0.0165 -0.3960 -0.9874
 2853TIP3   OH230049   5.702   4.356   0.554  0.4070 -0.1955 -0.0145
 2853TIP3    H130050   5.699   4.264   0.582 -2.0236 -0.1503 -0.0663
 2853TIP3    H230051   5.630   4.398   0.599  0.5881  1.3815 -1.1379
 2854TIP3   OH230052   6.634   4.545   3.512 -0.5031 -0.9947  0.1535
 2854TIP3    H130053   6.591   4.630   3.523 -0.7579 -1.2295  0.9399
 2854TIP3    H230054   6.575   4.482   3.553 -1.2811 -1.8297 -2.1356
 2855TIP3   OH230055   2.193   0.515  11.869  0.5147  0.2731 -0.1729
 2855TIP3    H130056   2.140   0.590  11.896  0.5859  0.8045 -1.4709
 2855TIP3    H230057   2.197   0.459  11.947 -2.8612 -0.3271 -0.3474
 2856TIP3   OH230058   0.047   4.765  13.863  0.1131 -1.1163  0.2811
 2856TIP3    H130059   0.006   4.834  13.915  0.3554  1.9509 -3.4068
 2856TIP3    H230060   0.136   4.758  13.899 -0.2193 -0.2300  1.2977
 2857TIP3   OH230061   5.016   3.793   5.527  0.4499  0.1628 -0.2887
 2857TIP3    H130062   5.011   3.888   5.514 -2.2207  0.4177  2.1477
 2857TIP3    H230063   5.027   3.783   5.621 -1.4227 -2.0043 -0.2802
 2858TIP3   OH230064   1.173   4.247   0.672 -0.2442  0.1664 -0.3602
 2858TIP3    H130065   1.085   4.221   0.646 -0.7459  1.4997 -0.0241
 2858TIP3    H230066   1.177   4.341   0.653  1.6292 -0.1858 -1.8470
 2859TIP3   OH230067   4.645   4.182  11.705 -0.6081  0.2707  0.1364
 2859TIP3    H130068   4.717   4.141  11.754 -1.2025 -0.4658  0.4056
 2859TIP3    H230069   4.662   4.276  11.711 -0.0078  0.1313  0.7247
 2860TIP3   OH230070   1.138   6.342   3.728 -0.5336  0.3778  0.4909
 2860TIP3    H130071   1.221   6.346   3.776 -0.5009  1.0536  0.3801
 2860TIP3    H230072   1.079   6.297   3.788  0.1641 -0.9498  0.1948
 2861TIP3   OH230073   6.134   2.844  14.256 -0.0469  0.9229 -0.1159
 2861TIP3    H130074   6.226   2.847  14.283 -1.3042  3.3140  4.5158
 2861TIP3    H230075   6.108   2.753  14.267  1.1860  0.6768  0.8910
 2862TIP3   OH230076   4.799   3.419   5.163 -0.4394 -0.1050  0.3888
 2862TIP3    H130077   4.739   3.352   5.130  1.0790 -1.7673  0.8835
 2862TIP3    H230078   4.788   3.493   5.104 -2.0093 -0.8628 -0.3009
 2863TIP3   OH230079   3.229   1.115   5.816 -0.0110  0.3568  0.1186
 2863TIP3    H130080   3.281   1.168   5.876 -2.3035  3.1896 -0.2722
 2863TIP3    H230081   3.287   1.098   5.742  1.5289  0.2307  1.3223
 2864TIP3   OH230082   3.230   2.152   2.859 -0.0307  0.0513  0.2172
 2864TIP3    H130083   3.307   2.173   2.808  0.4486 -2.9841 -0.3893
 2864TIP3    H230084   3.263   2.139   2.948 -0.4194  2.3219  0.7250
 2865TIP3   OH230085   6.189   3.852  16.065 -0.2201  0.3030 -0.2204
 2865TIP3    H130086   6.154   3.940  16.067  1.6156  1.2185 -3.6107
 2865TIP3    H230087   6.264   3.857  16.006 -1.0638 -3.8512 -1.8788
 2866TIP3   OH230088   4.599   1.842  12.499 -0.2696  0.2975 -0.0826
 2866TIP3    H130089   4.658   1.881  12.434 -0.5742  2.0128  0.6352
 2866TIP3    H230090   4.516   1.833  12.454 -0.2383  0.6349 -0.2087
 2867TIP3   OH230091   5.264   0.131  12.733 -0.1595  0.3766 -0.2145
 2867TIP3    H130092   5.294   0.042  12.753  0.8024  0.7315 -0.0833
 2867TIP3    H230093   5.181   0.139  12.781 -0.0730 -0.3246  0.0611
 2868TIP3   OH230094   4.898   4.022   3.928 -0.4952  0.8772 -0.5133
 2868TIP3    H130095   4.903   4.060   3.840  0.6281  0.9428 -0.4306
 2868TIP3    H230096   4.805   4.021   3.948 -0.6424  2.3073 -1.0806
 2869TIP3   OH230097   3.433   6.290  13.489 -0.1425 -0.0508  0.5331
 2869TIP3    H130098   3.350   6.325  13.524  0.5080  1.5290  0.5346
 2869TIP3    H230099   3.416   6.278  13.396 -0.8184 -1.1118  0.7718
 2870TIP3   OH230100   1.702   6.143  15.404 -0.2427  0.1368 -0.3680
 2870TIP3    H130101   1.725   6.082  15.474 -1.6755  0.6198  0.5289
 2870TIP3    H230102   1.712   6.230  15.443 -1.9667  0.3936 -0.4554
 2871TIP3   OH230103   2.293   1.895   4.251  0.1218  0.1017 -0.8756
 2871TIP3    H130104   2.264   1.930   4.167 -0.5086  0.5768 -0.4566
 2871TIP3    H230105   2.332   1.970   4.297 -0.7658  0.1453 -0.1872
 2872TIP3   OH230106   1.111   6.594  11.532  0.3516  0.1345  0.4999
 2872TIP3    H130107   1.121   6.689  11.534  0.5425  0.2063 -2.0678
 2872TIP3    H230108   1.032   6.579  11.481  0.5435 -1.0943  0.5349
 2873TIP3   OH230109   2.876   5.016  11.564 -0.2928  0.2618  0.0696
 2873TIP3    H130110   2.861   5.110  11.552 -0.2922  0.1039 -1.2467
 2873TIP3    H230111   2.850   4.977  11.481  1.2733 -0.7252  0.0174
 2874TIP3   OH230112   1.051   6.059   0.491 -0.7018 -0.3282  0.6692
 2874TIP3    H130113   1.053   6.087   0.583 -2.1393  2.8538 -0.1720
 2874TIP3    H230114   1.013   6.134   0.445  0.9809 -1.4441 -2.6771
 2875TIP3   OH230115   0.951   2.731  12.354  0.5638  0.3779  0.4642
 2875TIP3    H130116   0.927   2.792  12.284  0.2305 -1.1148 -0.7500
 2875TIP3    H230117   1.005   2.665  12.311  2.0196  0.5180  2.0294
 2876TIP3   OH230118   4.169   0.044   6.398 -0.1347  0.7336  0.0432
 2876TIP3    H130119   4.098   0.090   6.442 -0.3306  2.0160 -1.5773
 2876TIP3    H230120   4.219   0.004   6.469 -1.3267  1.4646  1.3230
 2877TIP3   OH230121   1.703   3.275   5.379 -0.4473 -0.0929 -0.7517
 2877TIP3    H130122   1.775   3.219   5.348  0.5311  1.3959 -1.1955
 2877TIP3    H230123   1.745   3.338   5.438 -1.7994 -0.8565  1.0916
 2878TIP3   OH230124   5.505   1.155   4.551  0.2821 -0.4662 -0.2659
 2878TIP3    H130125   5.446   1.229   4.538  0.0846 -0.8539 -1.6752
 2878TIP3    H230126   5.451   1.078   4.534  0.3721 -0.9663  1.6351
 2879TIP3   OH230127   0.119   5.543   5.824  0.5056  0.3264 -0.0334
 2879TIP3    H130128   0.173   5.534   5.902 -0.7680 -0.5443  0.7546
 2879TIP3    H230129   0.075   5.459   5.815 -1.4796  1.3546 -0.1187
 2880TIP3   OH230130   2.852   1.487  12.231  0.1054  0.1352 -0.0959
 2880TIP3    H130131   2.815   1.564  12.186  0.7469  0.1327 -0.6338
 2880TIP3    H230132   2.883   1.521  12.315 -1.5675  0.0426  0.5761
 2881TIP3   OH230133   1.340   4.283   2.043 -0.0155 -0.0927 -0.2268
 2881TIP3    H130134   1.397   4.357   2.063  1.8997 -1.4161 -0.6885
 2881TIP3    H230135   1.257   4.305   2.085  0.4124  2.4597 -0.6435
 2882TIP3   OH230136   0.654   2.837   1.314 -0.2952  0.7836  0.1118
 2882TIP3    H130137   0.695   2.887   1.385 -0.5348  4.2718 -2.0940
 2882TIP3    H230138   0.560   2.845   1.331 -0.3199  0.6300  0.0426
 2883TIP3   OH230139   0.567   2.444   0.229  0.1888 -0.7578 -0.5497
 2883TIP3    H130140   0.545   2.368   0.282 -1.5745  0.6385  0.7778
 2883TIP3    H230141   0.612   2.503   0.290  2.8157 -1.2756 -1.9019
 2884TIP3   OH230142   3.371   5.526   3.456 -0.0118 -0.6138  0.1128
 2884TIP3    H130143   3.292   5.562   3.495  0.0139  1.6047 -1.7741
 2884TIP3    H230144   3.346   5.505   3.366  1.6121  0.4324 -0.6178
 2885TIP3   OH230145   2.583   4.133   3.394 -0.6309 -0.0593 -0.2850
 2885TIP3    H130146   2.604   4.136   3.301 -0.1571 -0.1189 -0.1785
 2885TIP3    H230147   2.656   4.086   3.434 -0.4545  0.6355  0.2241
 2886TIP3   OH230148   6.588   5.093   1.043  0.4683 -0.2484  0.0389
 2886TIP3    H130149   6.664   5.117   1.097  0.0371  0.6765  0.2317
 2886TIP3    H230150   6.611   5.007   1.007  2.0400  0.4534 -0.6860
 2887TIP3   OH230151   0.373   2.725  15.829 -0.7866  0.3122  0.0257
 2887TIP3    H130152   0.366   2.820  15.833 -1.8378  0.2057  1.2105
 2887TIP3    H230153   0.373   2.697  15.921  2.6519 -0.6385 -0.1968
 2888TIP3   OH230154   6.328   6.238   3.332  0.1982  0.2225  0.2261
 2888TIP3    H130155   6.298   6.324   3.301  0.3860  0.2453  0.1018
 2888TIP3    H230156   6.310   6.179   3.259 -1.9249 -0.2681  1.1221
 2889TIP3   OH230157   4.185   5.987  14.172 -0.2561 -0.3167  0.0331
 2889TIP3    H130158   4.130   6.062  14.195 -0.9074 -0.4016 -1.2315
 2889TIP3    H230159   4.246   6.021  14.106  0.5188 -0.4919  0.6505
 2890TIP3   OH230160   3.666   2.145  15.743 -0.0037 -0.3498 -0.3503
 2890TIP3    H130161   3.755   2.110  15.741  0.1623 -0.1477  2.4598
 2890TIP3    H230162   3.677   2.239  15.735 -0.0967 -0.4508 -1.8201
 2891TIP3   OH230163   0.350   0.262  14.029  0.1733  0.0161  0.1751
 2891TIP3    H130164   0.282   0.205  13.995 -1.5206  2.0393  0.1024
 2891TIP3    H230165   0.330   0.348  13.993  2.6997  0.6923  0.2612
 2892TIP3   OH230166   6.695   5.186   6.175 -1.0708  0.3057  0.5695
 2892TIP3    H130167   6.702   5.254   6.109 -3.5448  1.1459  1.0973
 2892TIP3    H230168   6.706   5.104   6.127  2.1616  1.0230 -0.0313
 2893TIP3   OH230169   0.469   5.431   5.900 -0.7105  0.2534 -0.6622
 2893TIP3    H130170   0.528   5.410   5.973  0.4538  2.6725 -0.8657
 2893TIP3    H230171   0.393   5.471   5.942 -1.7420 -1.8491 -0.4906
 2894TIP3   OH230172   2.219   4.664  12.852 -0.1389  0.4284 -0.8103
 2894TIP3    H130173   2.166   4.605  12.905  0.4381  1.1942  0.6568
 2894TIP3    H230174   2.242   4.613  12.775 -0.9751 -0.7141 -0.3206
 2895TIP3   OH230175   5.933   4.182   4.894  0.0982 -0.2920 -0.4230
 2895TIP3    H130176   5.994   4.200   4.966 -0.7789 -0.3269  0.3364
 2895TIP3    H230177   5.983   4.130   4.832  1.3531  1.0585 -0.5812
 2896TIP3   OH230178   5.857   3.857  11.487  0.4549 -0.3050  0.1008
 2896TIP3    H130179   5.789   3.925  11.484 -0.6357 -1.2536  2.2956
 2896TIP3    H230180   5.808   3.775  11.485  1.6210 -1.0075  0.3451
 2897TIP3   OH230181   0.952   6.478   3.281  0.1731 -0.1293 -0.3076
 2897TIP3    H130182   1.009   6.446   3.211 -0.6255 -0.3048 -0.8884
 2897TIP3    H230183   0.962   6.413   3.351 -0.0683 -0.6913 -0.7916
 2898TIP3   OH230184   0.623   2.864  16.983 -0.7990  0.7131 -0.0626
 2898TIP3    H130185   0.597   2.812  17.060  0.7763  0.3205  0.2165
 2898TIP3    H230186   0.718   2.862  16.984 -0.7593  0.9428 -1.8842
 2899TIP3   OH230187   5.853   1.940   4.069 -0.2514  0.3346  0.0446
 2899TIP3    H130188   5.783   2.002   4.047 -0.2277  0.5688  0.6192
 2899TIP3    H230189   5.824   1.899   4.150 -1.5443 -2.3521 -1.7152
 2900TIP3   OH230190   6.112   4.918  14.006 -0.5782 -0.0952  0.1919
 2900TIP3    H130191   6.039   4.857  14.018 -0.2421 -0.7208 -0.8474
 2900TIP3    H230192   6.079   4.985  13.947 -0.5333 -0.0061  0.2691
 2901TIP3   OH230193   2.619   6.674   3.428  0.3212  0.1489  0.2478
 2901TIP3    H130194   2.630   6.583   3.457  0.7948 -0.1134 -0.7297
 2901TIP3    H230195   2.645   6.673   3.336 -1.5648  0.8841 -0.3139
 2902TIP3   OH230196   6.096   6.244  14.758 -0.3875  0.1469  0.6067
 2902TIP3    H130197   6.132   6.186  14.825 -1.8083 -0.3687  0.9532
 2902TIP3    H230198   6.103   6.194  14.676  0.5691  0.4454  0.4935
 2903TIP3   OH230199   4.054   3.215   4.722 -0.0641  0.3022 -0.0770
 2903TIP3    H130200   4.096   3.298   4.742  0.7500  0.2906 -1.6743
 2903TIP3    H230201   4.076   3.198   4.630  0.9196 -2.3326  0.6111
 2904TIP3   OH230202   1.968   5.634   1.960  0.0745  0.2000  0.5463
 2904TIP3    H130203   1.982   5.600   2.048  0.2502 -0.7812  0.1369
 2904TIP3    H230204   2.012   5.719   1.961 -3.0257  1.8943  2.5411
 2905TIP3   OH230205   1.052   4.781  12.082  0.0848 -0.3791  0.6306
 2905TIP3    H130206   1.108   4.723  12.132 -1.2930 -1.4171  0.9985
 2905TIP3    H230207   0.967   4.776  12.126 -0.4422  0.7420 -0.2359
 2906TIP3   OH230208   1.035   0.274  12.506 -0.5815  0.0807  0.0373
 2906TIP3    H130209   1.022   0.180  12.496 -3.1097  0.3754  0.3034
 2906TIP3    H230210   1.005   0.294  12.595 -0.9247  1.2738 -0.3291
 2907TIP3   OH230211   5.681   3.779  15.274 -0.3608  0.0005 -0.0018
 2907TIP3    H130212   5.769   3.748  15.255 -0.4901 -0.4531  0.1495
 2907TIP3    H230213   5.628   3.700  15.280 -0.0096 -0.0617  3.8800
 2908TIP3   OH230214   1.314   1.260   2.415  0.3911 -0.7786 -0.3204
 2908TIP3    H130215   1.279   1.172   2.398  1.6767 -1.3953  0.1495
 2908TIP3    H230216   1.328   1.262   2.510  0.4366 -0.0929 -0.3434
 2909TIP3   OH230217   2.776   4.545  14.170 -0.0823 -0.7258  0.5445
 2909TIP3    H130218   2.763   4.592  14.251 -0.8735 -0.6724  0.3854
 2909TIP3    H230219   2.695   4.495  14.157 -0.8124  0.8727 -1.2756
 2910TIP3   OH230220   2.966   6.410   4.733  0.3561 -0.2203 -0.1096
 2910TIP3    H130221   2.956   6.389   4.640 -2.3266  0.4043 -0.0010
 2910TIP3    H230222   2.964   6.506   4.736 -0.2752 -0.2597  0.6759
 2911TIP3   OH230223   3.589   1.440   3.904  0.0859 -0.4007 -0.6548
 2911TIP3    H130224   3.658   1.388   3.862  0.0416 -0.7358 -0.3164
 2911TIP3    H230225   3.613   1.530   3.885  0.8359 -0.4989 -0.2270
 2912TIP3   OH230226   2.961   2.877   5.971  0.1296  0.2742  0.3046
 2912TIP3    H130227   2.872   2.897   6.001 -0.7034 -0.5297 -1.5601
 2912TIP3    H230228   3.014   2.879   6.051 -1.6787  0.0367  1.5486
 2913TIP3   OH230229   2.275   1.768   2.378 -0.2950  0.4145  0.7459
 2913TIP3    H130230   2.250   1.755   2.469  1.1627  1.5595  1.3212
 2913TIP3    H230231   2.223   1.843   2.349 -0.2096  0.5223  0.8697
 2914TIP3   OH230232   5.171   3.228  15.022 -0.3106  0.4134 -0.4965
 2914TIP3    H130233   5.121   3.146  15.021 -1.9544  1.3908 -1.3272
 2914TIP3    H230234   5.255   3.205  14.983 -0.3921 -1.0902  0.1632
 2915TIP3   OH230235   4.254   5.654   2.709 -0.0858  0.0835  0.4688
 2915TIP3    H130236   4.273   5.621   2.621 -2.0469  2.0802 -0.7566
 2915TIP3    H230237   4.304   5.735   2.715 -1.2220  0.7854  0.5598
 2916TIP3   OH230238   1.501   6.681   1.926 -0.1755 -0.2854  0.1153
 2916TIP3    H130239   1.518   6.587   1.923 -1.3850 -0.4700 -1.8747
 2916TIP3    H230240   1.466   6.702   1.839 -0.8695  1.8236  0.8679
 2917TIP3   OH230241   3.671   6.037   4.298 -0.1951  0.0252 -0.1948
 2917TIP3    H130242   3.594   5.994   4.261 -0.9362 -0.1074  1.4546
 2917TIP3    H230243   3.730   6.049   4.224 -0.5691 -2.5421 -0.9416
 2918TIP3   OH230244   5.829   5.143  15.905  0.7060  0.9940 -0.6038
 2918TIP3    H130245   5.921   5.120  15.889  1.7265  2.6295  2.5544
 2918TIP3    H230246   5.791   5.065  15.943  1.2374  0.8880 -0.2893
 2919TIP3   OH230247   4.373   3.529  13.236  0.6169 -0.3310 -0.9754
 2919TIP3    H130248   4.291   3.562  13.200  0.5077  1.6529  0.9731
 2919TIP3    H230249   4.349   3.492  13.321  2.0728  2.6873  0.8311
 2920TIP3   OH230250   2.559   1.506  13.937  0.0982  0.4176  0.1520
 2920TIP3    H130251   2.539   1.597  13.955 -1.7153  0.0351  0.2541
 2920TIP3    H230252   2.548   1.497  13.842  2.1958  0.7336 -0.1348
 2921TIP3   OH230253   4.389   2.020   1.901  0.9290  0.1800 -0.1248
 2921TIP3    H130254   4.390   2.101   1.850 -1.3760 -0.0156 -0.5382
 2921TIP3    H230255   4.416   1.952   1.839 -0.1408  0.1946 -0.6055
 2922TIP3   OH230256   4.712   3.749  16.122  0.3826  0.1933  0.3072
 2922TIP3    H130257   4.634   3.778  16.074  0.5871 -0.5758 -0.5119
 2922TIP3    H230258   4.679   3.683  16.183  0.3355  0.0947  0.1769
 2923TIP3   OH230259   2.162   1.450  13.721  0.7528  0.3815 -0.1482
 2923TIP3    H130260   2.251   1.425  13.696  0.6167 -0.2796  0.0180
 2923TIP3    H230261   2.174   1.524  13.781  1.2653 -0.6057  0.9940
 2924TIP3   OH230262   5.376   0.056   0.696 -0.1783 -0.5086 -0.0021
 2924TIP3    H130263   5.326  -0.023   0.720  0.2454 -0.1054  2.3510
 2924TIP3    H230264   5.317   0.105   0.639 -1.4102 -1.3625  0.5104
 2925TIP3   OH230265   2.899   4.009   3.889  0.3887 -0.1048 -0.1402
 2925TIP3    H130266   2.975   3.953   3.871  0.8651  0.7921 -0.9529
 2925TIP3    H230267   2.848   3.959   3.953  2.1312 -0.3043  1.1324
 2926TIP3   OH230268   1.597   2.135   2.274  0.0685  0.0483 -0.4948
 2926TIP3    H130269   1.527   2.160   2.213  0.7020 -0.3150 -1.3877
 2926TIP3    H230270   1.617   2.044   2.251 -0.1165 -0.3029  0.6867
 2927TIP3   OH230271   4.004   6.115   4.803 -0.1449  0.1971  0.0715
 2927TIP3    H130272   4.089   6.085   4.835 -0.2425  0.5674  0.6827
 2927TIP3    H230273   3.976   6.047   4.742  0.1602 -0.4022  0.5880
 2928TIP3   OH230274   4.370   4.505  13.287 -0.2476 -0.1001 -0.3484
 2928TIP3    H130275   4.283   4.539  13.265 -0.6697 -0.7764  0.2680
 2928TIP3    H230276   4.365   4.412  13.268 -0.0578 -0.3699  0.8707
 2929TIP3   OH230277   5.339   4.307   4.958 -0.1275 -0.3208 -0.2872
 2929TIP3    H130278   5.391   4.383   4.985 -0.2740 -0.5250  0.5728
 2929TIP3    H230279   5.251   4.326   4.991 -0.5828 -0.0183 -1.6608
 2930TIP3   OH230280   4.107   4.756   1.732  0.3084  0.0898 -0.1158
 2930TIP3    H130281   4.151   4.780   1.813 -0.3227 -1.6174  0.7367
 2930TIP3    H230282   4.175   4.716   1.678  0.4701  0.2125 -0.0013
 2931TIP3   OH230283   6.224   2.555  11.261 -0.0882 -0.1359 -0.0753
 2931TIP3    H130284   6.186   2.539  11.175 -0.7805  1.4964 -0.0947
 2931TIP3    H230285   6.318   2.554  11.247 -0.1655 -1.2967 -0.5742
 2932TIP3   OH230286   1.716   1.093  15.623 -0.0461 -0.1478 -0.2849
 2932TIP3    H130287   1.735   1.048  15.541 -1.3290 -0.9267 -0.1665
 2932TIP3    H230288   1.623   1.075  15.639 -0.0334  0.7638  0.8658
 2933TIP3   OH230289   0.515   1.406  11.270  0.2451  0.2254 -0.3395
 2933TIP3    H130290   0.608   1.423  11.289 -0.1272  2.3605 -0.3142
 2933TIP3    H230291   0.514   1.376  11.180  1.0157 -0.3311 -0.1703
 2934TIP3   OH230292   5.761   3.762   0.423  0.2608 -0.0594 -0.3194
 2934TIP3    H130293   5.800   3.829   0.367 -1.3296  0.0779 -1.3011
 2934TIP3    H230294   5.722   3.811   0.495  0.0462  0.0027 -0.4734
 2935TIP3   OH230295   2.553   3.399  13.621  0.2591  0.4674 -0.0127
 2935TIP3    H130296   2.506   3.350  13.554  0.6369 -0.1569  0.1795
 2935TIP3    H230297   2.607   3.334  13.666  1.6287  1.2346 -0.5024
 2936TIP3   OH230298   1.804   4.501  14.501  0.0881  0.1070 -0.7508
 2936TIP3    H130299   1.822   4.503  14.407 -2.0522 -1.5230 -1.2208
 2936TIP3    H230300   1.869   4.440  14.537 -0.1281 -0.5200 -1.4190
 2937TIP3   OH230301   1.611   0.615  12.646 -0.9480 -0.0425  0.0216
 2937TIP3    H130302   1.630   0.565  12.725  1.4145 -0.5341 -0.8357
 2937TIP3    H230303   1.592   0.704  12.678  1.1133  0.0393  1.0575
 2938TIP3   OH230304   1.056   2.918   3.928 -0.4065 -0.8889 -0.0525
 2938TIP3    H130305   1.075   2.825   3.917  0.5287 -0.8241  0.8589
 2938TIP3    H230306   1.141   2.961   3.918 -0.4725 -0.3364  1.5984
 2939TIP3   OH230307   6.819   4.763  12.356 -0.3243 -0.1235 -0.2470
 2939TIP3    H130308   6.727   4.758  12.330 -0.0174 -0.3414 -1.3386
 2939TIP3    H230309   6.846   4.672  12.365 -0.3286 -0.0557  0.5326
 2940TIP3   OH230310   1.292   6.380   5.303 -0.5068  0.4598 -0.2408
 2940TIP3    H130311   1.336   6.369   5.219 -0.1926  1.6503 -0.2472
 2940TIP3    H230312   1.342   6.449   5.347 -1.2888  0.5648  0.4932
 2941TIP3   OH230313   6.732   4.628  15.808  0.0655 -0.5852  0.1889
 2941TIP3    H130314   6.668   4.604  15.876 -0.4610 -0.9815 -0.4316
 2941TIP3    H230315   6.687   4.608  15.726  0.4722  0.4589 -0.2924
 2942TIP3   OH230316   4.232   6.774  17.025  0.4794  0.0409  0.2366
 2942TIP3    H130317   4.232   6.692  16.976 -0.9370 -1.1032  2.0870
 2942TIP3    H230318   4.278   6.754  17.106 -2.6508  0.1620  2.1109
 2943TIP3   OH230319   1.879   4.286  16.531  0.2998  0.1898  0.0302
 2943TIP3    H130320   1.805   4.227  16.528  0.0478  0.4863  0.4280
 2943TIP3    H230321   1.925   4.265  16.612  1.0283 -0.4441 -0.5372
 2944TIP3   OH230322   3.689   5.837   0.523 -0.1717  0.2074  0.3222
 2944TIP3    H130323   3.616   5.788   0.487 -2.1098  0.9518  3.0698
 2944TIP3    H230324   3.652   5.921   0.549  1.1855 -0.0184  3.2923
 2945TIP3   OH230325   5.566   6.808  17.274 -0.5005 -0.6561  0.8713
 2945TIP3    H130326   5.499   6.830  17.209  1.0316 -0.3649 -0.6468
 2945TIP3    H230327   5.564   6.712  17.279 -0.6471 -0.6760  0.4288
 2946TIP3   OH230328   6.508   2.255  10.816  0.5871  0.2933  0.1189
 2946TIP3    H130329   6.584   2.203  10.790  1.6116  1.3555  0.8876
 2946TIP3    H230330   6.536   2.346  10.801 -0.1537  0.7430  1.3771
 2947TIP3   OH230331   3.605   3.700   2.801  0.1170  0.0237 -0.3006
 2947TIP3    H130332   3.562   3.620   2.830 -3.2899  1.4198 -1.2538
 2947TIP3    H230333   3.561   3.722   2.719  1.7573  2.3100 -0.6154
 2948TIP3   OH230334   5.918   4.683   4.488  0.4345  0.6164 -0.0359
 2948TIP3    H130335   5.865   4.607   4.466 -1.1969  2.1089 -1.3689
 2948TIP3    H230336   6.008   4.656   4.468 -0.0115 -1.2286  0.3233
 2949TIP3   OH230337   2.570   4.247   4.157 -0.1184 -0.3873 -0.6207
 2949TIP3    H130338   2.532   4.261   4.071 -2.0026 -1.1425  0.0534
 2949TIP3    H230339   2.505   4.283   4.218  2.0319  1.8766  0.4223
 2950TIP3   OH230340   6.725   1.396   0.282  0.3082 -0.0221  0.1727
 2950TIP3    H130341   6.814   1.370   0.260  0.5985  1.3142 -0.2733
 2950TIP3    H230342   6.731   1.430   0.372  0.0701 -0.7917  0.4825
 2951TIP3   OH230343   1.932   3.122  15.455 -0.1485 -0.0586  0.3340
 2951TIP3    H130344   1.939   3.200  15.511  0.7713  0.0334  0.0946
 2951TIP3    H230345   1.851   3.080  15.484 -1.0151  1.3337  0.0275
 2952TIP3   OH230346   5.292   6.330  12.987  0.1713 -0.2169 -0.4505
 2952TIP3    H130347   5.236   6.282  13.048 -1.0989  0.5059 -1.0341
 2952TIP3    H230348   5.292   6.420  13.020  1.0570 -0.2333 -0.4041
 2953TIP3   OH230349   4.695   1.708   4.023  0.4895 -0.0998  0.2726
 2953TIP3    H130350   4.622   1.655   4.055  0.2344  1.0880  1.7011
 2953TIP3    H230351   4.684   1.708   3.928 -0.8222 -0.7204  0.4077
 2954TIP3   OH230352   5.222   4.905   0.659 -0.6154  0.3930  0.6278
 2954TIP3    H130353   5.261   4.818   0.650  1.8455  1.5211  0.0256
 2954TIP3    H230354   5.290   4.958   0.702 -1.7796  2.2294  0.2645
 2955TIP3   OH230355   1.430   1.194  17.167 -0.3074  0.3646  0.4701
 2955TIP3    H130356   1.459   1.267  17.112  0.9960 -0.3803  0.1493
 2955TIP3    H230357   1.383   1.136  17.106 -0.7690  0.6136  0.5864
 2956TIP3   OH230358   0.180   1.811  11.860  0.3757  0.2728 -0.3903
 2956TIP3    H130359   0.243   1.740  11.853 -0.6949 -0.4388 -3.3346
 2956TIP3    H230360   0.231   1.890  11.839  0.3831 -0.2662 -2.4836
 2957TIP3   OH230361   4.509   2.226   5.517 -0.5054 -0.1010  0.3285
 2957TIP3    H130362   4.588   2.236   5.463  0.1424  0.4817  1.3785
 2957TIP3    H230363   4.441   2.199   5.455  0.0740  1.2038 -0.9068
 2958TIP3   OH230364   2.562   5.949  10.872 -0.4783 -0.6823  0.1125
 2958TIP3    H130365   2.554   5.856  10.893  0.2088 -1.0318 -1.1143
 2958TIP3    H230366   2.651   5.972  10.900  0.3077 -1.0605 -1.9581
 2959TIP3   OH230367   6.305   1.023   4.973 -0.5084  0.7089  0.0265
 2959TIP3    H130368   6.293   1.108   4.932 -1.7010  0.1836 -0.7596
 2959TIP3    H230369   6.246   0.965   4.925 -0.9286 -0.2106  1.6133
 2960TIP3   OH230370   3.476   0.789   6.079  0.4566 -0.0884  0.3825
 2960TIP3    H130371   3.436   0.864   6.122 -3.2636 -1.7173  0.0046
 2960TIP3    H230372   3.468   0.808   5.985  3.0615  0.7509  0.3017
 2961TIP3   OH230373   5.646   0.220   1.660  0.4285 -0.7704  0.5754
 2961TIP3    H130374   5.670   0.243   1.571  2.2283 -2.3045  0.6594
 2961TIP3    H230375   5.601   0.136   1.653  1.1970 -1.2437  1.1752
 2962TIP3   OH230376   3.361   4.155  12.638 -0.2543 -0.0588  0.2372
 2962TIP3    H130377   3.373   4.177  12.730 -1.5472  1.4066  0.0780
 2962TIP3    H230378   3.389   4.233  12.590 -0.4596 -0.4717 -0.5716
 2963TIP3   OH230379   3.717   0.775  16.029  0.4977 -0.1248 -0.8356
 2963TIP3    H130380   3.707   0.741  16.118  0.4422 -3.7665 -2.1704
 2963TIP3    H230381   3.627   0.781  15.996  0.5039  1.4102 -0.6171
 2964TIP3   OH230382   0.590   2.835   0.090 -0.6519 -0.3277  0.1348
 2964TIP3    H130383   0.534   2.891   0.037 -0.9040 -0.4161  0.3058
 2964TIP3    H230384   0.674   2.880   0.092 -0.8890  0.1033  0.3705
 2965TIP3   OH230385   3.421   1.025  13.307 -0.1557 -0.4101 -0.8162
 2965TIP3    H130386   3.468   0.944  13.285  1.1305  0.0094  0.3013
 2965TIP3    H230387   3.463   1.055  13.387 -1.2187  0.9029 -0.7465
 2966TIP3   OH230388   3.455   2.824   0.421  0.1023  0.1215 -0.7870
 2966TIP3    H130389   3.496   2.862   0.499 -1.7563  0.5585 -0.0153
 2966TIP3    H230390   3.436   2.899   0.365 -1.1451  0.0760 -0.4241
 2967TIP3   OH230391   6.031   2.472  15.659  0.0135  0.0745  0.3780
 2967TIP3    H130392   5.952   2.428  15.692  0.7774 -0.5679  1.3519
 2967TIP3    H230393   6.102   2.410  15.677  0.8902  1.1056  0.4624
 2968TIP3   OH230394   3.857   2.846  16.034 -0.1657 -0.4995 -0.0866
 2968TIP3    H130395   3.766   2.873  16.048  0.1552  1.0339 -0.8498
 2968TIP3    H230396   3.876   2.787  16.106 -1.8682 -1.0927 -0.0993
 2969TIP3   OH230397   4.000   1.538  11.252  0.5895 -0.0473  0.0910
 2969TIP3    H130398   3.922   1.539  11.307  0.8804  0.6716  0.4938
 2969TIP3    H230399   4.065   1.492  11.304  0.9293  0.8203  0.4413
 2970TIP3   OH230400   4.525   3.718   4.278  0.0264  0.2758  0.1481
 2970TIP3    H130401   4.440   3.692   4.244  0.1655  2.6947 -2.2574
 2970TIP3    H230402   4.586   3.701   4.205  1.1269  1.2033  0.8346
 2971TIP3   OH230403   6.169   2.355   2.945 -0.2000  0.6760 -0.1917
 2971TIP3    H130404   6.227   2.328   2.873 -2.0833 -2.0363 -0.7611
 2971TIP3    H230405   6.207   2.313   3.023 -0.6991 -0.0968 -0.3620
 2972TIP3   OH230406   1.461   3.690   4.130 -0.3014  0.1341 -0.0431
 2972TIP3    H130407   1.385   3.717   4.080  1.0681 -0.2899 -2.4208
 2972TIP3    H230408   1.536   3.726   4.082  1.0092  1.0363  2.5395
 2973TIP3   OH230409   1.581   4.213  11.666  0.2883  0.2442  0.1650
 2973TIP3    H130410   1.559   4.126  11.632  1.1540 -0.0924  0.4478
 2973TIP3    H230411   1.677   4.212  11.676  0.3521  1.3829 -0.2474
 2974TIP3   OH230412   1.402   4.477   4.339 -0.3057 -0.0460  0.2762
 2974TIP3    H130413   1.469   4.419   4.374  2.0080  2.9986  1.0735
 2974TIP3    H230414   1.419   4.478   4.244  0.9985  0.9621  0.5113
 2975TIP3   OH230415   4.783   0.220   3.520 -0.0563  0.1541 -0.0527
 2975TIP3    H130416   4.741   0.260   3.595 -1.1559  0.6075 -0.8925
 2975TIP3    H230417   4.877   0.223   3.540 -0.3754 -0.3712  1.5949
 2976TIP3   OH230418   2.778   6.542  12.449 -0.4324 -0.3787 -0.2257
 2976TIP3    H130419   2.788   6.559  12.542 -1.0082 -0.0482 -0.2192
 2976TIP3    H230420   2.840   6.602  12.406 -0.4474 -0.2529 -0.0707
 2977TIP3   OH230421   0.232   2.213  10.617 -0.5455 -0.2590 -0.1989
 2977TIP3    H130422   0.170   2.177  10.681 -1.8480  1.1538 -0.6145
 2977TIP3    H230423   0.179   2.273  10.564  1.2301  1.1237 -0.4526
 2978TIP3   OH230424   5.630   4.071   3.552 -0.0747 -0.3356 -0.0004
 2978TIP3    H130425   5.715   4.089   3.512  0.5698  0.6632  1.7612
 2978TIP3    H230426   5.631   3.977   3.569  0.6183 -0.3533 -0.1272
 2979TIP3   OH230427   3.287   4.272  17.174 -0.5808  0.0016  0.7477
 2979TIP3    H130428   3.266   4.189  17.216 -0.1923  0.3387  1.6228
 2979TIP3    H230429   3.354   4.250  17.109  0.1635 -0.2378  1.5841
 2980TIP3   OH230430   3.863   6.290  13.566 -0.2973  0.3703  0.0519
 2980TIP3    H130431   3.846   6.208  13.613 -0.5763  0.6815  0.4918
 2980TIP3    H230432   3.948   6.319  13.598 -0.4151  0.5011  0.2400
 2981TIP3   OH230433   4.919   4.398   5.575  0.3956  0.2120 -0.3956
 2981TIP3    H130434   4.928   4.372   5.666  0.9347  1.0943 -0.1851
 2981TIP3    H230435   4.923   4.315   5.526  0.6516 -0.2216  0.3425
 2982TIP3   OH230436   0.989   5.810   0.596  0.0217 -0.8600 -0.4965
 2982TIP3    H130437   1.034   5.893   0.582  0.9529 -1.2406  0.1436
 2982TIP3    H230438   0.931   5.825   0.671 -1.2188 -0.2556 -1.5681
 2983TIP3   OH230439   5.627   4.186  15.346  0.0882  0.5283  0.1347
 2983TIP3    H130440   5.710   4.150  15.315 -0.7710 -1.9028  0.5688
 2983TIP3    H230441   5.593   4.235  15.271  0.5401 -0.8931 -1.0227
 2984TIP3   OH230442   4.852   5.477  11.168 -0.4400  0.0127  0.4142
 2984TIP3    H130443   4.823   5.390  11.139 -0.8465 -0.4041  1.9945
 2984TIP3    H230444   4.924   5.500  11.109  1.1901 -2.3878  1.4041
 2985TIP3   OH230445   1.064   0.980   3.317  0.1701 -0.5415 -0.2715
 2985TIP3    H130446   1.060   1.032   3.397 -1.9585  0.7366 -1.1552
 2985TIP3    H230447   1.151   0.940   3.318  1.2911  1.8576  1.1750
 2986TIP3   OH230448   1.276   4.351   4.944  0.0604 -0.0794  0.1636
 2986TIP3    H130449   1.263   4.402   4.865 -2.5771  0.9728  1.2254
 2986TIP3    H230450   1.297   4.263   4.913  0.4234  0.6394 -1.6694
 2987TIP3   OH230451   0.024   4.540   2.723 -0.4984 -0.2589 -0.1233
 2987TIP3    H130452   0.008   4.634   2.735 -0.8441 -0.3313 -0.0239
 2987TIP3    H230453   0.118   4.534   2.702 -0.3124  0.0365  0.6103
 2988TIP3   OH230454   6.091   0.560  14.314 -0.4185  0.4106 -0.3342
 2988TIP3    H130455   6.008   0.587  14.353  0.3786  1.3711  0.7318
 2988TIP3    H230456   6.140   0.521  14.387  0.0493 -0.1996 -0.9689
 2989TIP3   OH230457   4.880   1.492   3.128 -0.2964  0.6238  0.7184
 2989TIP3    H130458   4.788   1.482   3.154 -1.3296  1.9850 -2.1849
 2989TIP3    H230459   4.899   1.584   3.145  0.0523  0.7058 -0.0937
 2990TIP3   OH230460   6.731   1.302  15.406  0.0812  0.0793 -0.1744
 2990TIP3    H130461   6.683   1.248  15.343  2.0495 -1.4622 -0.4346
 2990TIP3    H230462   6.792   1.353  15.352 -0.5464  1.2442  0.2168
 2991TIP3   OH230463   6.334   6.047  12.574 -0.3257  0.2243  0.3725
 2991TIP3    H130464   6.398   6.018  12.639 -0.7972 -1.4169  0.1133
 2991TIP3    H230465   6.387   6.079  12.501  0.2035 -1.2657  0.0939
 2992TIP3   OH230466   3.461   6.569  15.876  0.0197 -0.3203 -0.1488
 2992TIP3    H130467   3.389   6.599  15.821  0.3732  2.4215  0.7841
 2992TIP3    H230468   3.419   6.520  15.946 -0.8365  0.1000 -0.3590
 2993TIP3   OH230469   1.108   3.290  12.016 -0.7235 -0.0118  0.1513
 2993TIP3    H130470   1.045   3.361  12.029  0.4430  1.3262 -1.3401
 2993TIP3    H230471   1.075   3.219  12.072 -2.9265  1.0360  0.2565
 2994TIP3   OH230472   3.234   4.443  14.210 -0.4571  0.8847 -0.5618
 2994TIP3    H130473   3.217   4.350  14.197  3.4007  0.4037 -2.9504
 2994TIP3    H230474   3.254   4.477  14.123  0.8791  3.3121  0.6196
 2995TIP3   OH230475   6.816   5.557   2.815  0.3799  0.4162 -0.2874
 2995TIP3    H130476   6.758   5.505   2.759  0.6182  0.7268 -0.8314
 2995TIP3    H230477   6.868   5.493   2.863  1.0591  0.1633 -1.3604
 2996TIP3   OH230478   5.085   0.568   2.793  0.1006 -0.4180 -0.3714
 2996TIP3    H130479   5.179   0.564   2.809  0.2446  0.0093 -1.0740
 2996TIP3    H230480   5.076   0.548   2.700 -0.5256 -0.7522 -0.2376
 2997TIP3   OH230481   3.487   5.972   1.063 -0.3715 -0.1162  0.4825
 2997TIP3    H130482   3.550   5.933   1.124  0.5483  1.4786  0.5688
 2997TIP3    H230483   3.471   5.903   0.998  1.2444 -0.6383  0.6071
 2998TIP3   OH230484   3.985   3.730   0.346  0.5053  0.0644  0.0170
 2998TIP3    H130485   3.975   3.728   0.441  1.9297  0.6950  0.1987
 2998TIP3    H230486   3.906   3.689   0.312 -0.2642  0.3309  1.4622
 2999TIP3   OH230487   5.741   1.459  12.631  0.0205  0.1056  0.3006
 2999TIP3    H130488   5.678   1.413  12.686 -0.4884  0.5776  0.1152
 2999TIP3    H230489   5.709   1.549  12.627 -1.0852 -0.3469 -2.3925
 3000TIP3   OH230490   4.068   0.416   5.340 -0.8496 -0.2290 -0.1155
 3000TIP3    H130491   4.019   0.474   5.398 -0.6943 -0.5227  0.3177
 3000TIP3    H230492   4.046   0.328   5.370 -0.3480 -0.3711 -0.1578
 3001TIP3   OH230493   4.343   3.390  16.715  0.3504 -0.1556  0.9870
 3001TIP3    H130494   4.296   3.360  16.637 -0.5097  0.0669  1.4254
 3001TIP3    H230495   4.290   3.360  16.789  0.6332  0.5329  1.4716
 3002TIP3   OH230496   2.714   6.589  16.135 -0.2995 -0.3953  0.0757
 3002TIP3    H130497   2.734   6.570  16.043 -1.8855  0.5928 -0.5029
 3002TIP3    H230498   2.632   6.542  16.151  0.3789 -1.1975  1.2258
 3003TIP3   OH230499   4.613   4.583  11.251 -0.1070  0.0663  0.0792
 3003TIP3    H130500   4.623   4.505  11.196  2.4203  1.4746 -1.4939
 3003TIP3    H230501   4.582   4.651  11.192 -0.4663  0.7840  1.0698
 3004TIP3   OH230502   4.616   4.699   0.171 -0.8915  0.4682 -0.3217
 3004TIP3    H130503   4.672   4.769   0.204 -1.3372  1.5824 -1.8509
 3004TIP3    H230504   4.527   4.727   0.194 -1.0102 -0.0172 -0.1925
 3005TIP3   OH230505   0.168   0.489  15.673 -0.0091  0.3855 -0.0143
 3005TIP3    H130506   0.231   0.522  15.738 -0.3384 -1.2144  1.1547
 3005TIP3    H230507   0.085   0.482  15.722 -0.5660  0.4122 -0.9550
 3006TIP3   OH230508   3.649   6.596   2.330 -0.2828 -0.2258 -0.0186
 3006TIP3    H130509   3.704   6.549   2.268 -0.6511 -0.4756 -0.1624
 3006TIP3    H230510   3.702   6.670   2.359  0.2376 -0.6319  0.0777
 3007TIP3   OH230511   2.203   5.910   4.761  0.0938  0.1384 -0.0139
 3007TIP3    H130512   2.205   5.989   4.706  0.4625  0.5984  0.6542
 3007TIP3    H230513   2.117   5.872   4.744  0.1547  0.3534 -0.8138
 3008TIP3   OH230514   6.188   4.132  15.530  0.2813  0.0780 -0.0230
 3008TIP3    H130515   6.276   4.095  15.523 -0.7470 -2.1897 -1.4489
 3008TIP3    H230516   6.144   4.108  15.449 -1.1424  2.7071 -0.1146
 3009TIP3   OH230517   6.004   6.248  13.169 -0.4674  0.0612  0.4984
 3009TIP3    H130518   5.919   6.236  13.125 -1.3604  0.1173  2.1625
 3009TIP3    H230519   6.007   6.177  13.233  0.7492  0.0824  0.4674
 3010TIP3   OH230520   6.450   3.654  13.732 -0.3221 -0.3585  0.1916
 3010TIP3    H130521   6.405   3.692  13.657 -2.0535 -0.2161  1.2585
 3010TIP3    H230522   6.532   3.703  13.739 -1.1131  1.0765 -0.3389
 3011TIP3   OH230523   5.018   6.353  10.897  0.1055 -0.9347 -0.8438
 3011TIP3    H130524   5.006   6.295  10.971 -0.5997 -3.7473 -3.0666
 3011TIP3    H230525   5.091   6.316  10.848  1.5423  1.7160 -0.8241
 3012TIP3   OH230526   4.450   1.574  15.186 -0.5871 -0.2988  0.5632
 3012TIP3    H130527   4.448   1.619  15.102  2.8472 -2.0020 -0.5357
 3012TIP3    H230528   4.474   1.641  15.250 -2.2310  0.7883  0.0702
 3013TIP3   OH230529   6.695   6.619  14.413  0.7116  0.8466 -0.6858
 3013TIP3    H130530   6.641   6.612  14.334  0.5744 -0.7121 -0.4767
 3013TIP3    H230531   6.773   6.567  14.394 -0.3543 -1.4914  1.0197
 3014TIP3   OH230532   5.908   1.964  12.313  0.7396  0.1220 -0.2183
 3014TIP3    H130533   5.870   1.938  12.397 -1.4969 -0.4669 -1.3863
 3014TIP3    H230534   5.924   2.058  12.322 -0.8434  0.3512  0.3802
 3015TIP3   OH230535   1.575   0.998  16.067  0.0772  0.1993  0.3763
 3015TIP3    H130536   1.670   0.994  16.079  0.2929 -0.9055 -1.4827
 3015TIP3    H230537   1.563   1.053  15.989 -0.7928  0.1859  0.4963
 3016TIP3   OH230538   0.520   5.213  11.944  0.1763  0.1212  0.2094
 3016TIP3    H130539   0.455   5.269  11.902 -1.1631 -1.4651  0.1229
 3016TIP3    H230540   0.507   5.227  12.038 -0.9237 -0.8788  0.2142
 3017TIP3   OH230541   0.862   3.709  16.512  0.1323 -0.2233  0.3727
 3017TIP3    H130542   0.889   3.652  16.585 -1.0532 -0.1202  0.9051
 3017TIP3    H230543   0.782   3.751  16.543 -0.9180 -0.8961 -1.3641
 3018TIP3   OH230544   1.614   5.185   4.004  0.2290  0.1344  0.4871
 3018TIP3    H130545   1.620   5.205   4.098 -1.5415 -2.8315  1.3034
 3018TIP3    H230546   1.573   5.262   3.966 -0.1145  0.9096  2.3505
 3019TIP3   OH230547   1.834   3.909  17.156 -0.5332  1.3888  0.2713
 3019TIP3    H130548   1.811   3.884  17.067  2.5355 -1.6429  0.2104
 3019TIP3    H230549   1.760   3.880  17.209 -1.7416  1.8820 -1.1312
 3020TIP3   OH230550   2.833   2.681  17.227  0.3445 -0.3307 -0.0404
 3020TIP3    H130551   2.850   2.588  17.238  2.3968  0.1897  1.5751
 3020TIP3    H230552   2.877   2.722  17.302 -2.3377  1.7478  0.4662
 3021TIP3   OH230553   5.302   1.798  14.265 -0.8566  0.3556  1.1240
 3021TIP3    H130554   5.335   1.883  14.238  0.0621 -0.4498 -0.3877
 3021TIP3    H230555   5.254   1.765  14.189 -0.5295 -0.8037  1.4043
 3022TIP3   OH230556   5.322   3.289  12.466  0.0778 -1.0089  0.2994
 3022TIP3    H130557   5.258   3.316  12.531  1.0777 -1.0165  1.3077
 3022TIP3    H230558   5.347   3.200  12.493  0.6398 -0.9344  0.0209
 3023TIP3   OH230559   3.505   3.914  12.991 -0.1245  0.5087 -0.1951
 3023TIP3    H130560   3.486   3.953  13.076 -0.6680  0.5024 -0.3145
 3023TIP3    H230561   3.594   3.879  13.000  0.1714  1.3170  0.0793
 3024TIP3   OH230562   5.714   4.758   3.637  0.6604 -0.7135  0.2003
 3024TIP3    H130563   5.774   4.711   3.695  1.0098  0.6848  1.0071
 3024TIP3    H230564   5.629   4.755   3.683  0.7419 -0.3548  0.3802
 3025TIP3   OH230565   1.321   3.960   0.070 -0.1191  0.1296  0.4071
 3025TIP3    H130566   1.361   3.903   0.135 -0.5212 -0.7953 -0.1457
 3025TIP3    H230567   1.227   3.945   0.078 -0.1934  0.2723 -0.1333
 3026TIP3   OH230568   2.250   6.655  14.832 -0.4355 -0.0305 -0.0778
 3026TIP3    H130569   2.281   6.731  14.880 -0.8292  0.4563 -0.5974
 3026TIP3    H230570   2.291   6.580  14.876 -0.0295  0.4816  0.4079
 3027TIP3   OH230571   1.146   6.070  14.059  0.6768 -0.6960  0.2240
 3027TIP3    H130572   1.221   6.059  14.001  0.1963  0.8541 -0.7285
 3027TIP3    H230573   1.179   6.126  14.130  1.0989 -2.1051  1.1712
 3028TIP3   OH230574   2.033   5.511   3.778  0.3632  0.5922  0.0380
 3028TIP3    H130575   2.041   5.430   3.728  0.0516 -0.4299  1.6226
 3028TIP3    H230576   1.984   5.486   3.857 -1.0688  2.6222 -0.1574
 3029TIP3   OH230577   2.946   0.653  11.675  0.0267  0.5573  0.7427
 3029TIP3    H130578   2.916   0.634  11.587 -0.9817  0.5366  1.0884
 3029TIP3    H230579   2.878   0.709  11.713 -0.6318 -1.1952  2.2348
 3030TIP3   OH230580   5.944   5.506   2.394  0.1213  0.0123  0.0545
 3030TIP3    H130581   5.903   5.420   2.409 -0.6708  0.7734  2.4000
 3030TIP3    H230582   5.870   5.564   2.376  0.3508  0.8704  1.7898
 3031TIP3   OH230583   2.676   3.418  14.069 -0.0457  0.0549 -0.4358
 3031TIP3    H130584   2.760   3.411  14.113 -0.7109 -0.6012  0.7259
 3031TIP3    H230585   2.614   3.370  14.124 -1.6410  2.3698 -0.0776
 3032TIP3   OH230586   2.146   4.843  13.382 -0.6164  0.2745  0.0498
 3032TIP3    H130587   2.190   4.907  13.438  0.6421 -0.9059  0.4437
 3032TIP3    H230588   2.160   4.759  13.426 -2.4796 -0.2658 -0.3122
 3033TIP3   OH230589   1.449   6.811   1.663  0.3687 -0.1527 -0.5604
 3033TIP3    H130590   1.371   6.867   1.667  0.2726 -0.3743  1.7865
 3033TIP3    H230591   1.481   6.820   1.573 -1.4365  1.2049 -1.1039
 3034TIP3   OH230592   6.210   3.255  15.656  0.4953  0.6768  0.4519
 3034TIP3    H130593   6.126   3.268  15.700 -0.9655 -1.9742 -1.3788
 3034TIP3    H230594   6.218   3.330  15.598  0.5064  2.1150  2.2548
 3035TIP3   OH230595   4.998   2.895  11.971  0.2376  0.3409  0.0799
 3035TIP3    H130596   4.911   2.904  11.931 -0.1937 -3.4765  0.0280
 3035TIP3    H230597   4.982   2.903  12.065  0.0748  1.0305  0.0018
 3036TIP3   OH230598   6.603   0.395  15.546  0.4653  0.2563  0.0884
 3036TIP3    H130599   6.640   0.333  15.482 -0.3131 -1.4783  1.2657
 3036TIP3    H230600   6.509   0.393  15.528  0.3886  0.7154  0.4560
 3037TIP3   OH230601   2.613   3.564  16.716  0.2978 -0.2466 -0.0773
 3037TIP3    H130602   2.576   3.575  16.628 -0.5014 -0.3985  0.2257
 3037TIP3    H230603   2.536   3.552  16.772  0.7620  0.4566  0.7313
 3038TIP3   OH230604   3.995   6.570   0.604 -0.0142  0.1560  0.3488
 3038TIP3    H130605   4.066   6.607   0.551 -1.6403  0.5616 -1.5756
 3038TIP3    H230606   4.012   6.603   0.692  1.5831  1.1360 -0.3064
 3039TIP3   OH230607   0.480   6.747  14.749  0.1458 -0.2198 -0.0919
 3039TIP3    H130608   0.474   6.765  14.655  2.0725  1.6141  0.1006
 3039TIP3    H230609   0.399   6.700  14.769 -1.3408  1.2655 -2.2546
 3040TIP3   OH230610   4.549   1.381  14.069  0.0776  0.6502 -1.0757
 3040TIP3    H130611   4.520   1.359  13.980  0.1302 -0.4124 -0.8360
 3040TIP3    H230612   4.480   1.438  14.103 -1.7432 -1.7954 -0.5358
 3041TIP3   OH230613   0.105   5.589   0.434  0.0903 -0.3524  0.0071
 3041TIP3    H130614   0.187   5.566   0.476 -1.3652 -0.8745  2.6177
 3041TIP3    H230615   0.077   5.509   0.389  0.0249 -0.7596  0.7686
 3042TIP3   OH230616   5.692   2.612  16.765  0.1367 -0.2276  0.3477
 3042TIP3    H130617   5.762   2.644  16.822 -1.0326  4.2358 -0.5422
 3042TIP3    H230618   5.611   2.637  16.810 -0.9032 -3.0211  0.1137
 3043TIP3   OH230619   0.906   6.190   0.096  0.4976  0.1610 -0.0967
 3043TIP3    H130620   0.860   6.254   0.150 -0.8046 -0.1139 -0.8748
 3043TIP3    H230621   0.874   6.205   0.007  0.3030 -1.4710 -0.3151
 3044TIP3   OH230622   1.183   6.034   6.983 -0.1358  0.4385  0.5886
 3044TIP3    H130623   1.221   5.982   6.913  1.7652  0.9799  1.1913
 3044TIP3    H230624   1.181   5.975   7.059 -0.6798  0.3454  0.4996
 3045TIP3   OH230625   0.177   5.012  11.403 -0.2540 -0.2065 -0.0143
 3045TIP3    H130626   0.243   4.948  11.374 -0.8250 -1.4644  1.3882
 3045TIP3    H230627   0.149   5.055  11.322  1.4180 -0.4862 -0.7790
 3046TIP3   OH230628   1.730   5.692  12.226 -0.9387 -0.4095 -0.1482
 3046TIP3    H130629   1.749   5.783  12.250 -0.9544  0.3187 -2.7139
 3046TIP3    H230630   1.634   5.685  12.233 -0.9466 -0.1920 -0.0438
 3047TIP3   OH230631   2.572   4.133  13.290  0.2451  0.7507 -0.0168
 3047TIP3    H130632   2.587   4.148  13.196  1.7974  1.5564  0.3415
 3047TIP3    H230633   2.646   4.079  13.317 -1.4536 -1.5128  0.2701
 3048TIP3   OH230634   2.198   0.310  16.370  0.2329  0.1264  0.6916
 3048TIP3    H130635   2.166   0.225  16.339  0.9360 -1.1662  3.3421
 3048TIP3    H230636   2.287   0.292  16.401  0.5536  1.9354  0.8907
 3049TIP3   OH230637   6.682   0.510  16.857 -0.6847  0.2565  0.3163
 3049TIP3    H130638   6.697   0.599  16.826  0.0918 -0.0856 -0.3104
 3049TIP3    H230639   6.768   0.468  16.852 -1.2823 -0.8842 -0.5089
 3050TIP3   OH230640   4.015   5.835  15.422  0.2466  0.1360  0.2256
 3050TIP3    H130641   3.943   5.773  15.410 -0.6634  1.1659  0.2559
 3050TIP3    H230642   4.058   5.839  15.337  1.3795 -1.8273  0.6830
 3051TIP3   OH230643   2.124   0.101   2.853  0.5163 -0.3264 -0.3361
 3051TIP3    H130644   2.097   0.123   2.763  1.2161  1.3076 -0.1678
 3051TIP3    H230645   2.055   0.138   2.908  1.0397  0.3117 -0.1078
 3052TIP3   OH230646   5.354   2.599   3.159 -0.0511 -0.5710  0.2535
 3052TIP3    H130647   5.390   2.621   3.245  0.0491 -2.4241  0.7092
 3052TIP3    H230648   5.310   2.515   3.172 -0.1407 -0.8190 -1.4782
 3053TIP3   OH230649   1.530   3.901  14.763  0.0164 -0.0840  0.4643
 3053TIP3    H130650   1.533   3.852  14.845  0.7644  1.1387  1.1937
 3053TIP3    H230651   1.437   3.903  14.740 -0.0953 -1.2318  0.7877
 3054TIP3   OH230652   2.046   1.018  15.616  0.1272 -0.0658  0.2593
 3054TIP3    H130653   2.041   0.922  15.613  0.9327 -0.1455  1.3074
 3054TIP3    H230654   2.102   1.041  15.541  2.0605 -0.5960  1.5025
 3055TIP3   OH230655   4.917   5.645   5.450  0.3719 -0.6617 -0.4597
 3055TIP3    H130656   4.833   5.643   5.495  0.1895 -0.1497 -0.7670
 3055TIP3    H230657   4.902   5.597   5.369 -0.5254  2.0504 -1.9923
 3056TIP3   OH230658   1.510   2.170   2.852  0.0117  0.4848 -0.8921
 3056TIP3    H130659   1.564   2.147   2.927  0.6481  2.3848 -0.7671
 3056TIP3    H230660   1.420   2.150   2.880  0.4399 -0.9274 -0.4598
 3057TIP3   OH230661   5.928   5.808  11.905  0.5210 -0.3414 -0.3001
 3057TIP3    H130662   5.992   5.854  11.850  0.1442  1.9108  1.0914
 3057TIP3    H230663   5.981   5.748  11.958  1.3203  0.4798 -0.1644
 3058TIP3   OH230664   5.227   6.081  14.507  0.0569  0.1152  0.3371
 3058TIP3    H130665   5.291   6.012  14.486 -1.2706 -1.2589  0.7072
 3058TIP3    H230666   5.241   6.148  14.441  2.0115 -0.0737  0.5263
 3059TIP3   OH230667   3.147   0.037  13.502 -0.0362  0.6472 -0.0572
 3059TIP3    H130668   3.064   0.048  13.548  0.0931  0.6727  0.1734
 3059TIP3    H230669   3.214   0.052  13.569  0.1464 -0.9591  0.1277
 3060TIP3   OH230670   3.030   1.713   3.223  0.3460  0.2124 -0.0428
 3060TIP3    H130671   3.094   1.715   3.151  0.2282  0.0649 -0.1505
 3060TIP3    H230672   3.062   1.644   3.281 -0.1702 -0.4257 -0.5139
 3061TIP3   OH230673   2.202   6.284   0.939  0.9444 -0.0546  0.3561
 3061TIP3    H130674   2.294   6.271   0.919  0.9959  1.2318 -0.3149
 3061TIP3    H230675   2.173   6.350   0.875 -0.8385 -1.6461 -0.5160
 3062TIP3   OH230676   3.713   2.106   6.495 -0.1437 -0.9655  0.1345
 3062TIP3    H130677   3.627   2.140   6.518 -0.0855 -0.1542 -0.8249
 3062TIP3    H230678   3.742   2.059   6.574 -1.4860 -1.3127  0.4369
 3063TIP3   OH230679   0.448   4.633   2.337 -0.1977  0.3262 -0.6556
 3063TIP3    H130680   0.386   4.640   2.264  1.1226  1.6366 -1.6570
 3063TIP3    H230681   0.425   4.706   2.395 -0.6502 -0.1772 -0.1863
 3064TIP3   OH230682   2.062   2.621  13.354 -0.2193  0.6199 -0.1715
 3064TIP3    H130683   2.127   2.618  13.424  2.6899  2.0680 -2.6804
 3064TIP3    H230684   2.094   2.559  13.289 -3.2308 -1.1845 -0.0017
 3065TIP3   OH230685   6.225   4.380   3.835 -0.0810  0.4405 -0.5320
 3065TIP3    H130686   6.175   4.341   3.907  4.2747 -1.1279  1.7929
 3065TIP3    H230687   6.211   4.474   3.845 -1.3593  0.1179  0.9592
 3066TIP3   OH230688   1.507   4.644  14.343 -0.3528 -0.1046 -0.3416
 3066TIP3    H130689   1.495   4.551  14.327 -1.6232  0.2383 -1.4363
 3066TIP3    H230690   1.586   4.667  14.294 -0.4337 -0.4631 -0.6428
 3067TIP3   OH230691   5.787   0.772   4.342 -0.0473 -0.0797 -0.1684
 3067TIP3    H130692   5.814   0.683   4.319 -1.1063 -0.5961  0.5352
 3067TIP3    H230693   5.728   0.797   4.271 -0.1188 -0.1188 -0.1232
 3068TIP3   OH230694   4.792   2.897   1.921 -0.5023 -0.1977  0.5303
 3068TIP3    H130695   4.722   2.906   1.985 -1.7280 -0.3446 -0.7810
 3068TIP3    H230696   4.748   2.893   1.836  1.0570 -0.6936 -0.2868
 3069TIP3   OH230697   2.353   5.271  11.339  0.1720 -0.7920  0.7228
 3069TIP3    H130698   2.262   5.298  11.351 -0.2236 -1.1595 -1.2335
 3069TIP3    H230699   2.349   5.177  11.321  0.6370 -0.3273 -2.1152
 3070TIP3   OH230700   5.771   0.994  11.479  0.1172 -0.6297  0.5536
 3070TIP3    H130701   5.736   1.075  11.442 -1.6623 -1.5708  0.1427
 3070TIP3    H230702   5.730   0.988  11.566  2.0311  0.0811  1.5349
 3071TIP3   OH230703   2.575   6.362  13.612  0.0997  0.4211 -0.0678
 3071TIP3    H130704   2.505   6.346  13.675  0.7720 -0.1469  0.5462
 3071TIP3    H230705   2.654   6.371  13.666  0.5889  0.4845 -0.7928
 3072TIP3   OH230706   2.989   0.262   0.411 -0.0275 -0.6613  0.3088
 3072TIP3    H130707   2.944   0.208   0.346  0.2576 -0.8981  0.3048
 3072TIP3    H230708   3.062   0.301   0.363  0.6230 -1.4318  0.6653
 3073TIP3   OH230709   0.736   1.422  17.186 -0.0503  0.4630  0.0740
 3073TIP3    H130710   0.758   1.331  17.209  1.3531  1.1135  1.4317
 3073TIP3    H230711   0.669   1.447  17.250 -0.3852  0.4050 -0.2559
 3074TIP3   OH230712   5.027   6.789   5.312 -0.4421 -0.3663  0.4356
 3074TIP3    H130713   5.083   6.865   5.325 -1.8040  0.5790  0.8851
 3074TIP3    H230714   5.050   6.756   5.225  0.0426  0.6516  0.1750
 3075TIP3   OH230715   3.259   6.676  15.708  0.3803  0.2778 -0.0341
 3075TIP3    H130716   3.316   6.646  15.637  1.0811  2.1308 -0.2764
 3075TIP3    H230717   3.177   6.698  15.665  0.3219  0.0237 -0.0545
 3076TIP3   OH230718   3.884   0.072  11.849  0.0592  0.7396  0.3637
 3076TIP3    H130719   3.961   0.019  11.825 -1.1839 -0.7977 -0.3225
 3076TIP3    H230720   3.908   0.161  11.824  1.4732  0.2239 -0.1956
 3077TIP3   OH230721   4.332   1.449  12.696 -0.5561  0.4231  0.1621
 3077TIP3    H130722   4.367   1.531  12.663  0.8571 -0.6304 -1.0469
 3077TIP3    H230723   4.285   1.411  12.621  0.9158 -1.0184 -0.0635
 3078TIP3   OH230724   5.575   0.381   0.729  0.1614 -0.2085  0.5442
 3078TIP3    H130725   5.493   0.421   0.756  0.8822  0.7213  1.3665
 3078TIP3    H230726   5.580   0.397   0.635  0.2377  1.2414  0.7940
 3079TIP3   OH230727   6.546   1.191   4.610 -0.0016 -0.0187 -0.3499
 3079TIP3    H130728   6.635   1.198   4.576  0.5882 -0.4153  1.1057
 3079TIP3    H230729   6.523   1.099   4.599 -0.7120  0.3218 -1.8795
 3080TIP3   OH230730   1.453   3.667  13.378  0.0673 -0.0825  0.6577
 3080TIP3    H130731   1.518   3.721  13.424 -0.5717  0.4681  0.9245
 3080TIP3    H230732   1.372   3.716  13.386  0.1040  0.4144 -1.7562
 3081TIP3   OH230733   1.869   6.721   2.778 -0.5974  0.4501 -0.2537
 3081TIP3    H130734   1.795   6.745   2.723 -0.9172  0.1237  0.0243
 3081TIP3    H230735   1.882   6.797   2.834 -1.0000  0.3523 -0.0168
 3082TIP3   OH230736   5.943   6.801  15.760  0.5060  0.2172  0.3100
 3082TIP3    H130737   6.016   6.848  15.800 -0.2836 -0.2522  2.3846
 3082TIP3    H230738   5.865   6.847  15.790 -0.1592 -0.7460  0.1116
 3083TIP3   OH230739   5.547   0.397  14.268 -0.2362 -0.3628 -0.0001
 3083TIP3    H130740   5.564   0.325  14.207 -1.1783 -0.8458  0.2923
 3083TIP3    H230741   5.561   0.358  14.355 -0.0278  0.0105  0.1366
 3084TIP3   OH230742   5.476   2.307  14.769 -0.8623 -0.3801 -0.2347
 3084TIP3    H130743   5.524   2.350  14.840 -1.3742 -1.6862  0.9448
 3084TIP3    H230744   5.397   2.360  14.758 -0.7201 -0.0994  0.0931
 3085TIP3   OH230745   0.323   6.313  11.233 -0.4485  0.0528  0.2756
 3085TIP3    H130746   0.312   6.232  11.184 -1.2471  0.1231  0.3286
 3085TIP3    H230747   0.377   6.369  11.176  1.1990 -0.9686  0.7804
 3086TIP3   OH230748   5.676   1.379  16.798 -0.3950 -0.0303  0.4267
 3086TIP3    H130749   5.684   1.284  16.790  1.2589  0.1313  0.1457
 3086TIP3    H230750   5.763   1.409  16.822 -0.8780  1.4339  0.3941
 3087TIP3   OH230751   1.532   6.175  17.057 -0.0918  0.1335 -0.3505
 3087TIP3    H130752   1.504   6.094  17.016 -0.1353  0.6034 -1.2731
 3087TIP3    H230753   1.506   6.166  17.149 -0.8446 -0.5458 -0.6223
 3088TIP3   OH230754   0.070   4.220   3.426 -0.7212 -0.4248 -0.1498
 3088TIP3    H130755   0.133   4.166   3.473  0.6731 -0.2245 -1.7578
 3088TIP3    H230756   0.017   4.157   3.377 -1.9909 -0.6136  1.4283
 3089TIP3   OH230757   3.730   1.263   4.155 -0.2928 -0.3195 -1.1992
 3089TIP3    H130758   3.704   1.345   4.196 -0.1531  0.4560 -2.6118
 3089TIP3    H230759   3.651   1.233   4.110 -0.3268 -0.9282 -0.7334
 3090TIP3   OH230760   5.670   3.683   4.730  0.2022 -0.0509 -0.3250
 3090TIP3    H130761   5.617   3.619   4.779  0.2816  1.2291  1.4849
 3090TIP3    H230762   5.658   3.765   4.777  0.7203  1.1204 -2.1791
 3091TIP3   OH230763   1.355   0.104   3.145 -0.2294  0.0019  0.3114
 3091TIP3    H130764   1.316   0.191   3.147 -1.5406 -0.5920  1.4910
 3091TIP3    H230765   1.282   0.046   3.125  0.3592 -0.9735  0.9578
 3092TIP3   OH230766   4.586   2.126  13.026  0.3033  0.3084  0.5131
 3092TIP3    H130767   4.632   2.055  13.072  2.4614  1.0534 -0.4142
 3092TIP3    H230768   4.554   2.085  12.946 -1.1200 -0.3335  1.3848
 3093TIP3   OH230769   4.749   1.015   1.398 -0.2883 -0.3259  0.0499
 3093TIP3    H130770   4.749   0.928   1.437  0.7910  1.4779  4.4858
 3093TIP3    H230771   4.685   1.064   1.451  0.5639  2.0561 -1.0413
 3094TIP3   OH230772   4.440   5.347   1.303  0.3418  0.1540  0.4208
 3094TIP3    H130773   4.532   5.329   1.285 -0.0641 -1.1834 -0.4584
 3094TIP3    H230774   4.413   5.276   1.362  0.3050  1.5160  2.0602
 3095TIP3   OH230775   3.862   5.612  16.643  0.0166 -0.8329  0.1049
 3095TIP3    H130776   3.859   5.659  16.559  0.7159 -0.1120  0.4674
 3095TIP3    H230777   3.773   5.618  16.677 -0.0769 -0.4154 -0.2064
 3096TIP3   OH230778   5.167   1.598  17.121  1.0972 -0.2914 -0.7434
 3096TIP3    H130779   5.136   1.686  17.142  1.1844 -0.2268 -0.8832
 3096TIP3    H230780   5.249   1.589  17.170  0.4270 -0.7824  0.3112
 3097TIP3   OH230781   5.799   1.845   4.362  0.6716  0.1694 -0.2594
 3097TIP3    H130782   5.860   1.770   4.365  1.9616  1.2016 -0.1787
 3097TIP3    H230783   5.713   1.806   4.378  1.4139 -1.2017  0.5431
 3098TIP3   OH230784   5.202   4.927  11.569  0.2783  0.7389 -0.3983
 3098TIP3    H130785   5.166   4.879  11.644  2.0694  0.2156  0.1466
 3098TIP3    H230786   5.148   4.900  11.495 -0.8499  0.4655  0.5055
 3099TIP3   OH230787   0.071   2.372   4.232  0.2680 -0.2190  0.1752
 3099TIP3    H130788   0.004   2.382   4.163  0.5399  1.1125  0.0884
 3099TIP3    H230789   0.021   2.356   4.312 -0.0147 -3.4462 -0.5534
 3100TIP3   OH230790   0.781   3.848   0.213  0.7127 -0.0630  0.3397
 3100TIP3    H130791   0.729   3.813   0.141 -3.9072  2.0057  2.4643
 3100TIP3    H230792   0.784   3.776   0.277  1.2715 -0.4973 -0.1714
 3101TIP3   OH230793   5.549   3.169   3.295 -0.4077  0.0833 -0.6033
 3101TIP3    H130794   5.536   3.092   3.239 -1.5548 -0.5698  0.5336
 3101TIP3    H230795   5.576   3.238   3.235 -0.6781 -0.8606 -1.8273
 3102TIP3   OH230796   2.176   1.082   6.703  0.4578 -0.1898  0.1590
 3102TIP3    H130797   2.141   1.003   6.744  0.8531  0.3767  1.6224
 3102TIP3    H230798   2.161   1.151   6.767 -1.7390  1.3488 -1.9483
 3103TIP3   OH230799   3.044   0.706   1.823  0.0499 -0.0442  0.3673
 3103TIP3    H130800   3.134   0.701   1.853  0.3821 -0.1683 -0.6542
 3103TIP3    H230801   2.992   0.676   1.898  0.8292  0.2901  1.0487
 3104TIP3   OH230802   1.460   5.622  12.855  0.5256 -0.0179  0.1364
 3104TIP3    H130803   1.514   5.660  12.785  0.8748 -0.5045  0.1391
 3104TIP3    H230804   1.522   5.607  12.927  0.2501  0.0740  0.3911
 3105TIP3   OH230805   5.620   4.243  13.557  0.3153  0.7650 -0.8698
 3105TIP3    H130806   5.626   4.338  13.545  1.3820  0.7646 -0.4108
 3105TIP3    H230807   5.674   4.206  13.488  1.2918  0.5587 -0.0122
 3106TIP3   OH230808   2.222   6.453  15.070 -0.2700 -1.0176 -0.0862
 3106TIP3    H130809   2.219   6.415  14.983  0.5611 -3.2338  0.8199
 3106TIP3    H230810   2.234   6.379  15.129 -0.3163  0.4830  1.8899
 3107TIP3   OH230811   6.787   3.629   1.364  0.1999  0.0229  0.1117
 3107TIP3    H130812   6.780   3.554   1.305 -0.9742 -0.4343  0.8043
 3107TIP3    H230813   6.869   3.671   1.340  0.8800 -1.4987 -0.2824
 3108TIP3   OH230814   2.296   0.997  15.977  0.2332 -0.1442  0.0930
 3108TIP3    H130815   2.212   0.984  16.021  2.0654 -0.0841  3.7943
 3108TIP3    H230816   2.295   1.090  15.952  0.0469  0.3749  1.9892
 3109TIP3   OH230817   5.748   2.484   4.867  0.2984 -0.4681 -0.3111
 3109TIP3    H130818   5.776   2.435   4.944 -1.6585 -0.7501  0.2262
 3109TIP3    H230819   5.814   2.463   4.801  0.4278 -2.4783  0.4294
 3110TIP3   OH230820   3.158   2.829  12.459 -0.1512 -0.0188  0.1549
 3110TIP3    H130821   3.125   2.842  12.548 -1.3743  2.3653 -0.6078
 3110TIP3    H230822   3.213   2.751  12.465 -1.4473 -0.7978  2.6700
 3111TIP3   OH230823   4.020   2.410   4.532  0.3667 -0.0921  0.0586
 3111TIP3    H130824   4.051   2.467   4.462  0.4044 -1.7017 -1.2703
 3111TIP3    H230825   4.096   2.355   4.554 -0.0055 -0.4442  0.4950
 3112TIP3   OH230826   0.540   6.624   5.213 -0.0878 -0.5269 -0.4609
 3112TIP3    H130827   0.584   6.586   5.137 -0.1107  0.0719 -0.7759
 3112TIP3    H230828   0.447   6.607   5.198 -0.0263 -1.0916 -0.1875
 3113TIP3   OH230829   3.435   5.368   2.667  0.2180 -0.3496  0.0029
 3113TIP3    H130830   3.455   5.283   2.705 -0.1134  0.2823  1.6483
 3113TIP3    H230831   3.411   5.349   2.576 -1.4327 -2.2046  0.7734
 3114TIP3   OH230832   0.330   2.953  14.490  0.7023 -0.1889 -0.3361
 3114TIP3    H130833   0.394   2.918  14.428  0.4892 -1.5673  0.2104
 3114TIP3    H230834   0.323   2.887  14.558 -0.6421  0.3538  0.0793
 3115TIP3   OH230835   1.424   4.803   2.930  0.1261 -0.1971  0.1248
 3115TIP3    H130836   1.482   4.805   3.006  1.2635  0.1774 -0.7400
 3115TIP3    H230837   1.343   4.765   2.963  0.0272  1.4502  1.9186
 3116TIP3   OH230838   1.129   0.075  11.942  0.1752  0.1901 -0.2552
 3116TIP3    H130839   1.219   0.043  11.949 -0.0782 -0.7785 -1.3221
 3116TIP3    H230840   1.097   0.041  11.858 -1.5027 -0.3125  0.5532
 3117TIP3   OH230841   1.412   5.274   1.682  0.2330  0.3129 -0.2849
 3117TIP3    H130842   1.485   5.293   1.622  0.1003  1.6075 -0.0511
 3117TIP3    H230843   1.443   5.302   1.768  0.4527 -1.6174  0.2973
 3118TIP3   OH230844   0.177   0.402   1.842  0.0798 -0.2679  0.3013
 3118TIP3    H130845   0.141   0.362   1.921 -0.0078  2.0062  1.4582
 3118TIP3    H230846   0.114   0.472   1.820  1.0200  0.2659 -0.7323
 3119TIP3   OH230847   1.947   6.425  15.399  0.0511  0.2984 -0.9056
 3119TIP3    H130848   1.866   6.439  15.448  0.9352  0.3710  0.5546
 3119TIP3    H230849   1.996   6.361  15.451  0.6003 -0.3487 -2.1843
 3120TIP3   OH230850   2.256   5.526  13.657 -0.2048 -0.1583 -0.6695
 3120TIP3    H130851   2.305   5.534  13.575  0.4341 -0.5203 -0.3202
 3120TIP3    H230852   2.319   5.549  13.725 -0.4268 -0.9534 -0.1965
 3121TIP3   OH230853   2.999   0.323  12.077 -0.0406 -0.4205 -0.5937
 3121TIP3    H130854   2.991   0.324  11.982  1.2524  1.5705 -0.7080
 3121TIP3    H230855   2.911   0.341  12.109 -0.2636  0.0039 -1.4340
 3122TIP3   OH230856   0.875   6.355   2.949 -0.0631 -0.3541  0.2060
 3122TIP3    H130857   0.850   6.328   3.037 -0.8321  1.7784  0.6693
 3122TIP3    H230858   0.862   6.276   2.896 -1.0799 -1.2335  1.7044
 3123TIP3   OH230859   5.183   2.012   0.125 -0.1074  0.0086 -0.2035
 3123TIP3    H130860   5.240   1.941   0.157 -0.6028  0.1216  0.9677
 3123TIP3    H230861   5.117   2.021   0.193 -0.1409  1.4968 -0.4309
 3124TIP3   OH230862   4.734   5.009  11.001  0.5043  0.0575  0.2377
 3124TIP3    H130863   4.772   5.072  11.063  3.4816 -0.7442 -0.6958
 3124TIP3    H230864   4.687   5.063  10.938 -0.8326  1.0198  2.0254
 3125TIP3   OH230865   6.688   5.501  14.709  0.7456  1.0168 -0.3320
 3125TIP3    H130866   6.635   5.436  14.663 -0.4214  1.6960  0.0496
 3125TIP3    H230867   6.701   5.571  14.644  2.1694  0.3309 -0.8105
 3126TIP3   OH230868   1.379   1.507   2.190 -0.2829  0.1919 -0.2230
 3126TIP3    H130869   1.334   1.451   2.254 -0.6542  2.8263  1.8586
 3126TIP3    H230870   1.385   1.452   2.112 -2.7335 -1.9665  1.0161
 3127TIP3   OH230871   2.777   5.302  11.511  0.1910 -0.3573  0.4701
 3127TIP3    H130872   2.745   5.316  11.600  1.0421 -1.9509  1.0471
 3127TIP3    H230873   2.862   5.347  11.509  0.0565 -0.1049  0.3754
 3128TIP3   OH230874   0.216   2.600   4.411  0.1495 -0.4564 -0.6751
 3128TIP3    H130875   0.303   2.626   4.378  0.2152 -1.4057 -1.2596
 3128TIP3    H230876   0.172   2.562   4.335 -1.6498  2.0882 -0.9861
 3129TIP3   OH230877   3.774   1.624  12.083  0.3560  0.4784 -0.3794
 3129TIP3    H130878   3.758   1.551  12.022  2.0476 -0.5484  0.3839
 3129TIP3    H230879   3.840   1.677  12.039  0.9345  0.2104  0.1670
 3130TIP3   OH230880   2.383   6.108  12.527 -0.3791  0.2686 -0.1560
 3130TIP3    H130881   2.309   6.166  12.542 -1.2167 -0.8360  0.0959
 3130TIP3    H230882   2.386   6.053  12.606 -0.6594 -1.1314 -1.0910
 3131TIP3   OH230883   6.385   5.489  10.433  0.8646  0.6073 -0.1264
 3131TIP3    H130884   6.396   5.584  10.426  0.5209  0.8738  2.3587
 3131TIP3    H230885   6.347   5.476  10.520  3.1301 -1.9827  0.5405
 3132TIP3   OH230886   5.489   0.537   5.152 -0.0845  0.6264 -0.0233
 3132TIP3    H130887   5.425   0.513   5.219  1.2197  0.3315  1.1512
 3132TIP3    H230888   5.535   0.613   5.189 -0.2546  1.2942 -1.1731
 3133TIP3   OH230889   0.920   5.459  17.190  0.0634 -0.0405  0.0257
 3133TIP3    H130890   0.970   5.484  17.269 -0.3311 -0.4990  0.4208
 3133TIP3    H230891   0.985   5.420  17.132  1.1808  3.9019 -1.5555
 3134TIP3   OH230892   6.580   3.681   2.525  0.1641  0.5213  0.5319
 3134TIP3    H130893   6.577   3.776   2.509  1.4750  0.6139  0.7788
 3134TIP3    H230894   6.534   3.643   2.450 -0.0070  1.3299  0.2127
 3135TIP3   OH230895   1.445   1.678   3.760  0.2199 -0.7909 -0.1832
 3135TIP3    H130896   1.533   1.677   3.799  1.0850  1.9611 -1.9798
 3135TIP3    H230897   1.433   1.589   3.727  1.2191 -1.9535  2.4125
 3136TIP3   OH230898   3.185   6.163   2.505 -0.2145 -0.1235  0.1722
 3136TIP3    H130899   3.113   6.103   2.485  0.6471 -0.3559 -2.3070
 3136TIP3    H230900   3.261   6.126   2.460  0.4022  2.6756 -1.2051
 3137TIP3   OH230901   2.634   4.819  12.249  0.2466  0.0968 -0.5637
 3137TIP3    H130902   2.716   4.857  12.280 -0.3452  0.7941  0.1617
 3137TIP3    H230903   2.624   4.853  12.160  1.7613 -1.6118 -1.4082
 3138TIP3   OH230904   2.242   6.143   0.399 -0.3373 -0.0214 -0.0722
 3138TIP3    H130905   2.310   6.113   0.340  0.9343  0.4672  1.1169
 3138TIP3    H230906   2.277   6.223   0.438 -3.0060  2.2071 -2.0104
 3139TIP3   OH230907   3.180   0.127  12.801 -0.5018  0.2978  0.1294
 3139TIP3    H130908   3.178   0.069  12.877 -0.2151  0.0568 -0.0483
 3139TIP3    H230909   3.087   0.142  12.780 -0.5830  0.4298  0.5721
 3140TIP3   OH230910   5.694   4.765  11.032  0.2144 -0.2103  0.1952
 3140TIP3    H130911   5.787   4.748  11.021  0.3040 -0.1801  0.8565
 3140TIP3    H230912   5.689   4.858  11.054 -0.0488 -0.0013 -0.7355
 3141TIP3   OH230913   1.695   6.767   0.949 -0.2918  0.3948  0.1577
 3141TIP3    H130914   1.757   6.808   1.010 -0.1766  0.6892 -0.1537
 3141TIP3    H230915   1.620   6.826   0.949 -0.6414 -0.0387  0.6476
 3142TIP3   OH230916   5.783   1.581   3.509  0.1007 -0.5922 -0.1395
 3142TIP3    H130917   5.842   1.655   3.501 -0.8683  0.2819  0.7469
 3142TIP3    H230918   5.832   1.516   3.560 -0.3592  0.8218  2.1368
 3143TIP3   OH230919   0.343   6.323   5.716  0.2864 -0.2903 -0.5071
 3143TIP3    H130920   0.273   6.362   5.769 -1.0881 -2.3822 -0.7080
 3143TIP3    H230921   0.416   6.312   5.777 -0.1293  0.3759  0.1241
 3144TIP3   OH230922   1.451   6.095  15.972 -0.1480 -0.3255  0.2177
 3144TIP3    H130923   1.466   6.004  15.950 -2.3936 -0.5272 -0.6218
 3144TIP3    H230924   1.359   6.099  15.999 -0.1961  1.7319 -0.0995
 3145TIP3   OH230925   4.130   0.075   0.104 -0.3058 -1.1166  0.3361
 3145TIP3    H130926   4.052   0.060   0.157  0.2089 -1.8476  0.9014
 3145TIP3    H230927   4.108   0.040   0.018 -0.6384 -1.2083  0.4575
 3146TIP3   OH230928   4.495   5.166   0.402 -0.3788 -0.9479 -0.3977
 3146TIP3    H130929   4.528   5.076   0.394  0.0647 -0.8362  0.1674
 3146TIP3    H230930   4.482   5.178   0.496 -0.4064 -0.4070 -0.4709
 3147TIP3   OH230931   1.848   4.251   1.952 -0.2598 -0.0575 -0.2678
 3147TIP3    H130932   1.861   4.162   1.986 -2.1792 -0.9814 -1.8546
 3147TIP3    H230933   1.824   4.303   2.028 -3.1053 -1.7867  0.0685
 3148TIP3   OH230934   3.396   3.042  10.744  0.2396  0.6301  0.2825
 3148TIP3    H130935   3.310   3.039  10.785  0.6801 -1.6095  1.1259
 3148TIP3    H230936   3.388   2.981  10.670  1.2974 -0.1653  0.8136
 3149TIP3   OH230937   3.034   0.016   4.263 -0.2311  0.0702 -0.3998
 3149TIP3    H130938   2.993   0.056   4.186 -1.7891 -1.4944 -0.4341
 3149TIP3    H230939   3.001   0.068   4.337 -1.0323 -0.1855 -0.5659
 3150TIP3   OH230940   6.711   5.025  15.644 -0.0951 -0.2525  0.3141
 3150TIP3    H130941   6.639   5.075  15.683 -0.5408 -1.2235  0.7481
 3150TIP3    H230942   6.719   5.060  15.555 -1.7198 -0.7689 -0.0559
 3151TIP3   OH230943   6.149   2.311   6.045  0.2406  0.0255 -0.1315
 3151TIP3    H130944   6.232   2.288   6.003  0.0536  1.4298 -1.3147
 3151TIP3    H230945   6.152   2.406   6.051 -0.4671 -0.0498  1.5547
 3152TIP3   OH230946   1.466   5.804  14.589  0.0885 -0.3518  0.2323
 3152TIP3    H130947   1.461   5.899  14.595  0.4842 -0.2032 -1.4529
 3152TIP3    H230948   1.413   5.772  14.662 -3.8567  1.1696 -1.7659
 3153TIP3   OH230949   5.528   5.718  14.594 -0.2723 -0.6104 -0.1976
 3153TIP3    H130950   5.576   5.639  14.618  0.9819  0.1408 -0.1845
 3153TIP3    H230951   5.482   5.744  14.674  2.8936  1.1741  1.1623
 3154TIP3   OH230952   5.399   3.105  12.733 -0.0805 -0.7923  0.1169
 3154TIP3    H130953   5.404   3.192  12.772  0.9205 -1.4059  1.3954
 3154TIP3    H230954   5.469   3.105  12.668 -0.6468 -0.3565 -0.5049
 3155TIP3   OH230955   5.047   0.270   2.979 -0.6217 -0.6352 -0.0209
 3155TIP3    H130956   5.019   0.354   3.015 -2.1174 -1.3840  0.6284
 3155TIP3    H230957   5.088   0.225   3.054  1.6634  0.1450 -0.7720
 3156TIP3   OH230958   6.424   0.925   0.399 -0.1670 -0.0545 -0.0062
 3156TIP3    H130959   6.464   1.010   0.379 -1.2207  0.3232 -0.5505
 3156TIP3    H230960   6.330   0.942   0.399 -0.4014 -1.3061 -0.4980
 3157TIP3   OH230961   5.928   2.408   1.311  0.0827 -0.0983  0.2314
 3157TIP3    H130962   5.925   2.313   1.326  0.8979 -0.0444  0.7432
 3157TIP3    H230963   5.967   2.417   1.224  0.2550 -0.2157  0.2975
 3158TIP3   OH230964   4.656   0.605   0.564  0.4548 -0.7875 -0.6312
 3158TIP3    H130965   4.581   0.615   0.505 -1.2321  0.9345  1.6827
 3158TIP3    H230966   4.732   0.630   0.511 -1.1114  1.7110 -1.7877
 3159TIP3   OH230967   1.018   2.759   5.662  0.0271 -0.7923 -0.6147
 3159TIP3    H130968   1.048   2.769   5.572 -0.2191  2.0322 -0.4300
 3159TIP3    H230969   0.963   2.680   5.660 -1.7520  0.4230 -3.4455
 3160TIP3   OH230970   1.437   2.544  12.936 -0.5471 -0.2728  0.0794
 3160TIP3    H130971   1.456   2.460  12.978  1.5176 -0.1773 -0.6338
 3160TIP3    H230972   1.379   2.589  12.999  2.1367 -0.2955  2.6950
 3161TIP3   OH230973   4.002   1.752  12.875 -0.0181 -0.2774 -0.6353
 3161TIP3    H130974   4.008   1.786  12.965 -0.8826  1.1871 -1.1223
 3161TIP3    H230975   4.079   1.789  12.831 -0.0050 -0.3839 -0.7019
 3162TIP3   OH230976   2.856   3.488  13.483  0.3757 -0.8078 -0.6396
 3162TIP3    H130977   2.940   3.534  13.486 -0.8515  1.4740 -0.0513
 3162TIP3    H230978   2.848   3.447  13.569  0.7699 -0.8127 -0.6045
 3163TIP3   OH230979   1.245   3.956  15.010 -0.1184 -0.2059  0.2378
 3163TIP3    H130980   1.236   3.861  15.006 -0.6173 -0.2545  2.0634
 3163TIP3    H230981   1.214   3.987  14.925 -1.2689 -1.5802  0.1339
 3164TIP3   OH230982   1.776   3.751   5.773 -0.3232 -0.1069 -1.0573
 3164TIP3    H130983   1.690   3.752   5.731 -0.7220  0.1696 -0.2508
 3164TIP3    H230984   1.760   3.787   5.861  0.8662  1.2616 -1.3847
 3165TIP3   OH230985   6.697   5.206  10.811 -0.4389  0.2444  0.1365
 3165TIP3    H130986   6.728   5.161  10.890 -1.7481  0.3461  0.7400
 3165TIP3    H230987   6.773   5.213  10.755  0.6264  0.5567  1.5916
 3166TIP3   OH230988   2.848   6.160   6.375 -0.5382  0.1829  0.0098
 3166TIP3    H130989   2.939   6.143   6.354 -0.2673  1.1618  0.3449
 3166TIP3    H230990   2.844   6.255   6.391 -1.4082  0.0028  0.9619
 3167TIP3   OH230991   1.300   1.088   5.177  0.5964 -0.4230 -0.4172
 3167TIP3    H130992   1.205   1.088   5.178  0.5912 -0.7030 -0.9941
 3167TIP3    H230993   1.323   1.125   5.091  1.0138  2.3255  0.8185
 3168TIP3   OH230994   0.719   6.750   0.381  0.3819  0.0593  0.4674
 3168TIP3    H130995   0.681   6.704   0.305 -0.8657  0.2067  0.9806
 3168TIP3    H230996   0.799   6.790   0.347  0.3094 -0.6223 -0.5532
 3169TIP3   OH230997   6.771   0.793   5.371  0.2951 -0.2733  0.1999
 3169TIP3    H130998   6.773   0.887   5.351  1.6607 -0.5801 -1.1884
 3169TIP3    H230999   6.788   0.789   5.465 -1.0383  0.9264  0.5179
 3170TIP3   OH231000   1.274   1.465   3.955 -0.0485  0.4704 -0.2966
 3170TIP3    H131001   1.335   1.536   3.934 -1.3560  1.4763 -0.7405
 3170TIP3    H231002   1.307   1.428   4.037  0.8016  1.4006 -0.2174
 3171TIP3   OH231003   6.416   0.219  12.693  0.2092 -0.1202  0.1028
 3171TIP3    H131004   6.388   0.237  12.782  0.2179 -1.0290  0.2978
 3171TIP3    H231005   6.478   0.289  12.672  0.6306 -0.2196  1.0112
 3172TIP3   OH231006   5.860   3.262  17.091  0.3056 -0.3358 -0.0345
 3172TIP3    H131007   5.873   3.334  17.029 -1.2340 -0.4787 -0.5666
 3172TIP3    H231008   5.820   3.192  17.038 -2.7464  0.1953  1.4252
 3173TIP3   OH231009   3.371   5.023  14.137  0.3314  0.2214  0.3646
 3173TIP3    H131010   3.408   5.000  14.223 -1.3106 -1.1532  0.7129
 3173TIP3    H231011   3.383   4.944  14.084 -0.2067  0.4893 -0.1599
 3174TIP3   OH231012   0.462   1.099   1.563  0.2859 -0.3033  0.1581
 3174TIP3    H131013   0.469   1.192   1.580 -0.4629 -0.5897  2.1105
 3174TIP3    H231014   0.553   1.069   1.557  0.5266  0.4087  0.1802
 3175TIP3   OH231015   5.655   0.487  17.146  0.1354 -0.5929 -0.2542
 3175TIP3    H131016   5.699   0.543  17.083 -0.5752 -0.0352 -0.2636
 3175TIP3    H231017   5.581   0.450  17.098 -0.5953  0.0839  0.3172
 3176TIP3   OH231018   3.730   1.052   3.047  0.1220 -0.1960 -0.3658
 3176TIP3    H131019   3.723   1.103   2.967  0.4818  1.6850  0.7537
 3176TIP3    H231020   3.822   1.025   3.049 -0.0647 -0.8675 -0.9599
 3177TIP3   OH231021   5.120   2.268   1.003  0.1237 -0.4411 -0.3878
 3177TIP3    H131022   5.093   2.341   1.059 -1.8527 -0.3988 -1.3408
 3177TIP3    H231023   5.119   2.192   1.061 -1.5541 -0.3352 -0.2372
 3178TIP3   OH231024   5.347   3.698  13.673  0.3161  0.1760  0.0029
 3178TIP3    H131025   5.324   3.765  13.609  1.2903  1.0115  0.5062
 3178TIP3    H231026   5.378   3.748  13.749 -1.9693 -0.7508  1.5731
 3179TIP3   OH231027   0.923   6.549  13.653  0.0894  0.3006 -0.0509
 3179TIP3    H131028   0.839   6.594  13.644 -0.5942 -0.9603 -0.0729
 3179TIP3    H231029   0.989   6.619  13.648 -1.0082  1.4326  1.2245
 3180TIP3   OH231030   6.273   2.555  12.919 -0.1039 -0.7284  0.2026
 3180TIP3    H131031   6.304   2.632  12.967  2.6822 -0.2139 -2.2619
 3180TIP3    H231032   6.350   2.498  12.912 -1.1714 -2.0556 -1.1834
 3181TIP3   OH231033   5.281   2.163   1.971 -0.0443  0.4409  0.3262
 3181TIP3    H131034   5.208   2.104   1.953  0.0198  0.6500 -0.6298
 3181TIP3    H231035   5.355   2.126   1.923 -0.6620  2.7859 -2.5572
 3182TIP3   OH231036   1.263   5.083  15.102 -0.3984  0.5879  0.3462
 3182TIP3    H131037   1.289   5.130  15.181  0.4831 -2.5769  2.0392
 3182TIP3    H231038   1.168   5.072  15.110 -0.3555  0.5693  0.8225
 3183TIP3   OH231039   5.780   1.888  11.533  0.3232  0.5575  0.0327
 3183TIP3    H131040   5.774   1.972  11.488 -0.2465  0.4867 -0.0228
 3183TIP3    H231041   5.830   1.907  11.613  0.5024  0.8737 -0.1552
 3184TIP3   OH231042   6.587   6.594   1.668 -0.2931 -0.6120  0.1745
 3184TIP3    H131043   6.519   6.531   1.692 -0.4183 -1.1811 -1.6478
 3184TIP3    H231044   6.669   6.553   1.696 -0.3673 -1.6209 -1.0494
 3185TIP3   OH231045   6.545   3.760  16.619 -0.0285  0.0167  0.0267
 3185TIP3    H131046   6.462   3.763  16.571 -1.0561  2.3255  1.8691
 3185TIP3    H231047   6.523   3.787  16.708  2.3904 -1.1438  1.0399
 3186TIP3   OH231048   5.635   0.181  11.905 -0.0037 -0.3403 -0.0514
 3186TIP3    H131049   5.652   0.250  11.841  0.1109  0.0468  0.3906
 3186TIP3    H231050   5.720   0.165  11.946  0.2121 -1.5885 -0.9891
 3187TIP3   OH231051   5.999   1.767  15.316 -0.1319 -0.0633 -0.1608
 3187TIP3    H131052   5.968   1.814  15.393 -1.4797 -0.9536 -0.1455
 3187TIP3    H231053   6.001   1.675  15.343 -0.8906 -0.4135 -1.2627
 3188TIP3   OH231054   3.720   0.262  14.467  0.4915 -0.3795  0.3599
 3188TIP3    H131055   3.807   0.300  14.474  0.7552 -0.5606 -1.8177
 3188TIP3    H231056   3.720   0.191  14.531  1.7498 -0.0412  0.7537
 3189TIP3   OH231057   1.014   1.638  16.774  0.1316 -0.2858  0.3027
 3189TIP3    H131058   0.967   1.595  16.845 -0.6026  0.1762  0.1072
 3189TIP3    H231059   1.091   1.583  16.759  0.1071 -0.5731  1.2142
 3190TIP3   OH231060   4.542   4.114   3.180  0.4316  0.1234 -0.0231
 3190TIP3    H131061   4.473   4.113   3.246  0.6689 -0.5175  0.2270
 3190TIP3    H231062   4.620   4.084   3.228  0.3740 -1.3817 -0.8313
 3191TIP3   OH231063   2.517   0.844  10.810  0.3731  0.1662 -0.0889
 3191TIP3    H131064   2.432   0.830  10.768  0.9460 -0.1612 -1.1574
 3191TIP3    H231065   2.555   0.919  10.763  1.5102 -0.9261 -0.9431
 3192TIP3   OH231066   0.402   0.669   1.760  0.5031 -0.1683  0.5162
 3192TIP3    H131067   0.374   0.747   1.806 -0.6856 -0.3555  0.1140
 3192TIP3    H231068   0.417   0.604   1.829  0.7543  0.1818  0.7888
 3193TIP3   OH231069   0.492   2.398   1.997 -0.1449 -0.1688 -0.2077
 3193TIP3    H131070   0.516   2.447   2.076  1.2429  0.0861 -0.7678
 3193TIP3    H231071   0.438   2.327   2.029 -1.5980  1.3073  0.7072
 3194TIP3   OH231072   0.541   6.529  12.805  0.2737  0.3777  0.0227
 3194TIP3    H131073   0.590   6.501  12.728 -0.4799  0.9282 -0.6690
 3194TIP3    H231074   0.480   6.457  12.822  0.2226  0.3956 -0.0873
 3195TIP3   OH231075   4.036   1.774   5.998 -0.3668 -0.3124 -0.0669
 3195TIP3    H131076   4.116   1.766   6.050  0.1913 -1.4915 -1.0810
 3195TIP3    H231077   4.056   1.842   5.934 -0.2872 -0.3944 -0.1286
 3196TIP3   OH231078   6.578   5.447   5.547 -0.2451  0.4676 -0.7393
 3196TIP3    H131079   6.602   5.355   5.534  0.9794  0.8315 -1.0252
 3196TIP3    H231080   6.533   5.448   5.632  1.1926 -0.1234  0.0398
 3197TIP3   OH231081   6.475   1.851  12.051 -0.1610 -0.3704 -0.1066
 3197TIP3    H131082   6.555   1.894  12.023 -0.3084 -0.2442 -0.3369
 3197TIP3    H231083   6.404   1.908  12.020 -0.2876  0.6394  1.9969
 3198TIP3   OH231084   2.032   4.611   5.648  0.0900 -0.2649 -0.3674
 3198TIP3    H131085   2.070   4.545   5.589 -1.2216  0.3084 -1.8985
 3198TIP3    H231086   1.973   4.662   5.592  0.0321  1.3295  1.1116
 3199TIP3   OH231087   2.298   0.094  15.406 -1.2251  0.1491  0.1320
 3199TIP3    H131088   2.293   0.005  15.441 -1.5566 -1.8199 -4.5043
 3199TIP3    H231089   2.388   0.103  15.377 -2.2785 -0.4801 -3.5670
 3200TIP3   OH231090   1.455   2.598  11.445  0.3116 -0.1631 -0.3424
 3200TIP3    H131091   1.405   2.650  11.508 -1.7327 -1.1476 -1.0878
 3200TIP3    H231092   1.457   2.651  11.365 -0.6963 -0.6740 -0.7157
 3201TIP3   OH231093   1.514   3.330  12.275 -0.1889  0.2677 -0.4118
 3201TIP3    H131094   1.477   3.242  12.274  0.1019  0.1259  0.4420
 3201TIP3    H231095   1.444   3.387  12.244  0.0691 -0.4245 -2.3227
 3202TIP3   OH231096   2.315   1.147   3.103 -0.2732 -0.6438 -0.2885
 3202TIP3    H131097   2.358   1.109   3.179  0.9514 -1.1903 -1.2326
 3202TIP3    H231098   2.383   1.197   3.059 -1.0276 -0.1471 -0.9174
 3203TIP3   OH231099   3.166   1.922  11.672 -0.7730 -0.1547  0.0217
 3203TIP3    H131100   3.165   1.877  11.587  0.5924 -1.7751  0.8428
 3203TIP3    H231101   3.229   1.992  11.661 -1.3016  0.2283 -0.5964
 3204TIP3   OH231102   2.925   3.299   5.580  0.0355  0.3827 -0.1533
 3204TIP3    H131103   2.870   3.261   5.512 -0.3177  0.4396  0.0993
 3204TIP3    H231104   2.979   3.226   5.611 -1.0036 -0.0354  0.6864
 3205TIP3   OH231105   6.590   4.931  13.603 -0.2338  0.0253  0.2680
 3205TIP3    H131106   6.641   4.886  13.535  0.3577 -1.0281  1.3880
 3205TIP3    H231107   6.503   4.940  13.566  0.3177  0.2768 -0.9957
 3206TIP3   OH231108   2.356   2.216  10.867 -0.5719  0.3251  0.5438
 3206TIP3    H131109   2.309   2.178  10.793  0.9484 -0.8081  0.1388
 3206TIP3    H231110   2.442   2.238  10.833 -0.7913  2.3728  1.2824
 3207TIP3   OH231111   5.334   1.097  15.584 -0.6220 -0.1268 -0.0656
 3207TIP3    H131112   5.408   1.085  15.524  0.7657 -0.1754  1.6338
 3207TIP3    H231113   5.328   1.192  15.596 -0.5028 -0.1503  0.1897
 3208TIP3   OH231114   4.149   2.103  14.856  0.2375  0.2479 -0.2976
 3208TIP3    H131115   4.054   2.102  14.843  0.1693  2.4677 -0.1292
 3208TIP3    H231116   4.185   2.076  14.772 -0.5154  0.8716 -0.8284
 3209TIP3   OH231117   1.653   3.086  14.854  0.1479 -0.5517 -0.1709
 3209TIP3    H131118   1.572   3.106  14.901  0.2237  0.6793 -0.5386
 3209TIP3    H231119   1.657   3.152  14.785  0.9322 -1.2586 -0.8041
 3210TIP3   OH231120   6.653   3.654   3.474  0.3596  0.3369  0.1571
 3210TIP3    H131121   6.665   3.586   3.408  1.9303  2.3026 -1.6569
 3210TIP3    H231122   6.589   3.714   3.435 -0.8217  0.0626  1.6297
 3211TIP3   OH231123   6.070   5.823   4.973  0.0164 -0.8382 -0.4321
 3211TIP3    H131124   6.010   5.856   5.041 -0.6894  0.2611 -1.5850
 3211TIP3    H231125   6.017   5.820   4.894  1.3030 -0.5162 -1.3208
 3212TIP3   OH231126   3.481   0.082  15.486 -0.1875 -0.1382 -0.5458
 3212TIP3    H131127   3.432   0.149  15.438 -1.2108 -1.2046 -1.0308
 3212TIP3    H231128   3.538   0.043  15.420  0.7230  0.5430 -0.1660
 3213TIP3   OH231129   1.281   3.944   1.374  0.3205 -0.4302 -0.6949
 3213TIP3    H131130   1.357   3.913   1.324  2.2368  2.0364  0.5763
 3213TIP3    H231131   1.260   4.028   1.335  0.6187  0.6213  1.3394
 3214TIP3   OH231132   3.552   2.365  10.994 -0.5623 -0.3492 -0.1526
 3214TIP3    H131133   3.571   2.454  10.963  0.0629  1.1275  4.1267
 3214TIP3    H231134   3.623   2.311  10.958 -0.3848  1.0495 -1.9740
 3215TIP3   OH231135   3.406   6.181   5.455 -0.1977 -0.4382  0.1476
 3215TIP3    H131136   3.391   6.242   5.528 -2.2530 -0.1038 -0.5140
 3215TIP3    H231137   3.432   6.237   5.382 -3.6780 -0.0477 -0.9308
 3216TIP3   OH231138   3.803   6.529   6.585 -0.3481 -0.5367  0.0733
 3216TIP3    H131139   3.776   6.621   6.589  0.7802 -0.2391  0.8862
 3216TIP3    H231140   3.742   6.490   6.522 -2.1269  0.3221  1.1988
 3217TIP3   OH231141   5.571   3.830  14.188  0.0221 -0.3704  0.4111
 3217TIP3    H131142   5.548   3.914  14.148 -0.1062 -0.4365  0.3463
 3217TIP3    H231143   5.586   3.852  14.280  0.1994 -0.2403  0.3490
 3218TIP3   OH231144   1.074   6.070   1.010  0.6252  0.3384  0.1672
 3218TIP3    H131145   1.045   6.103   1.095  2.0714  0.4669  0.6122
 3218TIP3    H231146   1.109   5.983   1.029 -0.4537 -0.2701 -0.5499
 3219TIP3   OH231147   3.031   6.693  12.358 -0.3680 -0.5931  0.0943
 3219TIP3    H131148   3.052   6.742  12.279  3.0466  1.1682  1.9833
 3219TIP3    H231149   3.087   6.616  12.355  0.3016 -0.1621  1.0801
 3220TIP3   OH231150   6.483   0.931  13.513  0.7357 -0.3593  0.2225
 3220TIP3    H131151   6.478   0.874  13.436 -0.9662 -2.5346  1.8745
 3220TIP3    H231152   6.563   0.905  13.557  1.4555  0.5491 -0.5264
 3221TIP3   OH231153   6.007   6.259  13.778 -0.0668  0.0709  0.0929
 3221TIP3    H131154   6.054   6.315  13.717 -0.9930  0.1802 -0.5246
 3221TIP3    H231155   6.033   6.170  13.754  0.5476  0.1740  0.3625
 3222TIP3   OH231156   6.059   3.512   3.399  0.1958 -0.4060  0.2293
 3222TIP3    H131157   6.048   3.510   3.494  0.0217 -1.8170  0.1890
 3222TIP3    H231158   6.153   3.517   3.385  0.1189  2.2312  0.4885
 3223TIP3   OH231159   2.999   4.884  13.494 -0.0537 -0.2018  0.6146
 3223TIP3    H131160   2.927   4.845  13.544 -0.4621  0.0019  0.1911
 3223TIP3    H231161   2.991   4.978  13.511  1.0462 -0.3112  1.7898
 3224TIP3   OH231162   6.604   3.619   1.864 -0.4731  0.4576 -0.2926
 3224TIP3    H131163   6.644   3.649   1.782 -0.5654  1.7266  0.1260
 3224TIP3    H231164   6.511   3.640   1.854 -0.4032  1.1097  0.3473
 3225TIP3   OH231165   5.089   6.449  16.280 -0.0479 -0.3396 -0.1214
 3225TIP3    H131166   5.035   6.485  16.350 -0.7970 -2.2987  0.3216
 3225TIP3    H231167   5.028   6.435  16.207 -0.1342 -2.4716  0.3481
 3226TIP3   OH231168   3.271   2.283  14.154 -0.7062  0.2619 -0.5989
 3226TIP3    H131169   3.300   2.250  14.068 -1.7623 -0.7148 -0.5909
 3226TIP3    H231170   3.258   2.204  14.206  1.1345  0.8887  0.8783
 3227TIP3   OH231171   0.912   2.664  15.058 -0.0857  0.4365  0.0881
 3227TIP3    H131172   0.965   2.618  14.993 -1.4763  0.6619 -1.2241
 3227TIP3    H231173   0.876   2.594  15.113  1.7456  0.2959  1.1542
 3228TIP3   OH231174   2.041   5.275   3.534 -0.1203  0.2786 -0.2582
 3228TIP3    H131175   2.084   5.245   3.614  0.1177 -1.4616 -1.0331
 3228TIP3    H231176   2.111   5.319   3.484 -0.1614  0.9378  0.2560
 3229TIP3   OH231177   4.955   3.186   5.537  0.2935 -0.2657  0.1830
 3229TIP3    H131178   5.034   3.134   5.525  0.5979  0.1087  0.5636
 3229TIP3    H231179   4.893   3.125   5.577  0.9188 -0.1228  1.3985
 3230TIP3   OH231180   0.666   2.567  14.326  0.1853  0.6022 -0.2183
 3230TIP3    H131181   0.655   2.490  14.271 -0.9582  0.5554  0.0615
 3230TIP3    H231182   0.760   2.580  14.330  0.3866 -0.7437 -0.3161
 3231TIP3   OH231183   5.535   4.889   5.268 -0.1859  0.4918 -0.4171
 3231TIP3    H131184   5.450   4.894   5.312  0.4500 -0.4611  0.9701
 3231TIP3    H231185   5.593   4.944   5.321  0.2636  0.4790 -0.8913
 3232TIP3   OH231186   3.782   0.395  12.253  0.3887 -0.4782  0.7681
 3232TIP3    H131187   3.810   0.482  12.224  0.0312  0.1225  2.1747
 3232TIP3    H231188   3.695   0.384  12.213  0.6377 -0.3931  0.1948
 3233TIP3   OH231189   0.900   5.450   6.190  0.4353 -0.3797  0.0195
 3233TIP3    H131190   0.921   5.543   6.192  1.2572 -0.5231 -1.3126
 3233TIP3    H231191   0.976   5.407   6.230 -0.1609 -0.4510  1.0932
 3234TIP3   OH231192   6.022   4.254  16.764  0.1179  0.2803 -0.1552
 3234TIP3    H131193   6.020   4.164  16.732  1.1359  0.1088  0.2404
 3234TIP3    H231194   5.931   4.282  16.762 -0.2011 -0.7431 -0.3233
 3235TIP3   OH231195   3.544   1.294  14.100  0.2575 -0.1467 -0.3449
 3235TIP3    H131196   3.539   1.359  14.170  1.2540  1.0236 -1.3209
 3235TIP3    H231197   3.454   1.284  14.069  0.2229  1.4390 -0.7794
 3236TIP3   OH231198   5.497   5.331  14.434 -0.3191  0.0984  0.1127
 3236TIP3    H131199   5.420   5.375  14.470 -1.0084  0.7006 -2.0230
 3236TIP3    H231200   5.548   5.401  14.393 -0.2865 -0.7525 -1.3388
 3237TIP3   OH231201   5.806   3.055   5.925  0.1214  0.3949  0.2651
 3237TIP3    H131202   5.721   3.098   5.921 -0.2835 -0.3604  0.6779
 3237TIP3    H231203   5.841   3.079   6.012 -1.6210 -2.9110  1.9552
 3238TIP3   OH231204   3.154   6.415   5.008  0.9813 -0.6580  0.4469
 3238TIP3    H131205   3.107   6.388   4.929  2.0147 -1.4583  0.0806
 3238TIP3    H231206   3.196   6.497   4.985  0.3563 -0.3049  0.5460
 3239TIP3   OH231207   3.105   5.856   5.804  0.7562 -0.2738 -0.5506
 3239TIP3    H131208   3.084   5.933   5.857  1.6656 -1.2616  1.2951
 3239TIP3    H231209   3.023   5.834   5.760  0.0638  0.7531  0.2108
 3240TIP3   OH231210   5.649   1.691  16.984  0.4118  0.3495 -0.1067
 3240TIP3    H131211   5.613   1.623  16.927 -0.4542  0.5123  0.2527
 3240TIP3    H231212   5.743   1.672  16.986  0.3815  0.0661 -1.2120
 3241TIP3   OH231213   1.389   6.617  11.195  0.2537  0.3694 -0.2092
 3241TIP3    H131214   1.414   6.639  11.105  2.4656  0.0975  0.3249
 3241TIP3    H231215   1.293   6.617  11.193  0.2301 -1.8393 -3.1099
 3242TIP3   OH231216   0.426   4.461  16.104  0.1208  0.0589 -0.0807
 3242TIP3    H131217   0.513   4.502  16.105 -0.1917  0.7098  0.0706
 3242TIP3    H231218   0.426   4.406  16.183 -0.2305  1.3585  0.8371
 3243TIP3   OH231219   0.970   0.575   4.386 -0.0416  0.1134  0.2108
 3243TIP3    H131220   0.987   0.619   4.302 -1.2725  0.5401  0.1695
 3243TIP3    H231221   1.046   0.518   4.399  1.6358  2.2972  0.2978
 3244TIP3   OH231222   4.526   1.681  16.427  0.5310  0.4389  0.3085
 3244TIP3    H131223   4.507   1.697  16.519  0.4034 -2.1309  0.7701
 3244TIP3    H231224   4.455   1.625  16.396  2.3477 -1.5863 -0.3941
 3245TIP3   OH231225   4.802   1.148  16.042 -0.1779  0.3717 -0.0451
 3245TIP3    H131226   4.875   1.205  16.019 -0.6493  0.7143 -0.7008
 3245TIP3    H231227   4.729   1.179  15.988 -0.4363 -0.8560 -0.4096
 3246TIP3   OH231228   0.369   4.667   1.197 -0.3021  0.2995  0.2406
 3246TIP3    H131229   0.461   4.693   1.188 -0.2563  0.3984  0.9393
 3246TIP3    H231230   0.323   4.720   1.132  0.1702  0.0817 -0.2652
 3247TIP3   OH231231   1.128   0.771   1.114  0.3641 -0.0636  0.5056
 3247TIP3    H131232   1.132   0.774   1.210 -1.5516 -2.0338  0.7022
 3247TIP3    H231233   1.170   0.688   1.091  1.2661  0.6356 -0.4182
 3248TIP3   OH231234   1.194   4.392  14.015 -0.0637 -0.1440 -0.0820
 3248TIP3    H131235   1.163   4.418  13.929 -0.2249 -0.0368  0.0073
 3248TIP3    H231236   1.139   4.318  14.040  1.1356 -1.2925 -0.8091
 3249TIP3   OH231237   1.070   6.540   1.264 -0.1355 -0.0368  0.0931
 3249TIP3    H131238   1.109   6.472   1.209  1.0316  0.5275  0.2059
 3249TIP3    H231239   0.977   6.521   1.263  0.2172 -1.8918  0.4665
 3250TIP3   OH231240   3.672   4.190   2.155 -0.3834  0.2958 -0.1145
 3250TIP3    H131241   3.604   4.250   2.187 -0.4225  0.8326 -1.1709
 3250TIP3    H231242   3.709   4.151   2.234  0.7963  2.9914  0.7130
 3251TIP3   OH231243   4.452   3.005   1.896 -0.0855 -0.4246 -0.4275
 3251TIP3    H131244   4.371   2.962   1.923 -0.0492  0.3314  0.9373
 3251TIP3    H231245   4.497   2.939   1.843 -3.2264  0.4032 -4.3521
 3252TIP3   OH231246   6.684   3.434   5.745 -0.2171  0.3174 -0.4456
 3252TIP3    H131247   6.693   3.469   5.656 -1.2109  0.0523 -0.6570
 3252TIP3    H231248   6.604   3.381   5.741 -1.5521  2.1615  1.2124
 3253TIP3   OH231249   6.024   2.924  14.845 -0.4799  0.9577  0.1356
 3253TIP3    H131250   6.058   2.835  14.858 -0.8473  0.8540  0.4128
 3253TIP3    H231251   6.014   2.959  14.934 -0.5768  1.1828  0.0361
 3254TIP3   OH231252   0.442   0.237  12.595  0.3874 -0.5332  0.0681
 3254TIP3    H131253   0.426   0.244  12.501  0.0246  0.7340  0.2164
 3254TIP3    H231254   0.499   0.161  12.603  0.0006 -0.9742 -1.1259
 3255TIP3   OH231255   4.050   1.680   4.583 -0.2429 -0.6239  0.3196
 3255TIP3    H131256   4.105   1.731   4.523 -1.1883 -0.3410 -0.3227
 3255TIP3    H231257   4.022   1.743   4.649  0.5572 -0.8674  0.8925
 3256TIP3   OH231258   5.957   5.792   0.393 -0.6029  0.7478 -0.6313
 3256TIP3    H131259   5.876   5.839   0.371 -0.6362  1.6804  1.4039
 3256TIP3    H231260   5.975   5.816   0.483  0.6905 -1.3186 -0.3025
 3257TIP3   OH231261   6.396   1.483  11.535 -0.7615  0.5076 -0.0245
 3257TIP3    H131262   6.358   1.522  11.614  0.4031  1.1775  0.2112
 3257TIP3    H231263   6.450   1.552  11.498  1.3304 -0.8505  0.3872
 3258TIP3   OH231264   6.684   5.683   2.018 -0.2164 -0.8683 -0.0024
 3258TIP3    H131265   6.642   5.610   1.971 -1.0415 -0.4274  0.0420
 3258TIP3    H231266   6.652   5.674   2.108  2.8503 -2.8447  0.9589
 3259TIP3   OH231267   3.563   0.462   6.299  0.0670 -0.6257 -0.1580
 3259TIP3    H131268   3.519   0.410   6.367 -0.6400 -0.0412 -0.1735
 3259TIP3    H231269   3.512   0.543   6.293  0.6885 -0.2720 -0.7175
 3260TIP3   OH231270   3.776   0.352   3.249 -0.6289 -0.2642 -0.2555
 3260TIP3    H131271   3.825   0.357   3.332  0.5379  0.8152 -0.9952
 3260TIP3    H231272   3.844   0.344   3.182 -1.4234  2.1593 -1.3855
 3261TIP3   OH231273   3.405   6.459  12.937 -0.4504  0.3835 -0.1400
 3261TIP3    H131274   3.362   6.408  12.868  2.0216 -0.1611 -1.3227
 3261TIP3    H231275   3.424   6.543  12.896  0.7862  0.1582 -0.0296
 3262TIP3   OH231276   5.808   1.468  13.621 -0.2442  0.0925 -0.1004
 3262TIP3    H131277   5.747   1.501  13.688 -1.3494  0.2514 -1.1747
 3262TIP3    H231278   5.782   1.378  13.606 -0.0782  0.0943 -0.4124
 3263TIP3   OH231279   2.381   5.995   3.220 -0.2972 -0.5672 -0.1149
 3263TIP3    H131280   2.444   5.958   3.282  0.1962  1.2887  0.5152
 3263TIP3    H231281   2.427   6.070   3.181 -1.1740 -0.7655 -1.5677
 3264TIP3   OH231282   1.629   5.904  13.383 -0.2063  0.1538  0.1149
 3264TIP3    H131283   1.614   5.998  13.373  0.8628  0.1792 -1.3979
 3264TIP3    H231284   1.569   5.863  13.321  0.1799 -0.0904 -0.1054
 3265TIP3   OH231285   3.582   4.304   2.505  0.3839 -0.0389  0.0675
 3265TIP3    H131286   3.660   4.251   2.488  0.4085 -0.4886  1.4967
 3265TIP3    H231287   3.521   4.282   2.434  0.9095 -0.9742 -0.0927
 3266TIP3   OH231288   2.539   1.162  16.213 -0.4627  0.3986  0.4485
 3266TIP3    H131289   2.536   1.075  16.174  0.4843  1.1995 -1.5193
 3266TIP3    H231290   2.580   1.216  16.146  2.6633  1.5405  3.1589
 3267TIP3   OH231291   5.816   1.159   6.060  0.4047 -0.0453 -0.2803
 3267TIP3    H131292   5.834   1.134   6.151  0.8181 -0.5402 -0.4983
 3267TIP3    H231293   5.796   1.252   6.064  1.3343  0.1391  0.1959
 3268TIP3   OH231294   2.587   4.300   0.435  0.0708 -0.6900 -0.3477
 3268TIP3    H131295   2.500   4.275   0.404  0.3343 -0.4694 -1.3045
 3268TIP3    H231296   2.574   4.327   0.526 -0.7738 -1.1155 -0.3400
 3269TIP3   OH231297   4.967   1.653  16.087 -0.1489 -0.1323 -0.5127
 3269TIP3    H131298   4.911   1.730  16.083 -0.3062 -0.2446 -0.4930
 3269TIP3    H231299   5.009   1.658  16.173  1.0027  0.7312 -1.1140
 3270TIP3   OH231300   1.728   5.211   4.583 -0.0526 -0.5550 -0.0131
 3270TIP3    H131301   1.760   5.288   4.536  0.9674 -1.2097 -0.4051
 3270TIP3    H231302   1.645   5.239   4.623  0.8754  1.0758  0.7853
 3271TIP3   OH231303   2.998   0.985   5.839 -0.1706 -0.2946  0.0214
 3271TIP3    H131304   2.968   1.021   5.755 -0.0499  1.8603  0.8553
 3271TIP3    H231305   3.078   1.034   5.858 -0.1255 -0.8732  1.3316
 3272TIP3   OH231306   4.492   5.527  12.882 -0.2712 -0.4150  0.1979
 3272TIP3    H131307   4.419   5.564  12.833  0.9655  0.0786 -1.3121
 3272TIP3    H231308   4.451   5.462  12.940 -2.0441  0.8170  0.3649
 3273TIP3   OH231309   5.803   3.547  11.715 -0.4633 -0.0802  0.8130
 3273TIP3    H131310   5.840   3.493  11.785 -0.5796 -1.3494 -0.0888
 3273TIP3    H231311   5.710   3.526  11.715 -0.4945  0.0517  0.3890
 3274TIP3   OH231312   3.888   2.740  11.645 -0.2627  0.7904  0.0275
 3274TIP3    H131313   3.959   2.796  11.674  0.0726  1.1239 -1.4067
 3274TIP3    H231314   3.832   2.797  11.593  0.0575 -0.1681 -1.4052
 3275TIP3   OH231315   1.254   0.833   0.049  0.9239  0.1383 -0.0675
 3275TIP3    H131316   1.240   0.754  -0.003  0.0173 -0.1149  0.5358
 3275TIP3    H231317   1.349   0.842   0.054  1.0318  0.0489 -1.5729
 3276TIP3   OH231318   2.552   0.639  11.746  0.1836  0.0240 -0.6172
 3276TIP3    H131319   2.569   0.595  11.829 -0.9008  0.4057 -0.1899
 3276TIP3    H231320   2.627   0.697  11.734  0.5446 -0.3352 -0.1098
 3277TIP3   OH231321   0.877   0.255   5.435  0.3280  0.0924  0.3635
 3277TIP3    H131322   0.871   0.310   5.357  0.9856  0.9761  0.9228
 3277TIP3    H231323   0.808   0.288   5.493  0.7535  0.3817  0.7187
 3278TIP3   OH231324   1.522   3.794   5.272 -0.4983 -0.3085  0.3083
 3278TIP3    H131325   1.608   3.778   5.235 -0.2964 -0.1162  0.6921
 3278TIP3    H231326   1.494   3.708   5.305 -0.2602 -0.2804  0.5875
 3279TIP3   OH231327   6.108   3.169   2.829 -0.0473  0.1398  0.4384
 3279TIP3    H131328   6.038   3.235   2.827  0.4382  0.6427 -0.1211
 3279TIP3    H231329   6.188   3.219   2.816  0.3709 -0.5122  0.4890
 3280TIP3   OH231330   3.519   4.016   4.475  0.4046  0.4863 -0.2023
 3280TIP3    H131331   3.446   4.059   4.519 -2.2597 -2.2088 -1.7741
 3280TIP3    H231332   3.536   4.069   4.398  1.8997  2.5686  1.5194
 3281TIP3   OH231333   2.475   4.624  15.916  0.0929  0.4819 -0.3216
 3281TIP3    H131334   2.384   4.628  15.888 -0.6265 -2.2466  1.4899
 3281TIP3    H231335   2.481   4.687  15.987 -0.0818  1.4520 -1.1467
 3282TIP3   OH231336   5.602   3.062   6.213  0.0739  0.6329  0.1097
 3282TIP3    H131337   5.625   2.976   6.249 -0.8630  0.1602 -0.3962
 3282TIP3    H231338   5.538   3.096   6.276  0.0078  0.7061  0.0018
 3283TIP3   OH231339   3.583   5.715   4.822  0.9781  0.0262  0.9231
 3283TIP3    H131340   3.606   5.796   4.777 -0.4549  0.7613  1.4757
 3283TIP3    H231341   3.627   5.722   4.907  1.8916 -0.3693  0.4944
 3284TIP3   OH231342   3.636   3.683   4.801  0.2838  0.4133 -0.9128
 3284TIP3    H131343   3.643   3.597   4.760 -0.5254 -0.9816  1.7542
 3284TIP3    H231344   3.561   3.724   4.759  0.9478 -0.0040 -2.5227
 3285TIP3   OH231345   2.209   1.144  13.468 -0.3051 -0.2356  0.2183
 3285TIP3    H131346   2.197   1.212  13.534  0.2267  1.3351 -1.2881
 3285TIP3    H231347   2.237   1.067  13.518  0.4536  1.0318  1.7793
 3286TIP3   OH231348   2.281   5.491  12.373 -0.0649 -0.2506 -0.4363
 3286TIP3    H131349   2.252   5.400  12.367 -1.1818  0.1491 -1.4952
 3286TIP3    H231350   2.220   5.531  12.435  0.9700 -0.4298  0.6946
 3287TIP3   OH231351   2.577   2.688   6.517 -0.3122  0.3324  0.2191
 3287TIP3    H131352   2.503   2.628   6.506 -1.4414  1.4013  1.9085
 3287TIP3    H231353   2.633   2.645   6.582 -0.4421  0.4478  0.4093
 3288TIP3   OH231354   1.375   3.751  11.470 -0.7447 -0.3965 -0.4361
 3288TIP3    H131355   1.441   3.707  11.416 -0.2976 -0.6521  0.3173
 3288TIP3    H231356   1.325   3.803  11.407  0.5123  0.2191 -0.9506
 3289TIP3   OH231357   2.254   3.056   2.036  0.3969 -0.1044  0.0351
 3289TIP3    H131358   2.309   3.055   2.114  0.3770 -5.3721  0.1629
 3289TIP3    H231359   2.165   3.046   2.070  0.1579 -0.0166 -0.5623
 3290TIP3   OH231360   4.966   4.680   2.053 -0.0617  0.3342 -0.1431
 3290TIP3    H131361   5.032   4.748   2.038 -0.1722  0.1657 -1.4285
 3290TIP3    H231362   4.886   4.715   2.015 -0.2621 -0.2590 -0.2727
 3291TIP3   OH231363   4.311   5.286   4.639  0.1079 -0.3011  0.0811
 3291TIP3    H131364   4.239   5.232   4.608 -0.6933  0.4172  0.6768
 3291TIP3    H231365   4.387   5.256   4.589 -0.7724 -0.4721 -1.1791
 3292TIP3   OH231366   6.647   3.292   1.634  0.1116  0.1762  0.7526
 3292TIP3    H131367   6.619   3.359   1.573 -1.4294 -1.6563 -0.6172
 3292TIP3    H231368   6.698   3.231   1.580  0.6111 -0.3074  1.7606
 3293TIP3   OH231369   5.870   1.661  16.604 -0.3833  0.1954  0.2321
 3293TIP3    H131370   5.850   1.589  16.544 -1.3343  0.2451  0.4846
 3293TIP3    H231371   5.916   1.619  16.677 -0.0883 -0.0093 -0.0683
 3294TIP3   OH231372   2.655   2.466   4.462 -0.2812 -0.3512  0.0474
 3294TIP3    H131373   2.645   2.549   4.416 -0.7411 -0.3471  0.1522
 3294TIP3    H231374   2.689   2.405   4.397  2.2203  0.4838  0.5205
 3295TIP3   OH231375   5.420   0.955  16.242  0.1843 -0.4380 -0.0324
 3295TIP3    H131376   5.342   0.958  16.297 -0.5492 -0.8857 -1.0280
 3295TIP3    H231377   5.386   0.962  16.153  1.1848 -1.9839 -0.5360
 3296TIP3   OH231378   3.945   0.198  13.758  0.2766  0.2853  0.3043
 3296TIP3    H131379   3.991   0.268  13.712  0.9580 -0.6337 -0.4106
 3296TIP3    H231380   3.852   0.218  13.742  0.4365  1.4414  0.7315
 3297TIP3   OH231381   1.349   1.970  11.199  0.7451  0.3199 -0.0094
 3297TIP3    H131382   1.380   2.044  11.251  0.5903  0.6527 -0.3930
 3297TIP3    H231383   1.428   1.926  11.169  0.8358  0.1988  0.3993
 3298TIP3   OH231384   0.141   3.531  15.656  0.3508 -0.1307  0.1287
 3298TIP3    H131385   0.060   3.579  15.670 -0.1563 -1.3091  1.3116
 3298TIP3    H231386   0.204   3.571  15.716  0.4553  0.3096 -0.2713
 3299TIP3   OH231387   1.125   0.053   4.960 -0.4441 -0.3824 -0.1484
 3299TIP3    H131388   1.204   0.105   4.975 -0.2569 -0.6470 -0.2306
 3299TIP3    H231389   1.070   0.109   4.905 -0.1756 -0.3357 -0.3693
 3300TIP3   OH231390   2.124   0.184   2.306 -0.6492 -0.0391  0.0611
 3300TIP3    H131391   2.147   0.170   2.214  0.5779 -1.1702  0.5247
 3300TIP3    H231392   2.054   0.249   2.304  1.3797  2.1761 -1.5291
 3301TIP3   OH231393   4.876   3.834   2.387 -0.2334  1.1987 -0.0578
 3301TIP3    H131394   4.852   3.856   2.478 -1.6044 -0.4728  0.0003
 3301TIP3    H231395   4.795   3.845   2.338 -0.2039 -0.6896 -0.5612
 3302TIP3   OH231396   0.578   4.382   2.084  0.3668 -0.0761  0.5166
 3302TIP3    H131397   0.593   4.288   2.090  0.9510 -0.2185 -2.1726
 3302TIP3    H231398   0.635   4.420   2.151  3.3792 -1.4413 -1.1343
 3303TIP3   OH231399   2.040   6.693   4.167 -0.2849 -0.3575  0.1792
 3303TIP3    H131400   2.116   6.739   4.131 -1.0158  2.0495  1.6110
 3303TIP3    H231401   2.070   6.660   4.252 -0.1784 -1.3117 -0.2333
 3304TIP3   OH231402   5.822   2.346  13.547  0.2134 -0.4496 -0.3953
 3304TIP3    H131403   5.891   2.349  13.613  1.2517 -0.1851 -1.4799
 3304TIP3    H231404   5.867   2.364  13.465 -1.0001 -1.2300 -1.2342
 3305TIP3   OH231405   3.339   2.203   3.913 -0.6167  0.1251 -0.4829
 3305TIP3    H131406   3.388   2.264   3.859  0.4595  0.4520  0.8371
 3305TIP3    H231407   3.269   2.256   3.952  0.4298  0.5672  0.8087
 3306TIP3   OH231408   3.190   1.473   4.381 -0.2763 -0.5861  0.5850
 3306TIP3    H131409   3.187   1.394   4.436 -0.9535 -1.3347 -0.5052
 3306TIP3    H231410   3.183   1.440   4.292 -0.7457  0.7362  0.1244
 3307TIP3   OH231411   3.714   3.611   2.060 -0.0852 -0.6951  0.2382
 3307TIP3    H131412   3.766   3.597   1.981  1.5456  0.4396  1.0881
 3307TIP3    H231413   3.635   3.656   2.029 -0.1079 -1.5024 -0.9132
 3308TIP3   OH231414   4.839   2.669  15.851 -0.3785 -0.3007 -0.1643
 3308TIP3    H131415   4.822   2.681  15.757 -1.1202 -0.9159 -0.1073
 3308TIP3    H231416   4.874   2.580  15.858  1.5765  0.4451 -0.1039
 3309TIP3   OH231417   3.635   4.244   3.516 -0.7583 -0.1911 -0.6734
 3309TIP3    H131418   3.724   4.220   3.540 -0.3545  0.5807 -1.3847
 3309TIP3    H231419   3.584   4.233   3.597  0.4569  1.8201  0.3817
 3310TIP3   OH231420   5.817   5.510  12.530 -0.2182  0.4158  0.6867
 3310TIP3    H131421   5.905   5.526  12.495 -1.0187  0.2004 -1.5427
 3310TIP3    H231422   5.807   5.415  12.525 -1.4711  0.6368 -1.4034
 3311TIP3   OH231423   0.949   1.949  13.698  0.3564  0.2276 -0.3908
 3311TIP3    H131424   0.940   2.007  13.774 -0.0128  0.7678 -0.8352
 3311TIP3    H231425   0.899   1.871  13.721  1.5692 -0.2772  0.5594
 3312TIP3   OH231426   5.574   4.728   0.474 -0.0567  0.2216 -0.4767
 3312TIP3    H131427   5.531   4.669   0.535 -2.0206  1.9729 -0.1173
 3312TIP3    H231428   5.664   4.736   0.508 -1.3081  1.7392  2.6493
 3313TIP3   OH231429   2.938   5.523  16.633  0.3544 -0.0318 -0.4812
 3313TIP3    H131430   2.925   5.601  16.578  0.9094 -0.5434 -1.3485
 3313TIP3    H231431   3.006   5.550  16.696 -0.1609  0.4985 -0.1429
 3314TIP3   OH231432   0.360   2.158   2.202 -0.6709 -0.1615  0.1209
 3314TIP3    H131433   0.371   2.116   2.288 -0.3095 -1.0600 -0.3521
 3314TIP3    H231434   0.341   2.086   2.143 -0.7618  0.4387 -0.5834
 3315TIP3   OH231435   2.385   4.254   5.827 -0.2796 -0.1462  0.0634
 3315TIP3    H131436   2.347   4.288   5.746  1.5033  1.9036  0.0720
 3315TIP3    H231437   2.320   4.274   5.894 -0.4480  0.7906 -0.3790
 3316TIP3   OH231438   3.301   3.492  13.647 -0.4231 -0.0916 -0.0462
 3316TIP3    H131439   3.256   3.514  13.565  0.2061 -4.0574 -1.5749
 3316TIP3    H231440   3.264   3.408  13.673  1.6624 -0.4186  2.0386
 3317TIP3   OH231441   0.812   5.211  13.524  0.0239 -0.0322  0.0416
 3317TIP3    H131442   0.873   5.170  13.585  0.0190 -1.1846 -0.7087
 3317TIP3    H231443   0.739   5.149  13.519 -0.9063  1.0208  0.4289
 3318TIP3   OH231444   4.290   4.930  14.434  0.5066  0.3368 -0.3040
 3318TIP3    H131445   4.245   4.894  14.357 -0.4512 -0.2965  0.5512
 3318TIP3    H231446   4.328   4.854  14.478  2.5210  0.8630 -1.0574
 3319TIP3   OH231447   0.245   3.835  12.349  0.1049 -0.7415 -0.4301
 3319TIP3    H131448   0.158   3.804  12.325  0.6528 -1.5745 -1.3574
 3319TIP3    H231449   0.306   3.773  12.308  1.1947  1.1094 -1.6778
 3320TIP3   OH231450   5.301   2.693   2.200 -0.3152 -0.3402 -0.3559
 3320TIP3    H131451   5.392   2.705   2.228 -0.8323 -3.2788  2.9806
 3320TIP3    H231452   5.249   2.734   2.270 -1.5778 -0.8577 -0.9807
 3321TIP3   OH231453   4.967   5.382  11.392 -0.4051 -0.5304  0.5535
 3321TIP3    H131454   4.909   5.411  11.321 -1.3971  0.4807  1.7518
 3321TIP3    H231455   4.915   5.318  11.441  0.8225 -2.3716 -0.4962
 3322TIP3   OH231456   4.270   0.820  14.096 -0.1448 -0.1546 -0.4718
 3322TIP3    H131457   4.208   0.858  14.159 -1.8367 -1.5399 -1.2341
 3322TIP3    H231458   4.222   0.821  14.013  0.2450 -2.6968 -0.7614
 3323TIP3   OH231459   0.417   0.038  16.580  0.2149 -0.3869  0.0717
 3323TIP3    H131460   0.412   0.105  16.512 -0.5991  0.5549  1.0342
 3323TIP3    H231461   0.484  -0.023  16.549 -0.4082 -0.1703 -1.7362
 3324TIP3   OH231462   0.619   3.858  17.062  0.2041  0.0597 -0.1921
 3324TIP3    H131463   0.693   3.919  17.065  0.5074 -0.2608 -1.0269
 3324TIP3    H231464   0.553   3.904  17.011  0.4745 -0.3561 -0.9146
 3325TIP3   OH231465   3.856   3.272   4.198  0.0005 -0.4131  0.4442
 3325TIP3    H131466   3.939   3.225   4.191 -1.5383 -3.2181  0.0707
 3325TIP3    H231467   3.795   3.207   4.234 -2.1781  1.4132  0.1766
 3326TIP3   OH231468   4.317   5.214   5.571  0.5187 -0.1047  0.6334
 3326TIP3    H131469   4.282   5.177   5.489  0.5931  0.0219  0.5444
 3326TIP3    H231470   4.355   5.139   5.617 -0.5670 -0.3816  1.0890
 3327TIP3   OH231471   6.069   5.224  16.241 -0.2813  0.2743  0.4302
 3327TIP3    H131472   5.993   5.236  16.183 -0.1205  0.3799  0.2405
 3327TIP3    H231473   6.140   5.270  16.197  0.0062 -0.2191  0.3765
 3328TIP3   OH231474   5.534   3.559   1.502 -0.1360 -0.5079 -0.0817
 3328TIP3    H131475   5.551   3.487   1.563 -0.4689 -1.3078 -0.9319
 3328TIP3    H231476   5.456   3.532   1.453  1.0179 -0.5639 -1.9321
 3329TIP3   OH231477   5.355   6.618  17.039  0.8046  0.0282 -0.1707
 3329TIP3    H131478   5.450   6.612  17.048  0.9129  0.1534 -1.1105
 3329TIP3    H231479   5.337   6.580  16.953  0.0960  0.7819 -0.3705
 3330TIP3   OH231480   4.147   6.120  12.916 -0.2085 -0.3593  0.1188
 3330TIP3    H131481   4.063   6.074  12.915  0.4270 -1.5599 -0.7396
 3330TIP3    H231482   4.193   6.084  12.991 -0.0333 -0.5422 -0.0736
 3331TIP3   OH231483   6.472   3.949   2.704 -0.1543  0.5006 -0.8423
 3331TIP3    H131484   6.433   3.936   2.791 -0.3605 -0.4582 -1.0662
 3331TIP3    H231485   6.549   4.003   2.720 -0.4158  0.6636 -0.1129
 3332TIP3   OH231486   3.301   1.868   3.499  0.5599  0.1873 -0.3379
 3332TIP3    H131487   3.383   1.876   3.450  0.3075  1.1572 -0.6007
 3332TIP3    H231488   3.287   1.955   3.536  0.4769 -0.4031  1.0293
 3333TIP3   OH231489   6.682   2.666  13.205  0.6699 -0.5674  0.0799
 3333TIP3    H131490   6.655   2.743  13.256 -1.0914 -0.4696 -0.9450
 3333TIP3    H231491   6.761   2.694  13.160  0.8780  0.1522  0.8841
 3334TIP3   OH231492   0.767   6.517  14.683 -0.1574  0.0335  0.2480
 3334TIP3    H131493   0.815   6.446  14.638  0.3936  0.1465  0.6514
 3334TIP3    H231494   0.752   6.582  14.614 -0.1378 -0.2093  0.0112
 3335TIP3   OH231495   1.958   6.071   4.641 -0.1702  0.0158 -0.2051
 3335TIP3    H131496   1.896   6.117   4.585 -0.7544 -0.9310 -0.3494
 3335TIP3    H231497   1.927   6.087   4.730  0.0327  0.4760 -0.2153
 3336TIP3   OH231498   1.031   4.958   2.860  0.1887  0.5113  0.0594
 3336TIP3    H131499   0.979   4.888   2.899 -1.1205  0.5101 -1.6746
 3336TIP3    H231500   1.051   5.017   2.934 -1.2678 -0.0857  0.9434
 3337TIP3   OH231501   6.312   2.767  16.219 -0.4349  0.0459 -0.5494
 3337TIP3    H131502   6.274   2.851  16.245 -1.4807 -0.4341 -0.4906
 3337TIP3    H231503   6.270   2.702  16.276 -0.2875 -0.6189 -1.1862
 3338TIP3   OH231504   3.149   3.803   0.281  0.5813 -0.9974 -0.4861
 3338TIP3    H131505   3.158   3.863   0.355  2.2180 -1.7997 -0.0095
 3338TIP3    H231506   3.057   3.778   0.281  1.0188 -2.8722  2.7580
 3339TIP3   OH231507   4.273   2.460   0.655  0.1908  0.1915 -0.2219
 3339TIP3    H131508   4.211   2.396   0.689  0.4999 -0.6789 -1.2336
 3339TIP3    H231509   4.250   2.542   0.697 -0.7203 -0.4301  0.5008
 3340TIP3   OH231510   1.320   1.339  13.577 -0.6836 -0.3529  0.1392
 3340TIP3    H131511   1.300   1.305  13.489  2.2871 -0.4652 -0.5634
 3340TIP3    H231512   1.256   1.408  13.591 -0.3239  0.6580 -2.7589
 3341TIP3   OH231513   2.039   0.427   0.598 -0.6017 -0.2884  0.2797
 3341TIP3    H131514   1.955   0.436   0.641 -0.3818  0.5389  0.5526
 3341TIP3    H231515   2.102   0.419   0.669 -0.5183 -1.6676  0.0695
 3342TIP3   OH231516   1.029   6.239   2.299 -0.0332  0.1538  0.0286
 3342TIP3    H131517   0.981   6.160   2.326  3.0334 -1.9948 -0.5889
 3342TIP3    H231518   0.978   6.273   2.225 -0.7674 -1.9223 -0.4648
 3343TIP3   OH231519   5.617   5.301   0.654  0.5098  1.0731  0.2493
 3343TIP3    H131520   5.674   5.378   0.663  1.5222  0.6596 -2.1301
 3343TIP3    H231521   5.530   5.337   0.642  0.9954  1.8774 -0.9879
 3344TIP3   OH231522   0.460   4.243  16.285 -0.0143  0.0612  0.0890
 3344TIP3    H131523   0.554   4.228  16.278  0.1939  0.8337  1.1965
 3344TIP3    H231524   0.425   4.162  16.321  0.6005  0.7778  2.3610
 3345TIP3   OH231525   2.109   4.855  14.137  0.0159 -0.0669 -0.3786
 3345TIP3    H131526   2.077   4.890  14.055 -1.8625  0.2244  0.4508
 3345TIP3    H231527   2.187   4.907  14.157 -0.1878  0.6321 -1.3834
 3346TIP3   OH231528   0.399   6.086  12.329 -0.0493 -0.2562 -0.4376
 3346TIP3    H131529   0.479   6.048  12.365  0.2979  1.2986  0.5041
 3346TIP3    H231530   0.429   6.144  12.260 -0.4655 -0.6219 -0.9290
 3347TIP3   OH231531   5.085   1.482   2.083  0.4739 -0.0715 -0.5385
 3347TIP3    H131532   5.059   1.482   1.991 -2.4804 -0.5295  0.2217
 3347TIP3    H231533   5.058   1.396   2.115  3.8157 -0.8958  0.1755
 3348TIP3   OH231534   4.740   2.686  11.125  0.3464 -0.0608  0.0882
 3348TIP3    H131535   4.772   2.598  11.102  0.7740 -0.3260  1.5923
 3348TIP3    H231536   4.656   2.693  11.081  1.1888 -0.4602 -1.6353
 3349TIP3   OH231537   6.374   6.410  14.535 -0.2927  0.4907  0.4320
 3349TIP3    H131538   6.328   6.473  14.591  0.4502  1.2324  0.2290
 3349TIP3    H231539   6.432   6.362  14.595 -0.6558  0.1923  0.5449
 3350TIP3   OH231540   3.562   3.113   5.220  0.7640  0.7413  0.2084
 3350TIP3    H131541   3.589   3.170   5.148  1.9830  0.5544  0.5226
 3350TIP3    H231542   3.639   3.061   5.241 -0.0924 -0.4494  0.4898
 3351TIP3   OH231543   1.000   3.833   3.006 -0.0794  0.2261  0.3188
 3351TIP3    H131544   1.019   3.843   3.100  1.2149  0.1523  0.0757
 3351TIP3    H231545   0.905   3.843   3.000 -0.1310  0.6735  1.5838
 3352TIP3   OH231546   2.473   4.882   1.463 -0.3067 -0.0336  0.1188
 3352TIP3    H131547   2.537   4.850   1.400  0.1323  1.7360 -0.3594
 3352TIP3    H231548   2.402   4.919   1.410 -0.8427 -0.2940  0.6493
 3353TIP3   OH231549   4.574   3.701  14.518 -0.0615 -0.4513  0.0640
 3353TIP3    H131550   4.517   3.680  14.591  1.6356 -0.2420  1.4941
 3353TIP3    H231551   4.661   3.670  14.546  0.8752  0.9176 -1.2619
 3354TIP3   OH231552   6.445   4.617  17.073 -0.4895 -0.3521 -0.3190
 3354TIP3    H131553   6.465   4.567  16.994  1.8297 -0.2965  0.1941
 3354TIP3    H231554   6.421   4.551  17.138  1.5853 -0.7728  0.0676
 3355TIP3   OH231555   3.242   2.197  15.218  0.0101  0.3777  0.1601
 3355TIP3    H131556   3.149   2.212  15.234  0.1912  0.6370  1.0054
 3355TIP3    H231557   3.275   2.281  15.186 -0.6031 -0.4686 -2.9017
 3356TIP3   OH231558   2.212   6.262  11.982  0.5892 -0.1097 -0.5779
 3356TIP3    H131559   2.233   6.273  12.075  1.3379 -0.4182 -0.7065
 3356TIP3    H231560   2.297   6.248  11.940  0.1517 -1.0632 -1.1527
 3357TIP3   OH231561   1.030   6.774   3.228  0.0891 -0.1849  0.2333
 3357TIP3    H131562   1.114   6.783   3.272  0.9478  0.4645 -1.4683
 3357TIP3    H231563   1.011   6.680   3.233  1.0938 -0.3959  0.3269
 3358TIP3   OH231564   0.211   4.377  13.730 -0.1082 -0.1084 -0.2285
 3358TIP3    H131565   0.236   4.469  13.741  0.1972 -0.3906  1.7302
 3358TIP3    H231566   0.229   4.338  13.816 -1.3295 -1.7336 -0.7017
 3359TIP3   OH231567   2.601   1.754   1.334 -0.0926  0.3783 -0.1667
 3359TIP3    H131568   2.572   1.822   1.395  0.0635  0.7908 -0.5452
 3359TIP3    H231569   2.655   1.696   1.387 -0.8879  0.0884  0.3476
 3360TIP3   OH231570   2.230   6.181   6.583  0.3077  0.0280 -0.0993
 3360TIP3    H131571   2.251   6.178   6.676  1.1484 -2.3949 -0.3231
 3360TIP3    H231572   2.136   6.202   6.580  0.0062 -1.0515  1.3280
 3361TIP3   OH231573   0.728   5.706  13.733  0.6756  0.2805 -0.2244
 3361TIP3    H131574   0.762   5.628  13.688  1.0040  0.1992  0.1594
 3361TIP3    H231575   0.774   5.706  13.817 -0.1167  0.2933  0.2063
 3362TIP3   OH231576   1.959   5.032   3.440  0.6779 -0.0270 -0.3395
 3362TIP3    H131577   1.970   5.107   3.499  0.2629 -1.8448  2.1514
 3362TIP3    H231578   2.041   5.028   3.391  1.0152  1.5731  0.0494
 3363TIP3   OH231579   4.823   0.074  15.581  0.2043 -0.2444 -0.0314
 3363TIP3    H131580   4.812   0.167  15.595  1.0215 -0.0090 -0.8671
 3363TIP3    H231581   4.893   0.048  15.641  0.2506 -0.2382 -0.0838
 3364TIP3   OH231582   4.296   5.103  16.018 -0.1249  0.4036 -0.3842
 3364TIP3    H131583   4.271   5.011  16.031  1.2061  0.1367  0.3341
 3364TIP3    H231584   4.367   5.099  15.953 -1.1807  1.0663 -1.6012
 3365TIP3   OH231585   4.171   1.325   0.044  0.0406 -0.1008  0.7299
 3365TIP3    H131586   4.239   1.392   0.037 -0.0819 -0.0393  0.0522
 3365TIP3    H231587   4.219   1.243   0.058  0.2928 -0.1465 -0.3481
 3366TIP3   OH231588   0.533   1.265  11.016  0.9861 -0.0883 -0.2358
 3366TIP3    H131589   0.476   1.190  10.999 -1.0287  0.7496  2.5077
 3366TIP3    H231590   0.521   1.323  10.941 -0.5405 -0.6641 -0.4422
 3367TIP3   OH231591   3.490   3.135  12.715  0.2378  0.4553 -0.4735
 3367TIP3    H131592   3.552   3.061  12.719  0.1910  0.4132 -0.5249
 3367TIP3    H231593   3.408   3.098  12.748  0.6893  0.9810  1.2893
 3368TIP3   OH231594   4.312   3.780   2.759 -0.0130 -0.6115  0.5802
 3368TIP3    H131595   4.318   3.686   2.771 -1.9317 -0.9738 -0.9560
 3368TIP3    H231596   4.339   3.818   2.842  2.6187 -2.4485  0.6014
 3369TIP3   OH231597   5.166   6.487   6.006  0.7635 -0.5631  0.2936
 3369TIP3    H131598   5.256   6.487   5.973  0.9067  1.2828  0.6454
 3369TIP3    H231599   5.149   6.395   6.027  2.8038 -0.8410  0.8768
 3370TIP3   OH231600   6.610   1.907   2.712  0.0715 -0.3875  0.1256
 3370TIP3    H131601   6.702   1.882   2.723 -0.0065 -0.9126 -0.3991
 3370TIP3    H231602   6.588   1.953   2.793  1.2352  1.0928 -0.3766
 3371TIP3   OH231603   3.423   0.663   2.804 -0.0877  0.2772 -0.2548
 3371TIP3    H131604   3.446   0.601   2.873 -1.8284  0.4000  0.4405
 3371TIP3    H231605   3.488   0.732   2.812 -0.2463  0.2646  1.2193
 3372TIP3   OH231606   0.776   3.523   4.210 -0.3185 -0.3552  1.0537
 3372TIP3    H131607   0.715   3.491   4.143  0.8793 -0.7828  0.1652
 3372TIP3    H231608   0.724   3.586   4.261 -0.8751  0.9507 -1.0627
 3373TIP3   OH231609   4.181   0.429  12.266  0.5798  0.1003 -0.0071
 3373TIP3    H131610   4.155   0.477  12.344 -0.7602 -0.5275 -0.0532
 3373TIP3    H231611   4.218   0.347  12.299  1.5578  0.5428  0.0187
 3374TIP3   OH231612   6.365   4.218   1.136 -0.0599  0.0962 -0.3558
 3374TIP3    H131613   6.409   4.198   1.054  0.5952  3.1485 -0.7972
 3374TIP3    H231614   6.433   4.255   1.192 -1.5906  3.0181 -0.3385
 3375TIP3   OH231615   3.245   4.169   0.383 -0.9161 -0.2128 -0.1021
 3375TIP3    H131616   3.228   4.262   0.364 -0.4541  0.2582  1.6750
 3375TIP3    H231617   3.163   4.138   0.422  0.0309  0.3384  2.3892
 3376TIP3   OH231618   2.046   5.161   4.516  0.5768  0.0913 -0.0199
 3376TIP3    H131619   2.102   5.227   4.558 -0.0669  0.9720 -0.5238
 3376TIP3    H231620   2.078   5.077   4.549  4.0021  0.3770 -2.3921
 3377TIP3   OH231621   1.685   4.484   6.520 -0.4511  0.9926  0.0003
 3377TIP3    H131622   1.736   4.562   6.500  3.3982 -1.2853  0.6065
 3377TIP3    H231623   1.633   4.509   6.597 -0.1128  3.2996 -0.4989
 3378TIP3   OH231624   4.233   5.147  16.324 -0.3671 -0.0064 -0.0795
 3378TIP3    H131625   4.139   5.161  16.315 -0.5744 -1.3959 -0.1073
 3378TIP3    H231626   4.270   5.236  16.323 -1.4937  0.4822 -2.0640
 3379TIP3   OH231627   5.225   3.411   5.391  0.3132 -0.3177  0.1912
 3379TIP3    H131628   5.233   3.332   5.338  1.2039  2.0766 -3.4194
 3379TIP3    H231629   5.315   3.429   5.421  0.6273  0.9478 -1.4833
 3380TIP3   OH231630   4.873   5.484   0.176 -0.4560  0.3819  0.3068
 3380TIP3    H131631   4.861   5.554   0.240 -0.9354  0.1645  0.4558
 3380TIP3    H231632   4.785   5.459   0.150 -0.2978 -0.4895  0.5990
 3381TIP3   OH231633   5.387   3.520   2.598 -0.3575  0.5701 -0.5663
 3381TIP3    H131634   5.422   3.607   2.620 -1.5588  0.7233  0.7446
 3381TIP3    H231635   5.345   3.533   2.513  0.4067  1.0146 -0.8851
 3382TIP3   OH231636   2.698   5.694   0.252 -0.5677 -0.6398 -0.7562
 3382TIP3    H131637   2.726   5.676   0.342  0.2230 -0.2440 -0.9251
 3382TIP3    H231638   2.647   5.617   0.228 -0.5284 -0.8856 -0.0756
 3383TIP3   OH231639   4.408   5.203  11.828  0.3956  0.0997  0.1240
 3383TIP3    H131640   4.358   5.172  11.752  1.8555 -0.9685 -0.4063
 3383TIP3    H231641   4.341   5.239  11.886 -1.0411 -1.4246 -0.5229
 3384TIP3   OH231642   6.233   1.091  13.236 -0.0496 -0.1364 -0.9897
 3384TIP3    H131643   6.194   1.016  13.191 -0.3460  0.7628 -2.2523
 3384TIP3    H231644   6.159   1.134  13.278 -0.1422  0.4376 -1.7304
 3385TIP3   OH231645   2.997   3.675   3.413 -0.1286  0.2788 -0.5490
 3385TIP3    H131646   2.976   3.749   3.356  0.7780  2.2352  1.5891
 3385TIP3    H231647   3.065   3.627   3.366  0.5143  1.7989 -1.1925
 3386TIP3   OH231648   1.953   0.375   2.737 -0.2443 -0.0477 -0.1827
 3386TIP3    H131649   2.015   0.321   2.687 -1.0563  1.0046 -2.3877
 3386TIP3    H231650   1.901   0.312   2.786  0.5760 -1.1225 -0.6673
 3387TIP3   OH231651   4.941   4.014  16.978 -0.3607  0.0449 -0.1241
 3387TIP3    H131652   4.973   4.005  16.889 -1.5377 -0.1760 -0.5289
 3387TIP3    H231653   4.851   3.984  16.975 -1.0302  1.8718  0.7434
 3388TIP3   OH231654   1.849   5.647  11.988  0.3590 -0.5074  0.9346
 3388TIP3    H131655   1.785   5.612  12.050 -0.4090  1.2892  1.1758
 3388TIP3    H231656   1.906   5.702  12.041  1.3208 -1.0661  0.4873
 3389TIP3   OH231657   5.997   2.864  12.244  0.3439  0.0467  0.0904
 3389TIP3    H131658   6.048   2.946  12.243 -0.8785  0.8107 -1.0853
 3389TIP3    H231659   5.927   2.880  12.307  0.2034 -0.1609 -0.0148
 3390TIP3   OH231660   1.294   3.449  12.157  0.7329 -0.1133 -0.3828
 3390TIP3    H131661   1.336   3.510  12.095  0.1141  0.1638 -0.5278
 3390TIP3    H231662   1.241   3.392  12.102  2.6487 -1.9160 -0.4388
 3391TIP3   OH231663   0.570   1.080  11.690  0.3870  0.0005  0.1310
 3391TIP3    H131664   0.549   1.062  11.781  0.2116  0.8048  0.2543
 3391TIP3    H231665   0.504   1.032  11.640  0.8777 -0.9623  0.4121
 3392TIP3   OH231666   6.617   6.506  16.142 -0.1712 -0.3466  0.1012
 3392TIP3    H131667   6.648   6.576  16.199  0.4282  1.4685 -2.3815
 3392TIP3    H231668   6.567   6.448  16.200  0.4073  1.4308  2.4409
 3393TIP3   OH231669   6.580   0.403   2.656  0.3254  0.0775 -0.0731
 3393TIP3    H131670   6.666   0.394   2.615 -0.4304 -0.6470 -1.5758
 3393TIP3    H231671   6.554   0.494   2.637 -0.2148 -0.3862 -1.6597
 3394TIP3   OH231672   3.931   6.680   6.262  0.5299  0.6361  0.5061
 3394TIP3    H131673   4.024   6.680   6.285  0.7628  0.6441 -0.4149
 3394TIP3    H231674   3.900   6.767   6.289  0.9215  0.8450  0.2947
 3395TIP3   OH231675   6.373   5.858   4.396 -0.4491 -0.1802 -0.2823
 3395TIP3    H131676   6.340   5.785   4.448 -2.6108  1.1948  0.3514
 3395TIP3    H231677   6.446   5.893   4.447 -1.8610  0.4751  1.3322
 3396TIP3   OH231678   1.428   1.363  11.823  0.5322  0.2698 -0.3665
 3396TIP3    H131679   1.502   1.393  11.770  0.5482 -1.2168 -1.2434
 3396TIP3    H231680   1.421   1.426  11.894  2.1129  0.9014 -0.7534
 3397TIP3   OH231681   5.558   2.011  17.215  0.3714 -0.1983  0.2368
 3397TIP3    H131682   5.617   2.086  17.205  2.8687 -2.2989 -1.3867
 3397TIP3    H231683   5.572   1.980  17.304  0.2685  0.4945  0.4932
 3398TIP3   OH231684   1.202   5.357  16.098 -0.2782  0.4159  0.3205
 3398TIP3    H131685   1.192   5.348  16.003 -0.7399 -2.8746  0.6432
 3398TIP3    H231686   1.296   5.368  16.112 -0.3540  2.4271 -0.5953
 3399TIP3   OH231687   0.165   2.753   5.139 -0.1507 -0.0129  0.0746
 3399TIP3    H131688   0.130   2.806   5.211 -2.6967 -1.4248 -0.0488
 3399TIP3    H231689   0.225   2.692   5.181 -0.6914 -0.0170  0.8551
 3400TIP3   OH231690   4.044   1.366   2.831 -0.5961 -0.3022 -0.1708
 3400TIP3    H131691   3.989   1.347   2.755 -0.8600  0.8310 -0.2707
 3400TIP3    H231692   4.134   1.355   2.800 -0.7403 -2.3010  0.0284
 3401TIP3   OH231693   1.604   6.245  11.621  0.4457 -0.1427  0.1531
 3401TIP3    H131694   1.687   6.237  11.667  1.0793  0.9722 -0.7918
 3401TIP3    H231695   1.538   6.223  11.687  1.5300 -2.1347  0.6058
 3402TIP3   OH231696   4.983   2.526   5.179 -0.5229  0.0568 -0.5428
 3402TIP3    H131697   5.021   2.579   5.248  1.5151 -0.3879 -1.3065
 3402TIP3    H231698   4.895   2.504   5.211  0.7132 -0.8908  2.2642
 3403TIP3   OH231699   4.349   6.246  14.537  0.3427  0.3402 -0.3588
 3403TIP3    H131700   4.360   6.278  14.447  0.7616 -3.2648 -1.7030
 3403TIP3    H231701   4.438   6.240  14.571  0.0701  3.6430  1.1054
 3404TIP3   OH231702   2.058   2.540   2.836 -0.3213 -0.2177  0.4515
 3404TIP3    H131703   2.029   2.451   2.818  0.1830 -0.3969  0.5152
 3404TIP3    H231704   2.092   2.572   2.752 -0.1224 -0.2341  0.5239
 3405TIP3   OH231705   4.889   3.362   4.252 -0.4805  0.6757 -0.1268
 3405TIP3    H131706   4.977   3.325   4.257 -0.2927  1.0282 -0.8077
 3405TIP3    H231707   4.857   3.359   4.342 -0.5562 -1.3760 -0.2003
 3406TIP3   OH231708   4.838   6.417  16.858 -0.7154  0.5068 -0.7928
 3406TIP3    H131709   4.818   6.511  16.862  0.3641  0.6674  2.3044
 3406TIP3    H231710   4.933   6.412  16.868 -0.8716 -0.9501  0.1237
 3407TIP3   OH231711   1.540   6.177   3.463 -0.0745 -0.0602  0.7641
 3407TIP3    H131712   1.634   6.195   3.464  0.5152 -2.0547 -3.9736
 3407TIP3    H231713   1.532   6.092   3.505  0.1363  0.4124  1.7747
 3408TIP3   OH231714   0.070   0.749   3.428 -0.4570 -0.0618  0.3075
 3408TIP3    H131715   0.148   0.752   3.372  0.2466  1.3587  1.2936
 3408TIP3    H231716   0.035   0.661   3.417  1.5718 -0.8783  0.2059
 3409TIP3   OH231717   5.501   2.239  12.221 -0.0643 -0.2425 -0.0656
 3409TIP3    H131718   5.440   2.313  12.223 -0.1073 -0.1822 -2.1342
 3409TIP3    H231719   5.525   2.231  12.128  0.6806 -2.2279  0.2822
 3410TIP3   OH231720   2.433   0.213   3.607  0.2337  0.3701  0.0251
 3410TIP3    H131721   2.517   0.175   3.632  1.0687  2.0789 -0.1340
 3410TIP3    H231722   2.395   0.149   3.546 -0.3618 -2.2920  3.0376
 3411TIP3   OH231723   2.358   1.929  17.005 -0.2337  0.3457  0.2739
 3411TIP3    H131724   2.396   1.966  17.085  1.9915 -0.5043 -0.3626
 3411TIP3    H231725   2.371   1.995  16.938 -0.1157  0.1690  0.1201
 3412TIP3   OH231726   6.632   5.852  11.859  0.6476  0.5764 -0.4139
 3412TIP3    H131727   6.591   5.769  11.879 -0.4452  1.3991  0.7997
 3412TIP3    H231728   6.598   5.875  11.772 -0.3890  0.5816 -0.0148
 3413TIP3   OH231729   3.227   0.229   0.923 -0.0048  0.3918 -1.0688
 3413TIP3    H131730   3.301   0.289   0.930 -0.2276  0.7344 -1.6411
 3413TIP3    H231731   3.181   0.257   0.844 -1.7341  1.2987  0.2385
 3414TIP3   OH231732   3.597   1.770   0.305 -0.0121 -0.7301  0.2570
 3414TIP3    H131733   3.620   1.724   0.224  0.3734 -0.6018  0.2959
 3414TIP3    H231734   3.504   1.751   0.317 -0.3339  0.1190 -0.7934
 3415TIP3   OH231735   1.175   6.763  15.286 -0.6054  0.0894 -0.4012
 3415TIP3    H131736   1.091   6.750  15.242 -1.5067  2.2087  0.6351
 3415TIP3    H231737   1.187   6.683  15.337 -1.9138 -0.2876 -0.6535
 3416TIP3   OH231738   1.887   1.345  15.564 -0.0758 -0.2377  0.4496
 3416TIP3    H131739   1.807   1.397  15.556 -0.5933 -1.4255 -3.5026
 3416TIP3    H231740   1.862   1.269  15.616 -1.8633 -1.1275 -1.6348
 3417TIP3   OH231741   2.788   3.333  12.262  0.2298 -0.8034 -0.3864
 3417TIP3    H131742   2.729   3.283  12.319 -1.4768  1.0159 -0.5134
 3417TIP3    H231743   2.765   3.305  12.173  0.0483 -0.5994 -0.4025
 3418TIP3   OH231744   4.015   2.226  15.494  0.6791 -0.4866 -0.3017
 3418TIP3    H131745   3.983   2.168  15.563  0.9199  0.1579  0.3503
 3418TIP3    H231746   4.009   2.173  15.414  2.8668 -2.1502  0.5844
 3419TIP3   OH231747   2.348   3.318   1.814  0.0172  0.1239  0.7351
 3419TIP3    H131748   2.368   3.271   1.894  0.5422  1.6460  1.5177
 3419TIP3    H231749   2.408   3.282   1.749  0.8331  0.1585  1.4696
 3420TIP3   OH231750   4.073   5.885   5.370 -0.0305 -0.1081  0.5896
 3420TIP3    H131751   4.127   5.813   5.403  0.9044  0.4469  0.2805
 3420TIP3    H231752   4.118   5.964   5.400 -0.3476  0.3700 -0.1778
 3421TIP3   OH231753   6.667   5.453   2.593  0.0764  0.3978  0.7587
 3421TIP3    H131754   6.694   5.535   2.550 -2.6016  1.1760  0.4457
 3421TIP3    H231755   6.645   5.395   2.520 -0.3989  0.2529  1.0210
 3422TIP3   OH231756   0.176   6.737   5.428 -0.1521  0.2977  0.0979
 3422TIP3    H131757   0.221   6.813   5.390  0.0915  1.0803  1.8738
 3422TIP3    H231758   0.207   6.663   5.377  1.5048  1.1028 -0.1146
 3423TIP3   OH231759   4.397   4.673  12.701  0.0605 -0.8449  0.1009
 3423TIP3    H131760   4.356   4.755  12.726 -1.2246 -1.5328  0.2557
 3423TIP3    H231761   4.472   4.699  12.647  0.1647  0.4542  0.8716
 3424TIP3   OH231762   2.307   4.599   4.897 -0.2192  0.5812  0.2897
 3424TIP3    H131763   2.311   4.677   4.952  2.3529  1.3324 -0.9027
 3424TIP3    H231764   2.217   4.599   4.862 -0.8949  1.8122  1.9499
 3425TIP3   OH231765   5.105   2.615   5.405 -0.0543  0.2784  0.2077
 3425TIP3    H131766   5.193   2.577   5.401 -0.0530  0.3842 -0.6443
 3425TIP3    H231767   5.052   2.547   5.447  0.1538 -0.2888 -0.4521
 3426TIP3   OH231768   4.058   2.921   6.305 -0.2026  0.0123 -0.5620
 3426TIP3    H131769   3.981   2.963   6.342  0.4463  0.1136  0.7039
 3426TIP3    H231770   4.072   2.844   6.359  1.3671  0.7209  0.0796
 3427TIP3   OH231771   2.131   5.489  12.937  0.2250  0.2125 -0.2801
 3427TIP3    H131772   2.089   5.556  12.883  0.5311 -0.2123 -1.0505
 3427TIP3    H231773   2.097   5.406  12.904 -0.1108 -0.0187  0.6348
 3428TIP3   OH231774   6.671   2.628   0.133  0.3316  0.0072  0.3647
 3428TIP3    H131775   6.638   2.631   0.043  2.2661 -1.9356 -0.4297
 3428TIP3    H231776   6.595   2.603   0.185 -0.2825 -1.0459 -1.0039
 3429TIP3   OH231777   0.596   3.751  16.609 -0.1744 -0.4213  0.1503
 3429TIP3    H131778   0.553   3.720  16.689 -0.8897  0.0269 -0.0616
 3429TIP3    H231779   0.546   3.828  16.583 -0.3322 -0.9253 -1.0847
 3430TIP3   OH231780   2.882   3.054   0.198  0.0994  0.0760 -0.3785
 3430TIP3    H131781   2.843   3.112   0.132  0.0460 -0.6867 -1.0156
 3430TIP3    H231782   2.946   3.109   0.243 -0.3668  0.8011 -0.5923
 3431TIP3   OH231783   3.142   2.829   1.929  0.1420  0.2328  0.0071
 3431TIP3    H131784   3.103   2.764   1.870 -1.4537  1.7186 -0.6420
 3431TIP3    H231785   3.228   2.848   1.891  0.5036 -1.2667  0.0462
 3432TIP3   OH231786   1.609   5.458  11.913  0.3666  0.1708 -0.1879
 3432TIP3    H131787   1.608   5.516  11.837 -0.0804 -0.1095 -0.4009
 3432TIP3    H231788   1.523   5.472  11.954  1.1579  1.3727  1.0691
 3433TIP3   OH231789   0.333   6.583  15.612  0.5350 -0.1978  0.2704
 3433TIP3    H131790   0.365   6.528  15.683  0.6764  0.6790  0.9048
 3433TIP3    H231791   0.410   6.633  15.584  0.2749  0.1329  0.1360
 3434TIP3   OH231792   5.770   0.509   3.357 -0.1671  0.0169 -0.0442
 3434TIP3    H131793   5.725   0.433   3.396 -0.2242 -0.6413 -1.3536
 3434TIP3    H231794   5.709   0.540   3.290  0.6947  0.0270 -0.8311
 3435TIP3   OH231795   2.053   3.327   6.299  0.5079 -0.7201 -0.0548
 3435TIP3    H131796   2.057   3.247   6.246  0.2379  0.2116 -1.5155
 3435TIP3    H231797   2.145   3.349   6.314  0.6111 -0.0585 -1.5899
 3436TIP3   OH231798   3.878   1.692  12.301 -0.1950  0.5534 -0.1932
 3436TIP3    H131799   3.832   1.688  12.217  0.6401  0.3642 -0.6462
 3436TIP3    H231800   3.825   1.636  12.359  0.4778 -1.1910 -1.2152
 3437TIP3   OH231801   1.269   4.033   5.329 -0.1346 -0.3791  0.9783
 3437TIP3    H131802   1.270   3.990   5.244 -3.2231  1.1764  0.0708
 3437TIP3    H231803   1.254   3.961   5.391  0.0033 -1.2554  0.0162
 3438TIP3   OH231804   1.404   2.693  11.197  0.4214  0.4102 -0.0029
 3438TIP3    H131805   1.474   2.632  11.175  0.2482  0.2891 -0.2147
 3438TIP3    H231806   1.428   2.774  11.153  0.6575  0.5013  0.2872
 3439TIP3   OH231807   5.029   0.940   2.705 -0.3244 -0.5606 -0.5595
 3439TIP3    H131808   5.108   0.993   2.704 -0.4704 -0.3142  0.3062
 3439TIP3    H231809   5.049   0.864   2.650  0.6970 -0.7565  0.0696
 3440TIP3   OH231810   5.285   0.545   1.179 -0.8007 -0.0120  0.0174
 3440TIP3    H131811   5.313   0.630   1.145 -1.6890  0.5908  0.7779
 3440TIP3    H231812   5.319   0.542   1.268  0.5738 -1.1270 -0.5204
 3441TIP3   OH231813   6.279   4.187   2.376 -0.6377  0.1770  0.0286
 3441TIP3    H131814   6.275   4.283   2.375 -1.4725  0.1808  1.9205
 3441TIP3    H231815   6.293   4.165   2.468  0.3098 -1.5071 -0.5021
 3442TIP3   OH231816   1.783   6.125  12.954 -0.5094 -0.3153 -0.5093
 3442TIP3    H131817   1.694   6.090  12.959 -0.9894  1.1301  2.1060
 3442TIP3    H231818   1.776   6.200  12.895 -1.3407  0.5765  0.6908
 3443TIP3   OH231819   5.485   3.262  12.222 -0.3169 -0.6053 -0.3543
 3443TIP3    H131820   5.425   3.311  12.278  0.7716 -0.5042  0.7622
 3443TIP3    H231821   5.513   3.188  12.277  3.3882  1.3177  0.5539
 3444TIP3   OH231822   1.856   5.464   4.499  0.1922 -0.5880 -0.5715
 3444TIP3    H131823   1.913   5.534   4.469 -0.6978 -0.6057 -2.3464
 3444TIP3    H231824   1.867   5.463   4.595  2.2179  0.1890 -0.7858
 3445TIP3   OH231825   0.453   4.023   5.307  0.3844 -0.1618  0.1862
 3445TIP3    H131826   0.368   4.067   5.303 -0.1673 -1.2285 -0.2580
 3445TIP3    H231827   0.488   4.046   5.393 -0.7894 -0.4608  0.7673
 3446TIP3   OH231828   2.889   0.343   2.755  0.7219  0.2587  0.2222
 3446TIP3    H131829   2.865   0.285   2.682  0.7508  2.1978 -1.3875
 3446TIP3    H231830   2.983   0.353   2.747  1.0770 -1.4234  2.0203
 3447TIP3   OH231831   1.885   1.965  15.640  0.1600 -0.6067 -0.5706
 3447TIP3    H131832   1.875   1.966  15.735  0.6669 -0.2200 -0.5179
 3447TIP3    H231833   1.850   2.049  15.610 -1.8262 -1.5451 -0.9245
 3448TIP3   OH231834   3.268   1.111   4.621  0.1213 -0.1617  0.9867
 3448TIP3    H131835   3.258   1.024   4.583  0.6474  0.8223 -1.4635
 3448TIP3    H231836   3.196   1.162   4.584 -0.2451  0.4560  2.4806
 3449TIP3   OH231837   0.407   3.976   1.393 -0.1438 -0.3933 -0.4045
 3449TIP3    H131838   0.448   4.058   1.365  0.4782 -0.9768 -1.2446
 3449TIP3    H231839   0.416   3.919   1.317 -0.7515 -1.1744  0.1133
 3450TIP3   OH231840   1.045   5.109  16.443 -0.3984 -0.5266  0.8206
 3450TIP3    H131841   1.011   5.053  16.513 -0.9788 -1.2379 -0.0202
 3450TIP3    H231842   1.073   5.189  16.488 -2.0195 -0.4239  1.6966
 3451TIP3   OH231843   1.682   4.520   2.834  0.0392  0.4988  0.4245
 3451TIP3    H131844   1.689   4.599   2.781 -0.3497  0.1775 -0.1105
 3451TIP3    H231845   1.588   4.498   2.832  0.1847 -0.1299  0.3463
 3452TIP3   OH231846   1.387   1.640   1.917  0.0540  0.6164  0.0468
 3452TIP3    H131847   1.329   1.669   1.987 -0.0927  0.4133  0.0114
 3452TIP3    H231848   1.412   1.720   1.871  0.9751  0.8610  0.9608
 3453TIP3   OH231849   1.365   2.534   2.391 -0.2275 -0.2212 -0.1846
 3453TIP3    H131850   1.319   2.518   2.473  1.2408  1.6422  1.0602
 3453TIP3    H231851   1.303   2.584   2.338 -0.0153  1.4056  1.0784
 3454TIP3   OH231852   0.907   5.813   1.691  0.5814 -0.0599 -0.2131
 3454TIP3    H131853   0.927   5.721   1.672 -0.7609 -0.4114 -0.0174
 3454TIP3    H231854   0.992   5.855   1.699  1.2264 -1.3873  0.1411
 3455TIP3   OH231855   4.595   2.283   0.013 -0.3099 -0.1194 -1.0138
 3455TIP3    H131856   4.541   2.310   0.087 -0.2212 -2.3433 -0.0873
 3455TIP3    H231857   4.680   2.261   0.051 -1.0096 -3.6944 -1.3198
 3456TIP3   OH231858   0.761   0.748  11.810  0.1080 -0.1032  0.3619
 3456TIP3    H131859   0.769   0.655  11.786 -1.0310 -1.0080  3.2242
 3456TIP3    H231860   0.847   0.785  11.790  0.6630 -1.8210 -0.5904
 3457TIP3   OH231861   0.629   5.614  16.614 -0.0673  0.2891  0.1226
 3457TIP3    H131862   0.579   5.588  16.537 -2.6300  0.8082  1.5767
 3457TIP3    H231863   0.564   5.627  16.683  2.1427 -0.0266  2.3750
 3458TIP3   OH231864   1.976   3.647   2.855 -0.7358  0.2125  0.5613
 3458TIP3    H131865   1.993   3.594   2.777 -1.1898  0.0949  0.5409
 3458TIP3    H231866   2.043   3.620   2.917 -1.0722 -0.5176  0.6149
 3459TIP3   OH231867   5.183   6.683   0.699  0.4884 -0.5808 -0.2543
 3459TIP3    H131868   5.105   6.687   0.754 -0.7016  2.3230 -2.0249
 3459TIP3    H231869   5.168   6.609   0.641 -0.4086 -0.7479  0.1866
 3460TIP3   OH231870   6.187   2.166  12.451 -0.2545  0.0056  0.3078
 3460TIP3    H131871   6.227   2.083  12.427 -2.2242 -0.1616 -2.7641
 3460TIP3    H231872   6.163   2.156  12.543 -1.7379 -3.4337 -0.3662
 3461TIP3   OH231873   1.932   2.824   4.754  0.2729 -0.7440 -0.3494
 3461TIP3    H131874   1.857   2.859   4.705  1.3407 -0.2089 -1.6273
 3461TIP3    H231875   1.902   2.738   4.784 -1.3715  0.0586  0.4144
 3462TIP3   OH231876   3.385   4.108   1.725  0.1073  0.2475 -0.6525
 3462TIP3    H131877   3.299   4.130   1.762  0.5952  1.3586 -0.1603
 3462TIP3    H231878   3.430   4.060   1.795 -0.0311 -0.1691 -0.8441
 3463TIP3   OH231879   1.536   2.746   4.470  0.0388  0.1230  0.8024
 3463TIP3    H131880   1.530   2.832   4.430 -1.9522  0.7864  2.4753
 3463TIP3    H231881   1.542   2.763   4.564 -1.4355 -1.5571  1.2308
 3464TIP3   OH231882   1.352   4.829  15.120  0.0804 -0.1897  0.6052
 3464TIP3    H131883   1.344   4.924  15.119  1.2366 -0.0744  1.6543
 3464TIP3    H231884   1.361   4.805  15.028 -0.3682  0.6888  0.3225
 3465TIP3   OH231885   1.741   3.699   2.304 -0.2618 -0.1546 -0.1267
 3465TIP3    H131886   1.666   3.730   2.354 -0.9745 -1.1678 -0.5587
 3465TIP3    H231887   1.761   3.613   2.340 -0.0275 -0.3777 -0.7768
 3466TIP3   OH231888   2.874   0.008  13.896 -0.1606  0.1252 -0.3064
 3466TIP3    H131889   2.865   0.037  13.987  2.1478 -1.4468  0.4617
 3466TIP3    H231890   2.807  -0.059  13.885 -0.2569  0.1194  0.3210
 3467TIP3   OH231891   4.734   6.459  15.269 -0.1005  0.5222 -0.4019
 3467TIP3    H131892   4.744   6.450  15.364  0.0528  1.0853 -0.3629
 3467TIP3    H231893   4.640   6.469  15.256 -0.2323 -0.6255 -0.4074
 3468TIP3   OH231894   4.237   2.377  16.875 -0.1000 -0.0128 -0.0695
 3468TIP3    H131895   4.222   2.387  16.969  2.3497  0.5411  0.2901
 3468TIP3    H231896   4.208   2.460  16.837 -0.4829  0.0109  0.2694
 3469TIP3   OH231897   1.013   1.471   0.686 -0.6478  0.4381  0.6080
 3469TIP3    H131898   1.067   1.394   0.702  0.1239  1.3135  2.3796
 3469TIP3    H231899   1.073   1.534   0.646 -1.8357 -0.6610 -3.0674
 3470TIP3   OH231900   5.003   3.962   2.031 -0.2206  0.8045 -0.3609
 3470TIP3    H131901   5.066   3.985   1.962  0.1163 -0.7010 -0.5952
 3470TIP3    H231902   4.966   3.878   2.002  1.5685 -1.0124  2.3400
 3471TIP3   OH231903   0.505   6.491  10.710  0.4185 -0.4262 -0.2832
 3471TIP3    H131904   0.470   6.406  10.683 -1.0408 -1.0729  3.4078
 3471TIP3    H231905   0.560   6.471  10.786  0.3972  1.8636  0.3566
 3472TIP3   OH231906   0.295   3.034   0.108 -0.0071 -0.5319 -0.3323
 3472TIP3    H131907   0.216   3.073   0.146  0.9065 -0.0809  1.1472
 3472TIP3    H231908   0.307   3.081   0.025 -0.6041  0.2496  0.0134
 3473TIP3   OH231909   4.234   4.525  17.181 -0.1290  0.1344  0.0058
 3473TIP3    H131910   4.309   4.524  17.122 -0.5411  1.7213 -0.5628
 3473TIP3    H231911   4.242   4.444  17.231  1.6829  0.0366 -0.4054
 3474TIP3   OH231912   3.679   2.912  12.751 -0.8435 -0.8853  0.0314
 3474TIP3    H131913   3.637   2.856  12.815 -0.2467 -0.7954  0.4973
 3474TIP3    H231914   3.773   2.900  12.764 -0.7100 -1.2874 -1.1921
 3475TIP3   OH231915   3.515   5.475  11.987  0.2881 -0.4773  0.3785
 3475TIP3    H131916   3.524   5.560  12.030  1.3897 -0.7052  0.6347
 3475TIP3    H231917   3.428   5.445  12.011 -0.6800  1.2369 -0.9375
 3476TIP3   OH231918   4.284   4.647  16.314 -0.5045  0.5065 -0.6114
 3476TIP3    H131919   4.209   4.614  16.265 -1.2048  0.7549  0.2764
 3476TIP3    H231920   4.247   4.679  16.396  0.4108  1.7794 -0.6773
 3477TIP3   OH231921   1.392   3.090  12.266  0.0355 -0.0924 -0.0812
 3477TIP3    H131922   1.408   3.020  12.329  1.9254  0.1198 -0.3179
 3477TIP3    H231923   1.369   3.044  12.185 -0.0965 -0.4085  0.1336
 3478TIP3   OH231924   6.599   1.036  15.843  0.0086 -0.5559  0.0535
 3478TIP3    H131925   6.539   1.032  15.917 -1.6894  2.0401 -1.0727
 3478TIP3    H231926   6.658   1.109  15.863  1.0964 -1.4098 -0.0323
 3479TIP3   OH231927   6.467   0.506  11.312  0.2887 -0.7609 -0.6136
 3479TIP3    H131928   6.394   0.489  11.372 -0.3027 -1.5322 -1.5342
 3479TIP3    H231929   6.425   0.538  11.232  0.9216 -1.7519 -1.3506
 3480TIP3   OH231930   4.382   5.863   2.173  0.0885 -0.6585  0.3237
 3480TIP3    H131931   4.436   5.941   2.162 -0.8127 -0.2176 -1.1660
 3480TIP3    H231932   4.298   5.897   2.205 -0.5819 -0.9018 -1.1123
 3481TIP3   OH231933   1.622   1.601   4.300  0.0194  0.0135  0.2242
 3481TIP3    H131934   1.539   1.605   4.252  0.3696  1.1358 -0.3155
 3481TIP3    H231935   1.658   1.690   4.293  1.5565 -0.6155 -0.0778
 3482TIP3   OH231936   3.185   0.494  14.788  0.3084 -0.2290 -0.4754
 3482TIP3    H131937   3.163   0.449  14.707 -1.5215 -0.1230 -0.0550
 3482TIP3    H231938   3.110   0.551  14.806  1.8603  1.7590 -0.1095
 3483TIP3   OH231939   3.154   0.371  13.435  0.2761 -0.0197  0.2640
 3483TIP3    H131940   3.238   0.337  13.463 -0.6709 -1.6371  1.1876
 3483TIP3    H231941   3.132   0.319  13.357 -0.5195 -0.5792  0.8571
 3484TIP3   OH231942   0.910   6.072  13.757  0.2590 -0.1654 -0.4461
 3484TIP3    H131943   0.935   6.153  13.803  0.6452 -0.7101  0.3099
 3484TIP3    H231944   0.957   6.003  13.803 -0.6763 -0.9174 -0.5992
 3485TIP3   OH231945   2.896   2.274   1.128 -0.3672 -0.1463 -0.5563
 3485TIP3    H131946   2.838   2.334   1.081 -0.9888 -0.1424  0.2148
 3485TIP3    H231947   2.838   2.208   1.165  0.1435 -0.2784  0.0165
 3486TIP3   OH231948   2.318   1.823  14.054  0.4397 -0.4376 -0.6905
 3486TIP3    H131949   2.335   1.882  13.980  0.3375  1.2865  0.6466
 3486TIP3    H231950   2.405   1.789  14.077  0.9185  1.5245  0.4591
 3487TIP3   OH231951   3.869   1.465   3.878 -0.1905 -0.0614 -0.0697
 3487TIP3    H131952   3.944   1.409   3.900 -1.1144 -1.2240  0.1725
 3487TIP3    H231953   3.844   1.506   3.960 -1.7351 -2.0646  0.5157
 3488TIP3   OH231954   3.586   3.862   0.035  0.4906 -0.0507  0.0057
 3488TIP3    H131955   3.662   3.882   0.089  0.2090  0.2981  0.2737
 3488TIP3    H231956   3.621   3.854  -0.054  0.7646  0.5636  0.0592
 3489TIP3   OH231957   2.964   2.972  14.899  0.1536 -0.5899  0.0352
 3489TIP3    H131958   3.058   2.980  14.914  0.1712 -1.1619  0.2380
 3489TIP3    H231959   2.930   2.934  14.980 -0.1575 -1.0078 -0.2920
 3490TIP3   OH231960   1.169   0.682   3.266 -0.4085  0.3147  0.0426
 3490TIP3    H131961   1.087   0.720   3.298 -1.4081  0.0890 -2.1741
 3490TIP3    H231962   1.155   0.587   3.273  0.4970  0.2663  1.6213
 3491TIP3   OH231963   1.451   0.539   1.830 -0.2204 -0.2501  0.2465
 3491TIP3    H131964   1.387   0.609   1.826  0.3468  0.1506 -2.4652
 3491TIP3    H231965   1.409   0.465   1.787  0.7039 -0.3253 -0.5447
 3492TIP3   OH231966   2.066   5.208   1.181 -0.1101  0.5164  0.0251
 3492TIP3    H131967   2.084   5.287   1.233  1.0368  0.1891  0.1300
 3492TIP3    H231968   2.003   5.159   1.234  0.0260  0.8251  0.4784
 3493TIP3   OH231969   4.021   5.818  13.442  0.1219  0.3707 -0.2506
 3493TIP3    H131970   4.098   5.799  13.494  0.8830 -1.3816 -1.9895
 3493TIP3    H231971   4.052   5.878  13.374 -0.1980  0.1902 -0.5570
 3494TIP3   OH231972   1.187   0.302  10.469 -0.1776 -0.5232  0.4310
 3494TIP3    H131973   1.220   0.214  10.453 -0.2987 -0.2251 -1.6670
 3494TIP3    H231974   1.263   0.352  10.500  0.3163 -0.9255 -0.1279
 3495TIP3   OH231975   6.028   4.913  11.164  0.0669 -0.7526  0.0780
 3495TIP3    H131976   5.998   4.828  11.132 -0.1890 -0.3941 -0.6446
 3495TIP3    H231977   6.018   4.907  11.259  0.4791 -1.6901  0.0708
 3496TIP3   OH231978   0.162   0.717   4.991  0.1030 -0.3448  0.1033
 3496TIP3    H131979   0.218   0.780   5.036 -0.7365 -1.2288  2.4850
 3496TIP3    H231980   0.139   0.653   5.059 -2.3764 -0.9373 -1.2278
 3497TIP3   OH231981   6.171   5.239   0.101 -0.0448 -0.3439  0.4939
 3497TIP3    H131982   6.116   5.188   0.042 -0.0046  0.1013  0.0727
 3497TIP3    H231983   6.156   5.330   0.076 -0.8288 -0.0833  1.8553
 3498TIP3   OH231984   6.513   5.856  11.275  0.5489 -0.1769 -0.5390
 3498TIP3    H131985   6.516   5.768  11.238 -0.0371 -0.4102 -0.0392
 3498TIP3    H231986   6.427   5.862  11.315  1.8756 -0.6562  2.5547
 3499TIP3   OH231987   3.359   1.725   1.062 -1.2475  0.1819  0.3590
 3499TIP3    H131988   3.307   1.660   1.013  0.3498 -0.2821 -0.7645
 3499TIP3    H231989   3.294   1.780   1.105 -2.6588 -1.8508  0.9101
 3500TIP3   OH231990   0.080   0.195   5.632 -0.1800 -0.5461  0.6022
 3500TIP3    H131991   0.017   0.227   5.696 -0.5291  0.3015 -0.1476
 3500TIP3    H231992   0.086   0.265   5.567  4.3209  1.0796  2.5399
 3501TIP3   OH231993   5.042   2.238   3.294  0.0172 -0.3640 -0.0667
 3501TIP3    H131994   4.962   2.219   3.342  0.0073 -0.9093 -0.2934
 3501TIP3    H231995   5.073   2.152   3.264  0.3749 -0.0959 -0.4695
 3502TIP3   OH231996   1.611   0.957   5.138  0.1671  0.0344 -0.0101
 3502TIP3    H131997   1.582   1.046   5.157  0.8311  0.3554 -0.5004
 3502TIP3    H231998   1.537   0.902   5.163 -0.4127  0.7573 -0.1334
 3503TIP3   OH231999   0.654   2.482  13.674  0.5028  0.1369  0.3445
 3503TIP3    H132000   0.625   2.552  13.732  0.3773  0.4928 -0.1441
 3503TIP3    H232001   0.575   2.455  13.627  0.8623  0.7492 -0.6099
 3504TIP3   OH232002   2.147   4.901   4.786 -0.2710 -0.1037  0.2204
 3504TIP3    H132003   2.065   4.938   4.755 -0.3001 -0.7799 -0.5110
 3504TIP3    H232004   2.135   4.806   4.780 -0.4316 -0.2902  2.6628
 3505TIP3   OH232005   1.849   2.104  17.163  0.7120 -0.3273 -0.0353
 3505TIP3    H132006   1.791   2.171  17.128  0.7049 -1.1363 -1.6442
 3505TIP3    H232007   1.841   2.111  17.258 -1.1750  0.2834 -0.2267
 3506TIP3   OH232008   0.390   4.986  12.875 -0.5023  0.7382 -0.0258
 3506TIP3    H132009   0.330   4.947  12.938 -1.3262  0.9006 -0.6928
 3506TIP3    H232010   0.345   5.065  12.845  0.2207  1.0705 -0.2393
 3507TIP3   OH232011   4.939   3.111  13.730 -0.6284  0.4023 -0.0405
 3507TIP3    H132012   4.941   3.206  13.717 -2.8812  0.3358 -1.0112
 3507TIP3    H232013   4.849   3.093  13.758 -0.2173 -1.4553  0.1016
 3508TIP3   OH232014   5.633   5.373   4.581 -0.8373 -0.3469  0.1390
 3508TIP3    H132015   5.638   5.465   4.605 -1.0352 -0.6618  1.4003
 3508TIP3    H232016   5.544   5.360   4.550 -0.4971  0.1245 -1.0681
 3509TIP3   OH232017   0.687   3.151   5.198  0.5838  0.1706 -0.5723
 3509TIP3    H132018   0.625   3.148   5.270  2.0221 -0.6137  0.6621
 3509TIP3    H232019   0.697   3.244   5.178  1.5375  0.5334  1.4572
 3510TIP3   OH232020   4.149   5.682   5.133  0.1873 -0.4544 -0.6519
 3510TIP3    H132021   4.230   5.730   5.115 -0.2319  0.8296  0.8545
 3510TIP3    H232022   4.156   5.656   5.225 -1.4913  0.4538 -0.2424
 3511TIP3   OH232023   3.939   3.967   5.882 -0.3161  0.2628  0.0568
 3511TIP3    H132024   3.944   3.876   5.911 -0.8448 -0.4616 -1.9840
 3511TIP3    H232025   3.846   3.984   5.873 -0.2764  1.5011  1.8325
 3512TIP3   OH232026   2.327   0.423  17.094 -0.1591 -0.5667 -0.1977
 3512TIP3    H132027   2.254   0.367  17.121  0.8086 -1.4352  0.6464
 3512TIP3    H232028   2.405   0.376  17.123  0.7800 -0.0578 -1.8550
 3513TIP3   OH232029   5.079   5.292   5.081  0.0919  0.4140 -0.2732
 3513TIP3    H132030   5.139   5.225   5.049 -1.4120  0.7658 -4.1261
 3513TIP3    H232031   5.001   5.243   5.107  0.1145  0.3969 -0.2382
 3514TIP3   OH232032   4.711   6.794   4.674  0.0933  0.2398 -0.1803
 3514TIP3    H132033   4.737   6.720   4.619 -0.9987 -0.3354  0.0631
 3514TIP3    H232034   4.764   6.867   4.642  0.3210 -0.3660 -1.2187
 3515TIP3   OH232035   3.711   0.692  16.296 -0.1971 -0.2094 -0.1980
 3515TIP3    H132036   3.703   0.688  16.392 -1.3278  0.6876 -0.2474
 3515TIP3    H232037   3.801   0.721  16.282 -0.1119 -0.0422  0.6155
 3516TIP3   OH232038   5.044   4.850  14.256  0.4921 -0.0476 -0.0100
 3516TIP3    H132039   5.013   4.790  14.188 -1.2815 -1.5601  2.0377
 3516TIP3    H232040   5.138   4.855  14.242  0.4700 -2.1519 -1.1982
 3517TIP3   OH232041   2.101   5.059   0.301  0.5201 -0.0018  0.6575
 3517TIP3    H132042   2.006   5.051   0.314  0.9751 -1.7029  3.2341
 3517TIP3    H232043   2.121   4.995   0.234 -0.0488 -0.2153  0.6846
 3518TIP3   OH232044   0.760   6.447  11.661  0.2200 -0.1223  0.3860
 3518TIP3    H132045   0.711   6.371  11.629 -1.7110  1.2629 -0.0292
 3518TIP3    H232046   0.795   6.420  11.746 -2.0110 -0.8593  1.0983
 3519TIP3   OH232047   3.904   1.834  15.560  0.6480 -0.0250 -0.0424
 3519TIP3    H132048   3.916   1.795  15.474 -2.0843 -2.6726  0.6710
 3519TIP3    H232049   3.931   1.766  15.621  1.7260  1.5039  1.2337
 3520TIP3   OH232050   0.931   6.335   4.593 -0.0846 -0.6155 -0.9671
 3520TIP3    H132051   0.943   6.265   4.657 -0.9236 -0.0490 -0.1825
 3520TIP3    H232052   0.880   6.294   4.522 -2.7006 -0.1845  0.6027
 3521TIP3   OH232053   2.969   3.913   4.300 -0.1271  0.0279 -0.0718
 3521TIP3    H132054   2.889   3.948   4.260  0.8317  0.6733 -1.4818
 3521TIP3    H232055   2.954   3.818   4.305 -1.4415  0.2662  0.7779
 3522TIP3   OH232056   6.701   3.232  15.161  0.1720 -0.2717  0.4052
 3522TIP3    H132057   6.741   3.153  15.198  1.9800 -0.1665 -1.2089
 3522TIP3    H232058   6.611   3.207  15.142  0.7862 -2.0312 -0.2886
 3523TIP3   OH232059   0.850   6.574   4.430 -0.2375  0.0082  0.1374
 3523TIP3    H132060   0.873   6.486   4.459 -0.4468 -0.4853 -1.1732
 3523TIP3    H232061   0.791   6.607   4.498  0.9817 -0.3070  1.3597
 3524TIP3   OH232062   3.447   0.040   3.983 -0.1400 -0.3046  0.1488
 3524TIP3    H132063   3.459   0.121   3.934  0.3214 -0.3429  0.1994
 3524TIP3    H232064   3.475   0.060   4.072 -1.0602 -0.2138  0.4263
 3525TIP3   OH232065   5.367   3.209   4.898 -0.1134  0.7425 -0.8762
 3525TIP3    H132066   5.380   3.296   4.937  1.8650  0.4279 -0.8080
 3525TIP3    H232067   5.388   3.148   4.969 -2.0710  0.1773 -0.7430
 3526TIP3   OH232068   3.821   1.557   3.435  0.2273 -0.5793  0.0593
 3526TIP3    H132069   3.876   1.519   3.503  0.5499 -0.8947 -0.3726
 3526TIP3    H232070   3.735   1.568   3.476 -0.1830 -2.8039 -0.1444
 3527TIP3   OH232071   1.108   1.031  10.687  0.4745  0.2687  0.0827
 3527TIP3    H132072   1.070   0.945  10.672  1.0066 -0.1375  1.0793
 3527TIP3    H232073   1.095   1.077  10.604 -2.7950  0.3791  0.6034
 3528TIP3   OH232074   1.295   0.787  12.339 -0.0731 -0.2185  0.2916
 3528TIP3    H132075   1.284   0.808  12.432 -2.0938  1.0394 -0.1996
 3528TIP3    H232076   1.242   0.709  12.325 -2.2876  1.3899 -0.4457
 3529TIP3   OH232077   6.253   4.061  14.068  0.1358 -0.1100  0.3757
 3529TIP3    H132078   6.325   4.069  14.006 -0.0307  0.3842  0.2435
 3529TIP3    H232079   6.296   4.042  14.152  0.6062  2.7131  0.8167
 3530TIP3   OH232080   5.826   4.893  14.905 -0.5761  0.2954 -0.1793
 3530TIP3    H132081   5.798   4.818  14.957  0.7239 -0.9868 -1.2898
 3530TIP3    H232082   5.756   4.906  14.841 -1.2689  0.6527  0.6552
 3531TIP3   OH232083   6.643   3.662  14.443 -0.9853  0.4668 -0.1286
 3531TIP3    H132084   6.648   3.716  14.522 -0.4558 -0.7214  0.6744
 3531TIP3    H232085   6.571   3.600  14.462  0.3732 -1.0397  0.2202
 3532TIP3   OH232086   0.897   1.137   2.857  0.1040  0.1257  0.2280
 3532TIP3    H132087   0.942   1.106   2.935 -1.2340  0.6495  1.2230
 3532TIP3    H232088   0.949   1.212   2.827 -0.4060  1.0594  1.6720
 3533TIP3   OH232089   3.675   3.508  13.637  0.5407 -0.4529  0.7527
 3533TIP3    H132090   3.635   3.518  13.724 -2.0472  0.2466 -0.4441
 3533TIP3    H232091   3.688   3.598  13.607  1.5518 -0.6926  0.4645
 3534TIP3   OH232092   3.745   4.050  12.505  0.2951  0.3562 -0.4489
 3534TIP3    H132093   3.782   4.032  12.591  1.7643 -1.7661 -1.4686
 3534TIP3    H232094   3.792   3.991  12.446 -1.9698  0.4422 -2.4287
 3535TIP3   OH232095   1.571   3.633   3.785  0.4580  0.0976  0.1060
 3535TIP3    H132096   1.492   3.580   3.796  0.1838  0.9830  2.9614
 3535TIP3    H232097   1.643   3.570   3.790  0.0009 -0.5393 -1.1100
 3536TIP3   OH232098   2.958   0.741   6.187  0.3221  0.0152 -0.3095
 3536TIP3    H132099   2.932   0.664   6.237 -1.6698 -0.5449 -2.1079
 3536TIP3    H232100   3.040   0.715   6.145  0.6740 -0.4201  0.6348
 3537TIP3   OH232101   0.294   2.072   0.173 -0.1087 -0.3935  0.0607
 3537TIP3    H132102   0.211   2.113   0.148 -0.1497 -1.5303 -1.8177
 3537TIP3    H232103   0.286   2.057   0.267 -1.6250  0.4313  0.0788
 3538TIP3   OH232104   5.965   2.429   2.249  0.4108  0.3995  0.3261
 3538TIP3    H132105   6.008   2.409   2.333  0.3529  1.3949  0.5947
 3538TIP3    H232106   5.998   2.363   2.189  1.4210  0.4412  0.8254
 3539TIP3   OH232107   1.271   2.653   1.911  0.2885 -0.0803  0.0062
 3539TIP3    H132108   1.289   2.612   1.826  0.3875 -3.2653  1.4784
 3539TIP3    H232109   1.322   2.602   1.973 -0.8926  1.2951  2.1514
 3540TIP3   OH232110   5.844   0.295   4.007 -0.2319 -0.2754 -0.8085
 3540TIP3    H132111   5.802   0.349   4.074 -3.9066 -2.2673 -1.3629
 3540TIP3    H232112   5.890   0.358   3.951 -0.5320  1.7904  1.1787
 3541TIP3   OH232113   0.093   2.642  12.609 -0.2515  0.5160 -0.0581
 3541TIP3    H132114   0.004   2.641  12.643  0.3470  1.1489  1.5995
 3541TIP3    H232115   0.104   2.729  12.572 -0.5626  0.1762 -0.9686
 3542TIP3   OH232116   2.116   1.595  14.178 -0.0849  0.0064 -0.0130
 3542TIP3    H132117   2.188   1.563  14.124  0.1208  2.4553 -1.2706
 3542TIP3    H232118   2.039   1.584  14.123 -0.1916  0.4930  0.0407
 3543TIP3   OH232119   1.070   5.865   4.169  0.0853 -0.1417 -0.5006
 3543TIP3    H132120   1.138   5.894   4.108 -0.4092  1.3662 -0.3451
 3543TIP3    H232121   1.116   5.849   4.251  0.2880  0.6248 -0.4678
 3544TIP3   OH232122   0.976   2.341   5.503  0.2678  0.1259 -0.1688
 3544TIP3    H132123   0.893   2.299   5.481 -0.5059  0.6274  1.6365
 3544TIP3    H232124   1.022   2.351   5.420 -1.7577  0.4115 -1.2686
 3545TIP3   OH232125   5.484   5.145  14.223  0.1405  0.0374  0.8736
 3545TIP3    H132126   5.512   5.059  14.255  1.3288 -0.5452 -1.6169
 3545TIP3    H232127   5.485   5.201  14.301  0.8899 -1.8153  2.2373
 3546TIP3   OH232128   6.485   4.903   4.971 -0.4921 -0.4074 -0.4186
 3546TIP3    H132129   6.533   4.829   4.935  1.0911 -0.6633  2.1095
 3546TIP3    H232130   6.426   4.930   4.901  1.0446 -2.1467 -2.4287
 3547TIP3   OH232131   2.280   2.639  13.869 -0.4099 -0.1509  0.0059
 3547TIP3    H132132   2.363   2.685  13.853  0.2188 -1.0421  0.6451
 3547TIP3    H232133   2.228   2.701  13.921 -0.3192  0.5854 -0.7722
 3548TIP3   OH232134   4.205   3.975   2.416 -0.0826  0.0365  0.0501
 3548TIP3    H132135   4.270   4.009   2.354 -1.7364  1.0381 -1.1607
 3548TIP3    H232136   4.229   4.016   2.500  1.6599 -0.6727 -0.0898
 3549TIP3   OH232137   1.014   3.172  15.371  0.9877  0.8077  0.0927
 3549TIP3    H132138   0.919   3.170  15.378  1.0678  0.8940  1.1825
 3549TIP3    H232139   1.046   3.127  15.449  1.8321  0.4310 -0.4618
 3550TIP3   OH232140   2.758   4.799  15.760  0.0055  0.1641 -0.0699
 3550TIP3    H132141   2.781   4.774  15.850  2.1302 -1.8937 -1.1354
 3550TIP3    H232142   2.676   4.752  15.744 -0.7451  1.0737  1.0053
 3551TIP3   OH232143   5.110   1.409  13.254 -0.5792  0.0104 -0.3424
 3551TIP3    H132144   5.075   1.391  13.167  0.3111  0.3829 -0.7775
 3551TIP3    H232145   5.125   1.323  13.292 -1.6949 -0.1552 -0.2574
 3552TIP3   OH232146   1.431   4.259  13.873  0.6174  0.1614  0.5939
 3552TIP3    H132147   1.390   4.258  13.786  1.2812 -0.6096  0.2908
 3552TIP3    H232148   1.384   4.328  13.920  1.8653  2.2676 -1.1575
 3553TIP3   OH232149   2.549   6.111   7.001 -0.5836 -0.4142 -0.2295
 3553TIP3    H132150   2.576   6.083   6.914  0.9004  0.5165 -0.0858
 3553TIP3    H232151   2.614   6.073   7.061 -0.6999  0.2081  0.3077
 3554TIP3   OH232152   3.185   4.857  11.757  0.2564 -0.6335  0.2481
 3554TIP3    H132153   3.113   4.912  11.788  0.8261 -1.7818  3.7400
 3554TIP3    H232154   3.143   4.784  11.712 -0.6777 -0.3832  0.7208
 3555TIP3   OH232155   0.944   2.242  12.201  0.4300  0.6925 -0.6426
 3555TIP3    H132156   1.017   2.200  12.246 -1.7459 -0.8419  1.5896
 3555TIP3    H232157   0.945   2.332  12.232  0.9214  0.4803 -0.0352
 3556TIP3   OH232158   4.436   0.218   3.099 -0.0819  0.5372 -0.3608
 3556TIP3    H132159   4.480   0.136   3.122 -2.5574 -0.2007  1.9439
 3556TIP3    H232160   4.413   0.208   3.007  1.6157 -0.4153 -0.7009
 3557TIP3   OH232161   0.903   5.798   4.646 -0.3253 -0.2103  0.2900
 3557TIP3    H132162   0.991   5.780   4.681 -0.2649  1.0675  0.7925
 3557TIP3    H232163   0.847   5.801   4.723 -0.7359 -0.5611  0.0050
 3558TIP3   OH232164   2.093   6.063  12.555 -0.3064 -0.5879  0.3250
 3558TIP3    H132165   2.045   5.997  12.505 -1.3791 -1.2761  2.2101
 3558TIP3    H232166   2.069   6.046  12.646  0.3920  1.6222  0.9495
 3559TIP3   OH232167   5.756   2.802  14.435 -0.7010  0.8371  0.0089
 3559TIP3    H132168   5.821   2.817  14.503 -0.8535 -1.1549  0.6011
 3559TIP3    H232169   5.697   2.736  14.471 -0.0810 -1.1473 -2.5149
 3560TIP3   OH232170   4.599   5.434  13.749  0.2031  0.1432 -0.3405
 3560TIP3    H132171   4.668   5.370  13.766 -0.9205 -0.9847  0.0685
 3560TIP3    H232172   4.523   5.400  13.796 -1.5472 -0.3356 -3.3958
 3561TIP3   OH232173   6.176   2.502  15.354 -0.1023  0.8454 -0.3933
 3561TIP3    H132174   6.227   2.480  15.431  0.8796  0.3118 -1.1851
 3561TIP3    H232175   6.087   2.473  15.374  0.0325  1.2338  0.7555
 3562TIP3   OH232176   5.757   6.434  16.525 -0.6369  0.0523 -0.1515
 3562TIP3    H132177   5.755   6.384  16.443  1.7097 -2.2800  1.1196
 3562TIP3    H232178   5.845   6.472  16.528 -1.0298  0.9113  0.8447
 3563TIP3   OH232179   5.006   3.870   3.509  0.1946 -0.2403  0.5947
 3563TIP3    H132180   4.921   3.893   3.546  0.7894  1.7848  0.8017
 3563TIP3    H232181   4.991   3.859   3.416  0.1250  2.5110  0.2563
 3564TIP3   OH232182   0.980   3.419   3.788 -0.4877 -0.2017 -0.1414
 3564TIP3    H132183   0.968   3.440   3.696  0.8395  0.6459 -0.1290
 3564TIP3    H232184   1.055   3.361   3.791  0.0824  0.5508  0.4933
 3565TIP3   OH232185   0.649   3.822  13.382 -0.3194  0.1054 -0.4861
 3565TIP3    H132186   0.722   3.774  13.343 -0.2044 -0.1454  0.0371
 3565TIP3    H232187   0.629   3.890  13.318  0.1390 -0.0470 -0.7969
 3566TIP3   OH232188   4.664   3.834  13.561  0.6041 -0.0291  0.0467
 3566TIP3    H132189   4.653   3.867  13.650  1.1116  0.1029  0.0604
 3566TIP3    H232190   4.742   3.878  13.528  0.6614 -0.3924 -0.3156
 3567TIP3   OH232191   3.939   1.160  17.257  0.2951 -0.0213 -0.2998
 3567TIP3    H132192   4.002   1.097  17.223  0.7532 -0.5109  1.4222
 3567TIP3    H232193   3.990   1.221  17.309 -0.6615 -0.6469  1.4304
 3568TIP3   OH232194   1.962   4.593  11.168 -0.2241  0.3103  0.1870
 3568TIP3    H132195   2.043   4.545  11.184 -0.0117  0.0010 -1.7281
 3568TIP3    H232196   1.901   4.561  11.235  1.1212  0.3139  1.4363
 3569TIP3   OH232197   3.325   3.319  16.931 -0.1558  0.0575  0.1845
 3569TIP3    H132198   3.312   3.241  16.876  0.7522  2.2477 -3.2917
 3569TIP3    H232199   3.420   3.326  16.940 -0.3024 -0.2947  2.1008
 3570TIP3   OH232200   2.776   5.648  15.653 -0.0432  0.1007  0.1632
 3570TIP3    H132201   2.821   5.659  15.737  2.0248 -0.3078 -0.8584
 3570TIP3    H232202   2.781   5.554  15.635  0.1247  0.2787 -0.7415
 3571TIP3   OH232203   4.216   4.444  15.685 -0.4350 -0.1368  0.1394
 3571TIP3    H132204   4.263   4.370  15.648  0.3786 -0.0673  1.0140
 3571TIP3    H232205   4.254   4.521  15.642 -0.4816 -0.1502  0.0729
 3572TIP3   OH232206   5.271   2.463  14.726  0.8908 -0.3033  0.1527
 3572TIP3    H132207   5.235   2.438  14.641 -0.3715 -1.2616  0.9475
 3572TIP3    H232208   5.233   2.549  14.745  0.1380 -0.6697  0.3305
 3573TIP3   OH232209   2.336   6.233  12.823 -0.0937  0.3115  0.0599
 3573TIP3    H132210   2.244   6.258  12.827 -0.1260  0.6843 -2.3394
 3573TIP3    H232211   2.339   6.147  12.865 -1.2242  1.0813  1.7494
 3574TIP3   OH232212   4.503   1.513   3.545  0.2601 -0.9061  0.2856
 3574TIP3    H132213   4.598   1.528   3.541  0.4824 -2.3733 -0.4954
 3574TIP3    H232214   4.482   1.474   3.460 -1.2431  0.4266  0.0171
 3575TIP3   OH232215   2.843   4.957   3.451  0.4859 -0.1947 -0.1998
 3575TIP3    H132216   2.759   4.936   3.491  0.2119  0.3741 -0.4670
 3575TIP3    H232217   2.904   4.962   3.525  0.1770 -0.0920  0.0482
 3576TIP3   OH232218   6.543   1.540   0.840 -0.2134 -0.3354  0.4663
 3576TIP3    H132219   6.488   1.577   0.772 -0.6646 -1.2634  0.3058
 3576TIP3    H232220   6.581   1.615   0.885 -0.2019  0.2823 -0.5739
 3577TIP3   OH232221   1.817   4.269  17.148 -0.2814  0.4590  0.2203
 3577TIP3    H132222   1.744   4.215  17.116 -1.1314  0.8209  1.5192
 3577TIP3    H232223   1.775   4.342  17.192  0.8816  1.1069  0.2707
 3578TIP3   OH232224   6.504   4.257  14.685  0.0682 -0.5393  0.5629
 3578TIP3    H132225   6.460   4.307  14.616 -0.7972 -0.5294  1.1126
 3578TIP3    H232226   6.591   4.297  14.691  0.4381 -1.0602 -1.0609
 3579TIP3   OH232227   5.323   6.347   1.268  0.3687  0.4663 -0.2823
 3579TIP3    H132228   5.267   6.418   1.300 -0.4976 -0.5536  0.4743
 3579TIP3    H232229   5.262   6.277   1.245  1.3311 -0.5788  0.3357
 3580TIP3   OH232230   1.741   3.654  11.852  1.3480  0.3447 -0.2523
 3580TIP3    H132231   1.743   3.720  11.921  2.7063 -0.4875  0.5214
 3580TIP3    H232232   1.738   3.571  11.898  0.9768 -0.1884 -1.2143
 3581TIP3   OH232233   0.938   0.198   5.922 -0.6213  0.0939 -0.0798
 3581TIP3    H132234   0.979   0.161   5.844 -0.8870  1.4652 -0.8770
 3581TIP3    H232235   0.847   0.171   5.916 -0.1991 -1.6622  0.9117
 3582TIP3   OH232236   1.301   3.236  12.495 -0.3710  0.4102  0.4337
 3582TIP3    H132237   1.302   3.212  12.403  0.4459  0.6181  0.3831
 3582TIP3    H232238   1.304   3.153  12.542  1.0909  0.3505  0.2636
 3583TIP3   OH232239   3.146   4.192   1.857  0.3050 -0.1548  0.0693
 3583TIP3    H132240   3.165   4.275   1.901 -0.3721  0.9116 -1.5885
 3583TIP3    H232241   3.086   4.216   1.787 -0.7051 -2.2247  0.2039
 3584TIP3   OH232242   3.378   4.741  10.922  0.4170 -0.0442  0.3088
 3584TIP3    H132243   3.356   4.664  10.975  1.5084 -0.8134 -0.3213
 3584TIP3    H232244   3.314   4.740  10.851  0.6395 -0.5816  0.1094
 3585TIP3   OH232245   4.245   4.691   2.463 -0.1919 -0.3461 -0.3137
 3585TIP3    H132246   4.255   4.777   2.504  0.7002 -1.1674  1.2371
 3585TIP3    H232247   4.273   4.704   2.372  0.9801  0.7553  0.1914
 3586TIP3   OH232248   6.776   2.357   1.889 -0.1474 -0.1864 -0.4642
 3586TIP3    H132249   6.748   2.426   1.828 -1.7029 -0.7378 -0.4097
 3586TIP3    H232250   6.694   2.326   1.928  0.7530 -0.5202  1.1774
 3587TIP3   OH232251   3.121   5.147   4.147  0.2349 -0.3769  0.2456
 3587TIP3    H132252   3.052   5.204   4.180  0.6543  0.2224  0.0934
 3587TIP3    H232253   3.130   5.079   4.214  0.3219  0.2075  0.8313
 3588TIP3   OH232254   2.403   2.380   0.723  0.4403 -0.0899 -0.1355
 3588TIP3    H132255   2.378   2.378   0.630  1.3178  0.1460 -0.3773
 3588TIP3    H232256   2.497   2.363   0.723  0.7267  1.4322  0.5952
 3589TIP3   OH232257   4.071   4.258  12.902 -0.5351 -0.2384  0.0653
 3589TIP3    H132258   4.098   4.292  12.817 -1.2453 -0.1151 -0.1147
 3589TIP3    H232259   4.074   4.163  12.892 -0.0346 -0.2231  0.0874
 3590TIP3   OH232260   6.790   1.718  16.617  0.4188  0.1850  0.0189
 3590TIP3    H132261   6.813   1.808  16.597  0.5117  0.3879  1.0203
 3590TIP3    H232262   6.787   1.714  16.712  3.5393 -1.6176  0.1362
 3591TIP3   OH232263   6.197   0.101  15.848 -0.1709  0.4217 -0.2603
 3591TIP3    H132264   6.275   0.082  15.900 -1.8229 -0.2776  2.0481
 3591TIP3    H232265   6.231   0.138  15.767  2.5571  0.1710  0.7072
 3592TIP3   OH232266   3.509   1.927  16.068  0.3079  0.3460 -0.1351
 3592TIP3    H132267   3.530   1.842  16.104 -0.9767  0.5638  1.1502
 3592TIP3    H232268   3.516   1.988  16.141  3.3981  1.7341 -1.4889
 3593TIP3   OH232269   2.169   0.933  13.103  0.1371  0.4457  0.1159
 3593TIP3    H132270   2.150   0.840  13.092  0.0402  0.6524 -1.4639
 3593TIP3    H232271   2.232   0.936  13.176  0.2469 -0.8625  0.0816
 3594TIP3   OH232272   5.189   4.585   4.061 -0.1052 -0.2984  0.4944
 3594TIP3    H132273   5.278   4.558   4.085  0.8735  2.4620  0.1733
 3594TIP3    H232274   5.186   4.575   3.966  0.0474  0.1169  0.4455
 3595TIP3   OH232275   4.907   6.377   6.366  0.1713 -0.1889  0.1310
 3595TIP3    H132276   4.927   6.415   6.451  1.0757 -1.2156  0.3860
 3595TIP3    H232277   4.834   6.430   6.333  0.8962  1.2609  0.8052
 3596TIP3   OH232278   2.653   6.276  15.807  0.1966 -0.5401 -0.5564
 3596TIP3    H132279   2.718   6.343  15.827  1.5850 -1.4241 -1.9739
 3596TIP3    H232280   2.704   6.197  15.790 -1.2695 -1.3805 -1.2094
 3597TIP3   OH232281   5.942   5.813  13.183 -0.1572 -0.4685 -0.8975
 3597TIP3    H132282   5.995   5.741  13.215 -0.3148 -0.1128  0.1856
 3597TIP3    H232283   5.866   5.771  13.143 -0.7373 -0.8820  0.6157
 3598TIP3   OH232284   6.514   5.904   1.988  0.4748 -0.0778  0.6234
 3598TIP3    H132285   6.587   5.845   1.970  1.0445  0.7493  0.2045
 3598TIP3    H232286   6.468   5.863   2.062  0.5960 -1.2712  0.0496
 3599TIP3   OH232287   5.388   2.380  15.673  0.6446  0.1947 -0.8647
 3599TIP3    H132288   5.352   2.454  15.624  0.9716 -0.4962 -2.1775
 3599TIP3    H232289   5.483   2.395  15.674  0.5757  0.5966  0.2236
 3600TIP3   OH232290   3.657   6.576  15.555 -0.3551 -0.6201  0.0545
 3600TIP3    H132291   3.718   6.600  15.624  1.0261  1.1512 -1.7225
 3600TIP3    H232292   3.713   6.545  15.484 -1.6189 -0.3593 -1.0768
 3601TIP3   OH232293   2.150   1.851  16.005  0.2374 -0.8826 -0.8945
 3601TIP3    H132294   2.151   1.796  16.083 -1.3988  1.3822  0.8184
 3601TIP3    H232295   2.242   1.860  15.981  1.1512  1.1242  2.8630
 3602TIP3   OH232296   3.244   1.354  15.299 -0.6347  0.6413  0.0058
 3602TIP3    H132297   3.291   1.401  15.369 -2.0209  0.8795  0.7981
 3602TIP3    H232298   3.231   1.266  15.334 -0.5453  0.4973 -0.3215
 3603TIP3   OH232299   0.476   2.110   2.510 -0.4721  0.1083 -0.0212
 3603TIP3    H132300   0.491   2.083   2.600  0.5140 -0.8558 -0.4712
 3603TIP3    H232301   0.426   2.192   2.517  1.4205  1.1672  1.4238
 3604TIP3   OH232302   2.363   4.146  14.646 -0.3608 -0.0066 -1.0121
 3604TIP3    H132303   2.299   4.078  14.623  1.1020 -1.5365 -0.6179
 3604TIP3    H232304   2.415   4.159  14.567  0.0824 -0.1377 -0.7406
 3605TIP3   OH232305   2.565   2.539  16.250  0.1206  0.3441 -0.1263
 3605TIP3    H132306   2.497   2.472  16.252 -1.2749  1.7551  1.6006
 3605TIP3    H232307   2.578   2.557  16.157 -1.2914 -0.5205 -0.5132
 3606TIP3   OH232308   0.153   5.281   2.787 -0.4948 -0.1646  0.1053
 3606TIP3    H132309   0.069   5.238   2.797 -2.1940  2.6833 -1.1629
 3606TIP3    H232310   0.178   5.265   2.696 -0.2445 -0.0226  0.1459
 3607TIP3   OH232311   4.955   3.511  16.517 -0.3573 -0.5585  0.4551
 3607TIP3    H132312   4.963   3.452  16.592 -2.8112 -2.7170 -0.9086
 3607TIP3    H232313   4.906   3.586  16.551  1.6653  0.1737  1.8690
 3608TIP3   OH232314   4.690   6.590   1.799  0.9704  0.0168 -0.0173
 3608TIP3    H132315   4.637   6.659   1.759 -1.4607 -1.1826  1.0038
 3608TIP3    H232316   4.736   6.549   1.725 -1.0407 -0.1548 -1.2090
 3609TIP3   OH232317   0.895   3.281   4.263 -0.4290  0.5259  0.2098
 3609TIP3    H132318   0.897   3.237   4.178 -1.0393  0.6440  0.1308
 3609TIP3    H232319   0.865   3.370   4.244 -0.9626  0.4348  0.5943
 3610TIP3   OH232320   0.109   3.960   0.462  0.5228 -0.2857  0.2466
 3610TIP3    H132321   0.175   3.990   0.400  0.7814  0.3399  0.8172
 3610TIP3    H232322   0.046   3.911   0.409  0.4755  0.6652 -0.5858
 3611TIP3   OH232323   2.965   6.279  16.048 -0.1374 -0.2771 -0.3538
 3611TIP3    H132324   2.946   6.340  15.977  0.6628  1.2417  0.6885
 3611TIP3    H232325   2.881   6.235  16.065 -0.4380 -0.3054 -1.9048
 3612TIP3   OH232326   4.713   0.555   5.299  0.1622  0.1367  0.3984
 3612TIP3    H132327   4.647   0.622   5.320  0.0891  1.0043 -2.4057
 3612TIP3    H232328   4.793   0.605   5.283  0.5244 -0.5775 -0.0333
 3613TIP3   OH232329   4.136   5.888  15.182  0.1979 -0.5414  0.2916
 3613TIP3    H132330   4.145   5.935  15.099  0.5714 -0.6187  0.2874
 3613TIP3    H232331   4.226   5.877  15.214  0.0625 -0.5995  0.6576
 3614TIP3   OH232332   4.108   6.477   4.208 -0.1059 -0.5159 -0.6545
 3614TIP3    H132333   4.108   6.561   4.254 -0.9197 -2.0412  2.2753
 3614TIP3    H232334   4.050   6.491   4.133 -0.1942  1.5311 -0.2512
 3615TIP3   OH232335   4.561   6.474  15.885 -0.6288 -0.0961 -0.2676
 3615TIP3    H132336   4.503   6.535  15.838 -0.6819 -0.3622 -0.5533
 3615TIP3    H232337   4.633   6.528  15.917 -0.7787  0.1504 -0.3491
 3616TIP3   OH232338   5.169   2.665   0.005 -0.0126 -0.3709  0.5277
 3616TIP3    H132339   5.106   2.613   0.054 -0.6727 -0.2286 -0.1655
 3616TIP3    H232340   5.245   2.671   0.063 -0.8218 -0.1150  1.5741
 3617TIP3   OH232341   6.290   3.351   2.745 -0.0629  0.6223  0.0908
 3617TIP3    H132342   6.299   3.365   2.651 -1.1104 -1.2386 -0.3134
 3617TIP3    H232343   6.323   3.432   2.785  2.8616  0.4203 -1.7752
 3618TIP3   OH232344   3.979   3.490  15.181 -0.4006  0.0429 -0.2586
 3618TIP3    H132345   3.950   3.517  15.268 -0.6368  0.9568 -0.6180
 3618TIP3    H232346   4.058   3.541  15.166  0.4378 -1.1514 -0.0078
 3619TIP3   OH232347   2.907   6.666   5.498  0.2530  0.5241  0.1375
 3619TIP3    H132348   2.869   6.579   5.512 -0.0499  0.3922 -1.4129
 3619TIP3    H232349   2.843   6.712   5.444  1.7448  0.6893 -1.5535
 3620TIP3   OH232350   3.675   2.636   0.673  0.0814  0.2798  0.0278
 3620TIP3    H132351   3.595   2.624   0.622 -0.4379  0.5037  0.7997
 3620TIP3    H232352   3.706   2.724   0.649 -0.5718  0.6867  0.6741
 3621TIP3   OH232353   0.789   4.147  14.506  0.4499  0.1590 -1.0853
 3621TIP3    H132354   0.814   4.217  14.446  3.9798 -0.8614 -0.9275
 3621TIP3    H232355   0.801   4.184  14.593  2.2962 -0.6077 -1.0024
 3622TIP3   OH232356   6.816   4.656   6.591 -0.1952 -0.1530 -0.5414
 3622TIP3    H132357   6.802   4.731   6.533  1.3105  1.9755  1.7218
 3622TIP3    H232358   6.911   4.641   6.588 -0.2159 -0.6060  0.5906
 3623TIP3   OH232359   4.939   5.540   1.818 -0.1099 -0.2969 -0.4885
 3623TIP3    H132360   5.013   5.492   1.855 -0.3473  0.1934  0.6253
 3623TIP3    H232361   4.877   5.471   1.791 -0.6246 -0.6280  1.4777
 3624TIP3   OH232362   1.793   5.827   1.733 -0.3024 -0.6157 -0.3446
 3624TIP3    H132363   1.789   5.830   1.829  1.7130 -1.4665 -0.2096
 3624TIP3    H232364   1.751   5.744   1.710  0.8034 -1.2492 -0.0847
 3625TIP3   OH232365   4.544   5.865  11.046 -0.2631 -0.1258  0.2025
 3625TIP3    H132366   4.604   5.792  11.062  2.8199  2.4582  1.0969
 3625TIP3    H232367   4.485   5.866  11.121  1.5218 -0.0126  1.6494
 3626TIP3   OH232368   3.050   5.958   3.159 -0.0045 -0.2426 -0.3464
 3626TIP3    H132369   3.105   5.962   3.237 -0.3072  0.2846 -0.1554
 3626TIP3    H232370   3.095   5.898   3.100 -0.4226 -1.6279  0.7299
 3627TIP3   OH232371   6.370   3.150  15.953 -0.0566 -0.0445 -0.4732
 3627TIP3    H132372   6.464   3.145  15.972  0.2620  3.2706 -0.8732
 3627TIP3    H232373   6.366   3.161  15.858 -0.7966  0.5336 -0.3804
 3628TIP3   OH232374   2.700   2.330   2.389 -0.0193 -0.1211 -0.0771
 3628TIP3    H132375   2.781   2.363   2.350  0.5120 -0.8596  0.3762
 3628TIP3    H232376   2.717   2.329   2.483 -0.1576 -1.2890 -0.0531
 3629TIP3   OH232377   4.014   2.835  13.503  0.5617  0.5205 -0.0623
 3629TIP3    H132378   4.080   2.766  13.508 -0.5209 -0.4634  0.7165
 3629TIP3    H232379   3.934   2.791  13.474  0.1526  1.6483 -0.7048
 3630TIP3   OH232380   4.373   0.811  12.056 -0.0851  0.0184 -0.0049
 3630TIP3    H132381   4.428   0.734  12.050 -0.7779 -0.3910 -1.3671
 3630TIP3    H232382   4.284   0.777  12.058 -0.4174  0.8003 -1.1911
 3631TIP3   OH232383   1.145   5.910  15.175  0.0521 -0.8996  0.1043
 3631TIP3    H132384   1.065   5.961  15.166 -0.1546 -0.9631  1.3736
 3631TIP3    H232385   1.159   5.904  15.270  1.5470 -0.9101 -0.1006
 3632TIP3   OH232386   0.093   1.607   0.867  0.2819 -0.3263 -0.0869
 3632TIP3    H132387   0.030   1.673   0.840 -0.4241 -1.1395 -0.4699
 3632TIP3    H232388   0.148   1.592   0.790 -0.5701 -1.3251 -0.5117
 3633TIP3   OH232389   4.678   5.606   1.388 -0.3321 -0.0512  0.0694
 3633TIP3    H132390   4.598   5.608   1.439  0.8307  0.6515  1.9164
 3633TIP3    H232391   4.670   5.680   1.327 -0.1010  1.4375  1.8088
 3634TIP3   OH232392   2.167   4.364  11.537 -0.3489 -0.2749 -0.1622
 3634TIP3    H132393   2.161   4.391  11.445  1.7786  0.1195 -0.2232
 3634TIP3    H232394   2.178   4.446  11.585 -0.7921 -0.5302  0.3715
 3635TIP3   OH232395   4.024   1.579   3.233 -0.5006  0.0316 -0.3522
 3635TIP3    H132396   3.952   1.595   3.293 -0.6066  1.1944 -0.7668
 3635TIP3    H232397   3.987   1.524   3.164 -0.9236  0.4114 -0.4275
 3636TIP3   OH232398   3.195   1.933   1.148  0.0260  0.3536 -0.1170
 3636TIP3    H132399   3.102   1.946   1.131 -0.2003  0.7894  1.3706
 3636TIP3    H232400   3.209   1.971   1.235  1.4619 -0.2776 -0.0581
 3637TIP3   OH232401   3.745   5.770  12.685  0.5054  0.0245 -0.0821
 3637TIP3    H132402   3.755   5.764  12.589 -0.3369  0.0988 -0.1760
 3637TIP3    H232403   3.826   5.732  12.719  0.4369 -0.8131 -0.8201
 3638TIP3   OH232404   5.491   4.513  13.457  0.0359  0.1725  0.3797
 3638TIP3    H132405   5.406   4.507  13.500 -1.0735  0.0976 -1.7469
 3638TIP3    H232406   5.541   4.575  13.510 -1.7037  1.0184  1.0702
 3639TIP3   OH232407   3.914   4.223  15.244 -0.1548  0.3741  0.1242
 3639TIP3    H132408   3.849   4.184  15.303  2.3611 -3.6354  0.4408
 3639TIP3    H232409   3.895   4.183  15.159 -0.1194  1.7010 -0.5216
 3640TIP3   OH232410   4.694   0.148  14.197 -0.3348  0.0626  0.3552
 3640TIP3    H132411   4.716   0.076  14.138  0.7114  0.0352  0.7615
 3640TIP3    H232412   4.599   0.141  14.209 -0.1795 -1.5833  0.8141
 3641TIP3   OH232413   3.513   5.243  16.292  0.3300  0.4018  0.1804
 3641TIP3    H132414   3.491   5.155  16.322 -0.0714 -0.3050 -2.0399
 3641TIP3    H232415   3.499   5.300  16.368 -0.5636 -1.2904  1.2968
 3642TIP3   OH232416   1.778   2.601  13.048  0.3306 -0.1787  0.5616
 3642TIP3    H132417   1.750   2.515  13.078  1.1702 -0.4278  0.6647
 3642TIP3    H232418   1.772   2.657  13.125 -1.2846  0.1317  0.2284
 3643TIP3   OH232419   2.897   5.736  11.700  0.2666  0.3952 -0.0632
 3643TIP3    H132420   2.888   5.791  11.778  1.7309 -0.2077  0.5618
 3643TIP3    H232421   2.822   5.677  11.703  0.2963  0.3984  0.8920
 3644TIP3   OH232422   4.830   5.258   3.290  0.7822 -0.7586  0.2473
 3644TIP3    H132423   4.869   5.171   3.284  0.0484 -0.9180 -3.3480
 3644TIP3    H232424   4.737   5.241   3.308  0.7429 -0.7207  0.0850
 3645TIP3   OH232425   4.235   4.352   6.226 -0.1033 -0.0623 -0.4515
 3645TIP3    H132426   4.246   4.326   6.318  1.8492  0.7395 -0.4360
 3645TIP3    H232427   4.149   4.394   6.223 -0.1416 -0.0068  1.0152
 3646TIP3   OH232428   5.310   1.222  16.772  0.7775  0.3805  0.0084
 3646TIP3    H132429   5.280   1.223  16.863 -0.3190 -2.4727 -0.2729
 3646TIP3    H232430   5.290   1.309  16.739 -1.2181  0.6251  1.7620
 3647TIP3   OH232431   1.320   2.599  13.618  0.0459  0.2467 -0.3060
 3647TIP3    H132432   1.275   2.609  13.534  2.9750 -0.6149 -2.0330
 3647TIP3    H232433   1.372   2.679  13.627  1.0791 -0.4308 -0.1650
 3648TIP3   OH232434   3.626   3.095   0.197 -0.3600 -0.4027 -0.2386
 3648TIP3    H132435   3.688   3.021   0.196 -0.6528 -0.6515 -0.2320
 3648TIP3    H232436   3.540   3.053   0.203 -0.5361 -0.0619 -0.4047
 3649TIP3   OH232437   2.102   3.115   0.506 -0.8173 -0.4428  0.2279
 3649TIP3    H132438   2.163   3.164   0.451  0.4116  0.1290  2.0599
 3649TIP3    H232439   2.033   3.178   0.528 -0.4778 -0.2121  0.6369
 3650TIP3   OH232440   3.105   1.828  12.338  0.1727 -0.0169  0.0435
 3650TIP3    H132441   3.124   1.920  12.353  0.1681  0.0133 -0.1317
 3650TIP3    H232442   3.134   1.812  12.248 -0.1383 -0.1005 -0.0439
 3651TIP3   OH232443   6.527   2.514  10.739 -0.7943 -0.4466 -0.0650
 3651TIP3    H132444   6.608   2.558  10.713 -0.3047 -1.3797 -0.1283
 3651TIP3    H232445   6.496   2.473  10.658 -0.0757 -2.0681  0.4529
 3652TIP3   OH232446   1.119   3.646  16.911  0.2194  0.3767 -0.3009
 3652TIP3    H132447   1.189   3.618  16.970 -1.0274 -0.8678  0.6091
 3652TIP3    H232448   1.109   3.739  16.928  0.3270  0.1574  0.9856
 3653TIP3   OH232449   5.243   5.199  16.571  0.1505  0.0962 -0.0495
 3653TIP3    H132450   5.320   5.145  16.589 -0.2636 -0.1809  0.9616
 3653TIP3    H232451   5.269   5.288  16.598  0.8451  0.4203 -1.7583
 3654TIP3   OH232452   1.671   3.471  14.369 -0.1329 -0.2766 -0.1558
 3654TIP3    H132453   1.655   3.479  14.275  1.3272  0.3778 -0.3497
 3654TIP3    H232454   1.617   3.539  14.408 -0.5144 -0.3543 -0.5342
 3655TIP3   OH232455   1.650   6.615  16.468 -0.1351 -0.2428 -0.1753
 3655TIP3    H132456   1.690   6.643  16.550 -1.1582  0.7803 -0.0137
 3655TIP3    H232457   1.689   6.529  16.451 -0.1457 -0.6153  1.5418
 3656TIP3   OH232458   1.595   3.760   2.897 -0.4513 -0.0541 -0.0663
 3656TIP3    H132459   1.678   3.803   2.918 -1.2344  1.5754 -0.2907
 3656TIP3    H232460   1.619   3.688   2.839  1.0186 -0.7291  1.3382
 3657TIP3   OH232461   4.434   3.976  11.938 -0.6865  0.2653  0.1515
 3657TIP3    H132462   4.501   4.009  11.998 -1.4616  0.7969  0.7460
 3657TIP3    H232463   4.450   4.023  11.856 -0.6614  0.7907  0.4521
 3658TIP3   OH232464   5.318   1.345  12.552  0.2031 -0.0942 -0.2790
 3658TIP3    H132465   5.399   1.293  12.554  1.0682  1.2678  3.6548
 3658TIP3    H232466   5.250   1.284  12.578  0.3745 -0.5556 -0.8900
 3659TIP3   OH232467   2.745   0.819   3.230  0.0654  0.3876  0.2033
 3659TIP3    H132468   2.661   0.789   3.195  0.5298  0.1458 -0.7203
 3659TIP3    H232469   2.737   0.914   3.233 -0.6354  0.3036  1.1314
 3660TIP3   OH232470   2.673   1.344  15.673 -0.0794  0.6100 -0.0982
 3660TIP3    H132471   2.702   1.302  15.754 -0.8029 -0.2184 -0.2528
 3660TIP3    H232472   2.580   1.363  15.688  0.4350  2.9478  0.2821
 3661TIP3   OH232473   5.027   0.551  15.114  0.3288 -0.1605 -0.2900
 3661TIP3    H132474   5.111   0.535  15.069  0.3673 -0.0938 -0.2428
 3661TIP3    H232475   4.962   0.552  15.043  0.3376 -0.4364 -0.3018
 3662TIP3   OH232476   0.250   4.705   3.294  0.3891 -0.3680  0.7835
 3662TIP3    H132477   0.333   4.712   3.247  0.2244  1.9364  0.7788
 3662TIP3    H232478   0.197   4.645   3.241  0.5726  1.3904 -1.4599
 3663TIP3   OH232479   3.257   2.439   3.436  0.2164  0.1181  0.4191
 3663TIP3    H132480   3.210   2.373   3.385  0.3486  1.0257 -0.8871
 3663TIP3    H232481   3.349   2.410   3.434 -0.0744 -1.0178  1.9924
 3664TIP3   OH232482   4.437   0.883  12.876  0.4578 -0.3602 -0.5842
 3664TIP3    H132483   4.363   0.845  12.924  1.4609 -2.2917 -0.4975
 3664TIP3    H232484   4.468   0.953  12.933 -2.1526  1.4462 -1.2692
 3665TIP3   OH232485   1.383   1.251   3.103  0.2197  0.3562  0.8095
 3665TIP3    H132486   1.355   1.310   3.034 -0.9147  0.2277  1.1525
 3665TIP3    H232487   1.479   1.251   3.097  0.1243  0.0874 -0.9612
 3666TIP3   OH232488   5.681   1.723  14.257  0.0942 -0.5611  0.2010
 3666TIP3    H132489   5.721   1.682  14.333  1.6216  0.4640 -0.0271
 3666TIP3    H232490   5.634   1.799  14.292 -0.1680 -0.7509  0.2609
 3667TIP3   OH232491   3.032   5.726   2.657 -0.3452  0.0021 -0.3105
 3667TIP3    H132492   2.985   5.688   2.582  1.5675 -0.7292 -1.1784
 3667TIP3    H232493   3.100   5.780   2.618  0.0546  0.4105  0.9296
 3668TIP3   OH232494   3.997   0.814   0.097 -0.2807  0.1893  0.3093
 3668TIP3    H132495   3.932   0.832   0.029  0.0242  1.5270  0.3505
 3668TIP3    H232496   3.977   0.725   0.126 -1.7921  0.4039 -0.0046
 3669TIP3   OH232497   5.344   6.627   0.467  0.6121 -0.4139  0.0247
 3669TIP3    H132498   5.375   6.640   0.378 -0.4178 -1.3807 -0.5016
 3669TIP3    H232499   5.298   6.708   0.489 -1.7584 -1.3010 -1.4728
 3670TIP3   OH232500   3.143   3.863   0.705 -0.4344  0.4986  0.4985
 3670TIP3    H132501   3.124   3.881   0.797  0.8254  1.0607  0.6534
 3670TIP3    H232502   3.100   3.779   0.688 -0.4792  0.2765  1.6626
 3671TIP3   OH232503   2.302   4.348  12.312  0.7162 -0.3428  0.3914
 3671TIP3    H132504   2.287   4.331  12.404 -1.7702 -1.9362 -0.2697
 3671TIP3    H232505   2.366   4.282  12.285  1.7767  0.4007  1.0410
 3672TIP3   OH232506   0.594   3.318  13.794 -0.2807  0.0987 -0.4989
 3672TIP3    H132507   0.665   3.273  13.747  0.0553  0.6085 -0.4803
 3672TIP3    H232508   0.633   3.345  13.877  0.3293  2.8161 -1.6081
 3673TIP3   OH232509   1.639   3.832  12.729 -0.3360  0.0431 -0.6065
 3673TIP3    H132510   1.695   3.754  12.727 -0.9079 -0.3575 -0.8302
 3673TIP3    H232511   1.618   3.843  12.822  0.3499  0.3634 -0.4849
 3674TIP3   OH232512   1.640   4.072   5.726 -0.2558  0.2062 -0.3276
 3674TIP3    H132513   1.591   4.007   5.676 -2.1801  2.0663 -0.9181
 3674TIP3    H232514   1.591   4.083   5.807  0.4022  0.4653  0.0421
 3675TIP3   OH232515   2.855   4.170  13.590  0.5236 -0.5124 -0.8935
 3675TIP3    H132516   2.791   4.109  13.554  1.1238 -0.9774 -1.1613
 3675TIP3    H232517   2.856   4.152  13.684  0.7866 -0.9849 -0.9897
 3676TIP3   OH232518   5.681   4.558  17.288 -0.2476 -0.2414  0.8044
 3676TIP3    H132519   5.690   4.515  17.203  0.6347 -1.3932  1.4547
 3676TIP3    H232520   5.610   4.511  17.332  0.3290 -0.6644  1.2939
 3677TIP3   OH232521   4.018   0.457  15.614 -0.2047  0.0413  0.0027
 3677TIP3    H132522   4.073   0.517  15.665  1.0402 -0.6613 -0.4848
 3677TIP3    H232523   3.986   0.393  15.678 -0.5925  0.5412  0.3170
 3678TIP3   OH232524   2.604   5.417   3.748  0.0078 -0.3287 -0.3000
 3678TIP3    H132525   2.568   5.404   3.660 -2.9149  1.1045  0.6520
 3678TIP3    H232526   2.562   5.349   3.801 -0.7717  0.9168  0.6845
 3679TIP3   OH232527   0.669   2.819   4.308  0.4358  0.3522  0.1594
 3679TIP3    H132528   0.652   2.907   4.275 -0.9470  0.3150  0.7260
 3679TIP3    H232529   0.764   2.813   4.315  0.6268  1.1489 -1.6122
 3680TIP3   OH232530   4.564   2.296   3.714 -0.1108 -0.0598  1.0873
 3680TIP3    H132531   4.483   2.332   3.678  0.1460  0.8470  1.4105
 3680TIP3    H232532   4.632   2.322   3.652 -0.0480 -0.7353  0.8681
 3681TIP3   OH232533   5.973   5.415   5.845  0.6857 -0.7667 -0.2004
 3681TIP3    H132534   5.883   5.406   5.874  0.9021  0.4139  0.9206
 3681TIP3    H232535   6.017   5.335   5.875  0.1140 -1.1472 -0.3787
 3682TIP3   OH232536   5.828   0.036  17.248 -0.0646 -0.1823  0.1239
 3682TIP3    H132537   5.734   0.019  17.254 -0.4719  1.7824 -0.3861
 3682TIP3    H232538   5.835   0.131  17.253  1.8840 -0.2969 -0.2217
 3683TIP3   OH232539   1.354   2.680   5.202 -0.0117  0.1598  0.2863
 3683TIP3    H132540   1.278   2.632   5.170 -0.7448  0.8492  0.9368
 3683TIP3    H232541   1.427   2.649   5.149 -0.7953 -0.3258 -0.5242
 3684TIP3   OH232542   1.314   5.150   1.233 -1.1086 -0.2669  0.5131
 3684TIP3    H132543   1.371   5.088   1.188 -0.5984 -0.6683  1.7048
 3684TIP3    H232544   1.310   5.118   1.323 -0.6549  1.5550  1.2004
 3685TIP3   OH232545   5.697   3.074  15.815 -0.3735 -0.3295  0.4150
 3685TIP3    H132546   5.648   3.009  15.764 -1.4471 -0.1312  1.1826
 3685TIP3    H232547   5.710   3.147  15.754  0.5736 -1.1324 -0.3572
 3686TIP3   OH232548   4.469   0.723   3.336 -0.2799  0.2400  0.2768
 3686TIP3    H132549   4.391   0.746   3.388 -1.0286 -1.4903 -0.0394
 3686TIP3    H232550   4.465   0.628   3.328  1.9488  0.1166  0.3440
 3687TIP3   OH232551   0.245   0.468  15.424  0.2050 -0.8864 -0.0512
 3687TIP3    H132552   0.288   0.383  15.433 -0.2213 -1.0861  0.1641
 3687TIP3    H232553   0.223   0.492  15.514 -0.1941 -0.8245 -0.1630
 3688TIP3   OH232554   6.032   3.613  13.117  0.0707  0.3604 -0.3119
 3688TIP3    H132555   5.993   3.540  13.165  1.1323  0.2699  0.4197
 3688TIP3    H232556   6.034   3.685  13.179 -0.1480  0.7522 -0.7567
 3689TIP3   OH232557   1.399   2.319  14.095  0.7864 -0.0764  0.1807
 3689TIP3    H132558   1.454   2.360  14.161 -0.4631 -0.1533  1.2959
 3689TIP3    H232559   1.457   2.304  14.020  1.7239  1.9201  0.4768
 3690TIP3   OH232560   5.391   3.783   0.869 -0.4534  0.2769 -0.5619
 3690TIP3    H132561   5.305   3.814   0.841 -1.5143 -2.5086 -0.6067
 3690TIP3    H232562   5.373   3.732   0.948  1.1353 -0.5074 -0.6861
 3691TIP3   OH232563   4.117   3.256   3.359  0.0322 -0.3817  0.1947
 3691TIP3    H132564   4.023   3.236   3.364 -0.0724  0.0395 -0.0623
 3691TIP3    H232565   4.158   3.171   3.347 -0.4435 -0.4158 -1.3016
 3692TIP3   OH232566   1.301   1.825  12.825  0.1488  0.1539  0.4003
 3692TIP3    H132567   1.226   1.819  12.766  0.2777 -2.2671  0.4273
 3692TIP3    H232568   1.377   1.832  12.768  0.0575  0.4509  0.3187
 3693TIP3   OH232569   3.600   3.575   0.794  0.7034 -0.1346  0.3705
 3693TIP3    H132570   3.535   3.508   0.773  2.0084 -0.7839 -1.6831
 3693TIP3    H232571   3.684   3.529   0.792  1.5995  1.5001 -0.8688
 3694TIP3   OH232572   4.786   2.610  10.463  0.0167 -0.0501 -0.0716
 3694TIP3    H132573   4.858   2.624  10.402  1.0925 -1.7924  0.7703
 3694TIP3    H232574   4.714   2.579  10.407  0.4825 -0.0564 -0.6717
 3695TIP3   OH232575   2.071   4.202   0.267 -0.1416  0.0187 -0.5806
 3695TIP3    H132576   2.115   4.261   0.205  1.7633 -0.6360  0.1126
 3695TIP3    H232577   2.033   4.133   0.211  1.9523 -0.8177 -1.0296
 3696TIP3   OH232578   2.204   5.152  13.206  0.5295 -0.3306 -0.3580
 3696TIP3    H132579   2.202   5.191  13.294  1.8204 -1.0367  0.0054
 3696TIP3    H232580   2.244   5.220  13.151 -1.9234  0.8021 -0.7874
 3697TIP3   OH232581   3.008   5.663  15.849 -0.5918 -0.1363 -0.0981
 3697TIP3    H132582   3.088   5.642  15.898  1.2013  0.6069 -2.5838
 3697TIP3    H232583   3.000   5.758  15.856  0.9158  0.2655 -2.9372
 3698TIP3   OH232584   5.364   0.330  16.857  0.2722  0.7466  0.2199
 3698TIP3    H132585   5.419   0.278  16.798 -0.5465 -0.8464  0.8324
 3698TIP3    H232586   5.305   0.378  16.799  0.7460  0.6675 -0.3313
 3699TIP3   OH232587   2.171   6.666   1.082 -0.1589  0.1991  0.1587
 3699TIP3    H132588   2.261   6.644   1.104  0.4897  3.2599  0.7651
 3699TIP3    H232589   2.125   6.668   1.166 -0.4556  0.1621 -0.0016
 3700TIP3   OH232590   0.457   3.938  14.401 -0.5260 -0.1610  0.7188
 3700TIP3    H132591   0.423   3.998  14.467 -0.7154 -0.0783  0.5478
 3700TIP3    H232592   0.478   3.858  14.449 -0.0135  0.1372  0.9958
 3701TIP3   OH232593   3.366   3.014   0.251  0.0502  0.2052  0.0447
 3701TIP3    H132594   3.357   3.102   0.286 -1.1765 -0.0727  0.4524
 3701TIP3    H232595   3.330   3.019   0.163 -1.0139 -0.1317  0.4561
 3702TIP3   OH232596   3.361   4.462   3.822 -0.5397  0.5462 -0.4122
 3702TIP3    H132597   3.420   4.535   3.840  0.0106 -0.2040  0.9243
 3702TIP3    H232598   3.340   4.427   3.909 -3.6716  1.3514 -0.7906
 3703TIP3   OH232599   1.397   0.932  14.025  0.2054  0.2730  0.3893
 3703TIP3    H132600   1.466   0.923  13.959 -2.0738 -2.7502 -1.6528
 3703TIP3    H232601   1.317   0.949  13.975 -1.1672  0.2658  2.5188
 3704TIP3   OH232602   4.265   5.761   1.229 -0.0341  0.1471  0.4287
 3704TIP3    H132603   4.302   5.821   1.294 -0.0143 -0.2515  0.7868
 3704TIP3    H232604   4.235   5.818   1.158  1.5986  0.4459 -0.0404
 3705TIP3   OH232605   2.787   3.430  11.645 -0.2350  0.1985 -0.0832
 3705TIP3    H132606   2.712   3.486  11.623 -0.0654  0.3731 -0.2229
 3705TIP3    H232607   2.749   3.344  11.663 -0.6847  0.7926  1.8793
 3706TIP3   OH232608   3.290   4.776  16.438 -0.3321 -0.5361  0.0320
 3706TIP3    H132609   3.257   4.723  16.365 -0.9049 -0.6040  0.3370
 3706TIP3    H232610   3.230   4.757  16.510  0.8016 -1.2027  0.8108
 3707TIP3   OH232611   0.061   2.575  14.056  0.5735 -0.4529 -0.2155
 3707TIP3    H132612   0.066   2.668  14.080  1.6081 -0.2253 -1.3152
 3707TIP3    H232613  -0.032   2.562  14.035  0.6761  0.6695 -1.4173
 3708TIP3   OH232614   3.028   4.305  14.612 -0.2879  0.0555  0.2417
 3708TIP3    H132615   3.083   4.383  14.621 -2.0355  1.1778  1.6855
 3708TIP3    H232616   3.001   4.285  14.702 -0.8334 -1.4834 -0.2566
 3709TIP3   OH232617   1.131   3.570   2.676 -0.1428 -0.0510  0.2993
 3709TIP3    H132618   1.096   3.642   2.624 -0.0190  0.2070  0.5758
 3709TIP3    H232619   1.053   3.524   2.708 -0.2251 -0.4940 -0.4927
 3710TIP3   OH232620   6.483   5.420   6.666  0.1555  0.2506  0.0653
 3710TIP3    H132621   6.435   5.493   6.627 -1.9232 -0.9697  0.2779
 3710TIP3    H232622   6.427   5.390   6.738  1.1936 -1.2707  0.2634
 3711TIP3   OH232623   0.500   4.584  11.364 -0.8296  0.4949 -1.1164
 3711TIP3    H132624   0.461   4.553  11.446  0.3479  1.1543 -0.2904
 3711TIP3    H232625   0.512   4.504  11.312 -1.0203 -0.0124 -0.3958
 3712TIP3   OH232626   3.273   1.848   6.025  0.3208 -0.2633  0.5839
 3712TIP3    H132627   3.323   1.850   5.943  0.4307 -1.6705  0.6011
 3712TIP3    H232628   3.299   1.766   6.067 -1.2525 -0.5336  1.0643
 3713TIP3   OH232629   4.380   0.233  14.738 -0.1148 -0.4222 -0.1531
 3713TIP3    H132630   4.351   0.286  14.664  1.5259 -0.1016 -0.5834
 3713TIP3    H232631   4.368   0.143  14.710 -0.5371 -0.2955 -0.3833
 3714TIP3   OH232632   2.156   4.023   5.107  0.0217 -0.0074 -0.2140
 3714TIP3    H132633   2.171   3.938   5.065 -0.2402 -0.7976  1.2526
 3714TIP3    H232634   2.157   4.003   5.201  0.5340  1.7128  0.1496
 3715TIP3   OH232635   2.511   5.535   3.144 -0.5449 -0.2111 -0.0820
 3715TIP3    H132636   2.558   5.552   3.225 -0.0416 -1.1063 -0.1744
 3715TIP3    H232637   2.489   5.621   3.110 -1.2233  0.1552  1.2716
 3716TIP3   OH232638   5.217   0.178  15.036 -0.1016 -0.1736 -0.6344
 3716TIP3    H132639   5.128   0.212  15.037 -0.1225 -0.2144 -1.0450
 3716TIP3    H232640   5.266   0.238  14.979  0.1591 -0.0865 -0.3206
 3717TIP3   OH232641   0.989   6.135  12.309 -0.2717 -0.3828 -0.3379
 3717TIP3    H132642   0.914   6.075  12.312 -1.8120  1.3970 -1.7067
 3717TIP3    H232643   0.952   6.220  12.331  0.8955  0.9074 -3.0854
 3718TIP3   OH232644   2.687   5.898  12.829 -0.3191 -0.5402 -0.6479
 3718TIP3    H132645   2.652   5.974  12.782 -1.3599 -0.9736 -0.5858
 3718TIP3    H232646   2.765   5.874  12.780 -0.1850  0.3479 -0.8832
 3719TIP3   OH232647   3.807   2.738   6.234 -0.3734 -0.3928 -0.4619
 3719TIP3    H132648   3.755   2.658   6.231 -1.0283  0.0103  0.0384
 3719TIP3    H232649   3.780   2.781   6.315  0.6295 -0.1037 -0.2755
 3720TIP3   OH232650   3.482   4.256  10.789  0.4107  0.3618  0.5654
 3720TIP3    H132651   3.495   4.222  10.700 -0.6687 -1.8310  1.2127
 3720TIP3    H232652   3.435   4.338  10.777 -1.2534 -0.7629 -0.8280
 3721TIP3   OH232653   5.242   4.151  11.592  0.0845 -0.1306 -0.2780
 3721TIP3    H132654   5.308   4.096  11.550 -0.6193 -0.9052 -0.3837
 3721TIP3    H232655   5.272   4.161  11.682  0.8057  0.2535 -0.5613
 3722TIP3   OH232656   4.096   3.631  16.803  0.5914 -0.1625 -0.1489
 3722TIP3    H132657   4.177   3.642  16.754  1.4186 -1.3703  0.9080
 3722TIP3    H232658   4.115   3.670  16.889 -0.1518  0.1005 -0.1004
 3723TIP3   OH232659   6.171   3.262  12.874  0.4261 -0.2927 -0.9023
 3723TIP3    H132660   6.241   3.265  12.809  0.8094  0.5132 -0.4554
 3723TIP3    H232661   6.216   3.246  12.957  0.0380 -0.1872 -0.6701
 3724TIP3   OH232662   3.549   0.106  14.268 -0.1708  0.4426  0.5357
 3724TIP3    H132663   3.457   0.131  14.256  0.2624  1.2242 -1.2751
 3724TIP3    H232664   3.584   0.171  14.328 -0.2173  1.5197 -0.5930
 3725TIP3   OH232665   0.830   6.018   2.279 -0.2790  0.4446  0.5461
 3725TIP3    H132666   0.854   5.974   2.197  0.6766  0.8648  0.5942
 3725TIP3    H232667   0.785   5.951   2.330  0.5972 -0.3017  0.3568
 3726TIP3   OH232668   0.427   0.045   5.067  0.3752 -0.0966  0.2780
 3726TIP3    H132669   0.468  -0.018   5.127  0.1238  1.1957  1.8160
 3726TIP3    H232670   0.373   0.101   5.123 -0.1116  0.9330 -1.1927
 3727TIP3   OH232671   0.757   5.373   3.444 -0.0749  0.0758 -0.1139
 3727TIP3    H132672   0.702   5.435   3.491  0.2054  0.7099 -0.6058
 3727TIP3    H232673   0.725   5.376   3.354 -0.3142 -0.7895 -0.0636
 3728TIP3   OH232674   3.488   3.748  11.795 -0.7460 -0.4674 -0.3953
 3728TIP3    H132675   3.471   3.741  11.701  0.5097  0.0254 -0.6723
 3728TIP3    H232676   3.492   3.657  11.825 -1.7239 -0.6147 -0.7095
 3729TIP3   OH232677   5.178   2.449  14.277  0.4109  0.0837  0.2761
 3729TIP3    H132678   5.136   2.534  14.288 -0.7931 -0.8211  3.3087
 3729TIP3    H232679   5.125   2.405  14.211 -0.6810  0.6575  0.7545
 3730TIP3   OH232680   3.789   4.006  11.905  0.1856  0.0869  0.2747
 3730TIP3    H132681   3.747   4.059  11.837 -2.6420 -0.5027  1.4713
 3730TIP3    H232682   3.852   3.952  11.857 -2.0196 -0.6233 -1.9836
 3731TIP3   OH232683   5.179   6.414  14.445 -0.3824  0.4494  0.1549
 3731TIP3    H132684   5.182   6.382  14.355 -0.0112 -0.5511  0.5108
 3731TIP3    H232685   5.177   6.334  14.499  0.1645  1.0277  1.0465
 3732TIP3   OH232686   1.166   0.245   4.594  0.7926 -0.2804 -0.6882
 3732TIP3    H132687   1.240   0.186   4.608 -0.5876 -1.7980  0.2944
 3732TIP3    H232688   1.099   0.191   4.553  0.2831  1.1455 -1.7786
 3733TIP3   OH232689   4.218   3.045  15.050  0.3081 -0.8168 -0.3808
 3733TIP3    H132690   4.213   3.085  15.137  0.1140 -0.5100 -0.5335
 3733TIP3    H232691   4.260   2.960  15.065  2.3241  0.1720 -0.3069
 3734TIP3   OH232692   1.470   4.513   1.287  0.0870 -0.2011 -0.4862
 3734TIP3    H132693   1.398   4.466   1.330  0.6826 -1.7361 -1.1185
 3734TIP3    H232694   1.446   4.513   1.194  0.8065 -0.5371 -0.6688
 3735TIP3   OH232695   0.199   1.626  12.852  0.4989  0.2335  0.1143
 3735TIP3    H132696   0.164   1.714  12.833 -0.6987 -0.1271  0.6100
 3735TIP3    H232697   0.181   1.613  12.945 -1.8719 -1.6415 -0.5420
 3736TIP3   OH232698   5.170   3.787   6.067 -0.3493  0.0607 -0.4046
 3736TIP3    H132699   5.241   3.836   6.108 -1.0918  1.2460 -0.4803
 3736TIP3    H232700   5.120   3.751   6.140 -0.9162  1.0780 -0.2643
 3737TIP3   OH232701   0.030   5.477   4.699  0.0536  0.0972  0.6804
 3737TIP3    H132702   0.003   5.505   4.787  1.1085  1.4874  0.5914
 3737TIP3    H232703  -0.051   5.477   4.648 -0.1210  2.3602  0.8854
 3738TIP3   OH232704   3.205   5.218   3.098 -0.2511 -0.0638  0.6083
 3738TIP3    H132705   3.247   5.176   3.022 -2.5700 -0.3034 -0.5790
 3738TIP3    H232706   3.195   5.148   3.161 -0.5665 -0.4169  0.1665
 3739TIP3   OH232707   0.716   5.559   5.005  0.1543 -0.0359  0.2922
 3739TIP3    H132708   0.770   5.480   5.011 -0.1131 -0.3914 -1.5494
 3739TIP3    H232709   0.643   5.533   4.950  0.4536  1.7021 -0.9526
 3740TIP3   OH232710   0.545   0.405  12.806 -0.4901  0.4109 -0.0430
 3740TIP3    H132711   0.511   0.347  12.739 -0.7697 -0.2449  0.6565
 3740TIP3    H232712   0.504   0.376  12.887 -0.5318  1.4988  0.3453
 3741TIP3   OH232713   1.370   2.600   5.644  0.2021 -0.0989  0.0925
 3741TIP3    H132714   1.439   2.651   5.600  1.4335 -1.8922 -0.1007
 3741TIP3    H232715   1.371   2.516   5.599 -0.2428 -1.0895  1.9255
 3742TIP3   OH232716   0.705   0.212  12.420 -0.3181  0.0153  0.2180
 3742TIP3    H132717   0.779   0.261  12.385  1.2921 -1.4902  1.3963
 3742TIP3    H232718   0.636   0.278  12.433  0.9068  1.4891 -0.6142
 3743TIP3   OH232719   0.588   5.662  14.899  0.0840 -0.2070 -0.2800
 3743TIP3    H132720   0.549   5.732  14.847 -0.2781  0.5849  1.0594
 3743TIP3    H232721   0.533   5.586  14.882 -0.4907  0.2450 -0.4321
 3744TIP3   OH232722   3.655   2.584   4.429  0.3033 -0.2777 -0.3068
 3744TIP3    H132723   3.670   2.662   4.483  0.8331 -1.5963  1.4762
 3744TIP3    H232724   3.709   2.599   4.351 -0.1216  1.4370 -0.2884
 3745TIP3   OH232725   1.751   3.735   3.190 -0.3777 -0.1266  0.6898
 3745TIP3    H132726   1.837   3.761   3.158 -0.1695 -0.0101  1.3424
 3745TIP3    H232727   1.701   3.817   3.195  0.0486  0.0584  2.0480
 3746TIP3   OH232728   6.105   5.005   1.104  0.0595  0.3771  0.1916
 3746TIP3    H132729   6.059   5.056   1.170 -0.6358  0.2053 -0.1626
 3746TIP3    H232730   6.195   4.998   1.138 -0.3879 -0.0664  1.3255
 3747TIP3   OH232731   0.655   2.077   4.160 -0.3042  0.0156  0.6197
 3747TIP3    H132732   0.624   1.993   4.195  0.4757 -1.7536 -2.7123
 3747TIP3    H232733   0.669   2.060   4.067  1.9413  3.2866  0.2948
 3748TIP3   OH232734   0.989   4.534   5.944 -0.3972 -0.6881  0.2095
 3748TIP3    H132735   1.057   4.514   5.880 -0.7701 -0.7028 -0.1836
 3748TIP3    H232736   1.036   4.540   6.027 -0.3281 -3.7849  0.4693
 3749TIP3   OH232737   2.049   0.408  13.709  0.2304 -0.0773  0.2033
 3749TIP3    H132738   2.051   0.367  13.795 -2.5373 -2.0011 -0.5825
 3749TIP3    H232739   1.978   0.472  13.715 -1.3853 -1.6823 -1.2302
 3750TIP3   OH232740   1.514   3.848  11.901  0.9737 -0.4239 -0.1492
 3750TIP3    H132741   1.573   3.897  11.958  0.6728 -0.0164 -0.1922
 3750TIP3    H232742   1.546   3.867  11.813 -0.3291  1.2357 -0.2791
 3751TIP3   OH232743   4.727   5.879  11.775  0.7235 -0.4141  0.2719
 3751TIP3    H132744   4.765   5.811  11.719  0.8807 -0.0330 -0.0805
 3751TIP3    H232745   4.801   5.918  11.821  0.8809  1.0053 -1.1577
 3752TIP3   OH232746   0.348   3.414   3.398 -0.2801 -0.3503  0.0281
 3752TIP3    H132747   0.366   3.506   3.421 -2.0869  0.0068  0.0906
 3752TIP3    H232748   0.340   3.370   3.482  1.4040 -0.7645  0.0008
 3753TIP3   OH232749   3.915   2.932   1.107  0.0886  0.1863  0.4118
 3753TIP3    H132750   3.946   2.845   1.131 -0.0012 -0.1273 -0.5926
 3753TIP3    H232751   3.875   2.921   1.021  0.4840  1.3126  0.0703
 3754TIP3   OH232752   6.086   4.165   1.492 -0.0370  0.2794 -0.5978
 3754TIP3    H132753   6.176   4.193   1.481  0.9698 -1.9339  1.3532
 3754TIP3    H232754   6.065   4.186   1.583 -0.7360 -1.1157 -0.4092
 3755TIP3   OH232755   2.354   3.435  17.262 -0.3353 -0.3147 -0.9766
 3755TIP3    H132756   2.285   3.387  17.309  0.2680 -0.7520 -0.5179
 3755TIP3    H232757   2.414   3.366  17.232  0.6484  0.1693 -0.1314
 3756TIP3   OH232758   3.485   3.761   4.583  0.3010  0.3277  0.5726
 3756TIP3    H132759   3.501   3.845   4.540  0.8116  0.1502  0.4049
 3756TIP3    H232760   3.567   3.713   4.572 -0.2194 -0.4612  0.0520
 3757TIP3   OH232761   2.894   3.019   4.679  0.2197  0.1891  0.0750
 3757TIP3    H132762   2.811   3.008   4.723  0.1539  1.7657  0.3725
 3757TIP3    H232763   2.901   2.943   4.621 -1.0682 -0.3295  0.5890
 3758TIP3   OH232764   5.322   4.068  13.327 -0.2631  0.1971 -0.8036
 3758TIP3    H132765   5.375   4.008  13.380 -0.2410  0.4899 -0.4850
 3758TIP3    H232766   5.241   4.021  13.310  0.7159 -0.8813 -2.6455
 3759TIP3   OH232767   6.472   3.387  16.999  0.0124  0.5965  0.2696
 3759TIP3    H132768   6.527   3.382  16.921  0.6891 -1.8076  0.8647
 3759TIP3    H232769   6.506   3.462  17.048 -0.4278  2.1420 -1.7053
 3760TIP3   OH232770   5.249   2.979  10.608  0.3747 -0.1151 -0.3310
 3760TIP3    H132771   5.237   2.902  10.553  1.4738  0.1385 -0.9537
 3760TIP3    H232772   5.303   3.038  10.555  1.3167  0.1990  0.9432
 3761TIP3   OH232773   3.830   0.069   0.602 -0.0721  0.1757 -0.0653
 3761TIP3    H132774   3.921   0.081   0.628 -0.5416 -0.5396  2.0512
 3761TIP3    H232775   3.792   0.157   0.606 -0.0890  0.1040  1.5687
 3762TIP3   OH232776   1.705   0.735  16.006 -0.0386 -0.4445  0.6207
 3762TIP3    H132777   1.781   0.688  16.040  0.6240 -0.0552 -0.2919
 3762TIP3    H232778   1.741   0.792  15.938 -1.2792 -0.9094 -0.4413
 3763TIP3   OH232779   5.616   0.940   0.406  0.2540 -0.9712  0.2311
 3763TIP3    H132780   5.695   0.926   0.354  0.7591  0.1814  0.6711
 3763TIP3    H232781   5.649   0.959   0.494 -0.3975  2.0099 -0.1219
 3764TIP3   OH232782   5.974   4.119   2.362  0.1465 -0.2348 -0.4504
 3764TIP3    H132783   6.046   4.096   2.420  1.8396  1.0268 -2.0035
 3764TIP3    H232784   6.013   4.178   2.297 -1.6813 -1.5725 -2.8519
 3765TIP3   OH232785   3.563   2.382   1.073 -0.3268 -0.1526 -0.0228
 3765TIP3    H132786   3.547   2.442   1.000 -0.7734 -0.6082 -0.3000
 3765TIP3    H232787   3.658   2.367   1.071 -0.3196 -0.0612 -0.4271
 3766TIP3   OH232788   5.047   4.904  16.108  0.4152 -0.5435 -0.0453
 3766TIP3    H132789   4.968   4.935  16.064 -0.3467 -1.0516  0.9542
 3766TIP3    H232790   5.087   4.982  16.145 -0.8857 -0.5812  1.4782
 3767TIP3   OH232791   4.928   6.574  14.908 -0.5472 -0.0345 -0.6364
 3767TIP3    H132792   5.022   6.584  14.920 -0.4036 -1.0610 -0.9139
 3767TIP3    H232793   4.889   6.625  14.979  0.2242 -1.1283  0.5720
 3768TIP3   OH232794   6.767   1.687   1.558 -0.4560  0.5203 -0.0916
 3768TIP3    H132795   6.827   1.614   1.545 -0.9941 -0.0048  0.2836
 3768TIP3    H232796   6.820   1.756   1.598 -0.1096  0.0540  0.2554
 3769TIP3   OH232797   5.820   4.844  16.565 -0.0506  0.7954  0.4759
 3769TIP3    H132798   5.911   4.824  16.542 -0.2371  2.3460 -1.7762
 3769TIP3    H232799   5.784   4.761  16.596  2.0671  0.1133  1.1804
 3770TIP3   OH232800   6.484   3.329   1.987 -0.1087  0.0526  0.0062
 3770TIP3    H132801   6.535   3.254   2.018 -0.9690  0.3555  2.2558
 3770TIP3    H232802   6.518   3.403   2.038  0.9114  1.2814 -2.3792
 3771TIP3   OH232803   5.236   0.129  11.249 -0.4398 -0.5385  0.1085
 3771TIP3    H132804   5.182   0.051  11.233  0.8791 -0.9895 -2.3244
 3771TIP3    H232805   5.239   0.136  11.345 -0.3273 -3.6580  0.3983
 3772TIP3   OH232806   2.040   5.853   3.697 -0.0852 -0.4344  0.4589
 3772TIP3    H132807   1.992   5.916   3.751 -1.1640 -0.2736 -0.6494
 3772TIP3    H232808   2.082   5.906   3.629  1.8786 -0.5558  1.5633
 3773TIP3   OH232809   1.286   2.339   3.549 -0.7044 -0.2967  0.5436
 3773TIP3    H132810   1.191   2.328   3.554 -0.8060  0.8067  1.1585
 3773TIP3    H232811   1.316   2.321   3.639 -0.5014  0.9183  0.7162
 3774TIP3   OH232812   6.644   0.526   1.397 -0.5240  0.4088 -0.4295
 3774TIP3    H132813   6.724   0.574   1.375 -0.7526  1.2311  0.5090
 3774TIP3    H232814   6.669   0.434   1.389  0.0821  0.6542 -1.6655
 3775TIP3   OH232815   1.945   3.229  14.682 -0.6970  0.1552 -0.1031
 3775TIP3    H132816   1.981   3.288  14.616 -0.7704 -1.3397 -1.5174
 3775TIP3    H232817   2.022   3.190  14.724 -0.6603  0.3720  0.0360
 3776TIP3   OH232818   1.535   3.884   3.808 -0.2340  0.0631  0.1709
 3776TIP3    H132819   1.509   3.911   3.720  1.5638 -0.2775 -0.4788
 3776TIP3    H232820   1.543   3.788   3.803  2.3663  0.2684  0.0068
 3777TIP3   OH232821   0.146   3.744   5.307  0.1818  0.2353  0.3743
 3777TIP3    H132822   0.081   3.682   5.275 -0.3409  1.1655 -0.3603
 3777TIP3    H232823   0.106   3.782   5.386  0.6331 -0.5793  1.0052
 3778TIP3   OH232824   3.278   2.374  16.041 -0.4528  0.0934 -0.2775
 3778TIP3    H132825   3.269   2.294  16.093  0.6461 -0.4269 -0.8615
 3778TIP3    H232826   3.359   2.361  15.991 -0.5242  1.3635 -0.7450
 3779TIP3   OH232827   2.975   2.430   6.700  0.7100 -0.6351 -0.1958
 3779TIP3    H132828   3.023   2.378   6.636 -0.8371  0.1882 -2.0793
 3779TIP3    H232829   3.015   2.517   6.695  0.6730 -0.6044  0.0530
 3780TIP3   OH232830   0.229   2.483  13.821  0.4497  0.5361  0.4232
 3780TIP3    H132831   0.221   2.501  13.915 -2.1856  0.4595  0.2455
 3780TIP3    H232832   0.201   2.392  13.812 -0.5918  0.9430 -0.5884
 3781TIP3   OH232833   4.906   5.393  13.457 -0.4354 -0.4019 -0.2204
 3781TIP3    H132834   4.895   5.461  13.523  1.2986 -0.1890 -0.1304
 3781TIP3    H232835   4.926   5.441  13.376  1.1637 -0.8131 -0.0727
 3782TIP3   OH232836   5.004   4.253   4.820  0.1324 -0.4728 -0.0030
 3782TIP3    H132837   5.024   4.286   4.732  0.6163  1.2533  0.7212
 3782TIP3    H232838   4.990   4.332   4.872 -1.1647 -1.4966  1.2457
 3783TIP3   OH232839   5.762   6.660   2.595  0.7599 -0.4341  0.4778
 3783TIP3    H132840   5.772   6.742   2.644 -1.3091  0.4112 -0.4526
 3783TIP3    H232841   5.761   6.687   2.503 -1.0118 -1.3526  0.1938
 3784TIP3   OH232842   3.704   3.857   1.325  0.0600  0.3718 -0.1759
 3784TIP3    H132843   3.673   3.904   1.247  0.0607  0.9109  0.1495
 3784TIP3    H232844   3.726   3.769   1.292 -1.9509 -0.0796 -0.3827
 3785TIP3   OH232845   0.436   3.199   2.338  0.1370  0.2811  0.2220
 3785TIP3    H132846   0.435   3.270   2.402 -0.7291 -1.1269  1.7982
 3785TIP3    H232847   0.385   3.233   2.264  0.6374  1.6853  0.4872
 3786TIP3   OH232848   5.554   6.726   2.093  0.0714  0.2722  0.1312
 3786TIP3    H132849   5.519   6.809   2.126 -0.0705  0.5776 -0.7797
 3786TIP3    H232850   5.486   6.661   2.113  0.1768  0.3685  0.8304
 3787TIP3   OH232851   5.694   2.369   1.935  0.3785  0.2543  0.0040
 3787TIP3    H132852   5.690   2.458   1.968 -0.0069  1.0173 -2.0124
 3787TIP3    H232853   5.614   2.327   1.968  2.1206 -0.3801  3.6746
 3788TIP3   OH232854   6.308   4.124  12.607 -0.2375  0.0762 -0.1909
 3788TIP3    H132855   6.366   4.110  12.683 -0.1380  0.7686 -0.1330
 3788TIP3    H232856   6.272   4.038  12.588 -0.2339 -0.1106  0.6289
 3789TIP3   OH232857   0.561   0.475  11.493 -0.2143  0.0663 -0.0707
 3789TIP3    H132858   0.647   0.516  11.496 -0.4776  0.5255  1.1790
 3789TIP3    H232859   0.575   0.396  11.440  1.5515 -1.1901  2.1793
 3790TIP3   OH232860   4.738   5.971  13.603  0.0401 -0.4646 -0.3243
 3790TIP3    H132861   4.821   6.017  13.598  0.4571 -1.3557 -1.7680
 3790TIP3    H232862   4.750   5.892  13.551 -1.1071 -1.5440  0.9953
 3791TIP3   OH232863   2.038   3.070   5.674  0.4537 -0.0049 -0.6084
 3791TIP3    H132864   2.099   3.068   5.600 -0.7857 -0.6872 -1.6299
 3791TIP3    H232865   2.069   3.143   5.729  1.4658  0.4114 -1.7119
 3792TIP3   OH232866   4.826   0.341   3.787 -0.3949  0.6760 -0.1654
 3792TIP3    H132867   4.917   0.327   3.812 -0.2665 -0.3520 -1.1948
 3792TIP3    H232868   4.820   0.435   3.770  0.8726  0.4844 -1.7141
 3793TIP3   OH232869   6.108   6.702  16.965  0.3133  0.0884  0.1953
 3793TIP3    H132870   6.148   6.774  16.917  0.7365 -1.2543 -1.5046
 3793TIP3    H232871   6.087   6.637  16.898  1.2270 -1.9781  1.8656
 3794TIP3   OH232872   3.852   6.488  15.377  0.7390 -0.5132 -0.1191
 3794TIP3    H132873   3.923   6.427  15.398 -0.2316 -2.5790 -2.5869
 3794TIP3    H232874   3.847   6.488  15.281 -1.7076  0.6247 -0.0446
 3795TIP3   OH232875   5.399   4.451  15.589  0.6303  0.6285 -0.5872
 3795TIP3    H132876   5.352   4.393  15.530 -1.3234  0.8778  0.6553
 3795TIP3    H232877   5.479   4.403  15.611 -1.7213 -2.4478  1.7691
 3796TIP3   OH232878   2.886   1.261   0.936  0.2193  0.5932  0.1783
 3796TIP3    H132879   2.820   1.326   0.958 -0.0305  0.0040  1.2016
 3796TIP3    H232880   2.965   1.292   0.979  1.0582  2.1295 -2.3132
 3797TIP3   OH232881   6.659   4.044   4.578 -0.1809 -0.5109 -0.0445
 3797TIP3    H132882   6.691   4.111   4.517 -1.3704 -0.2750 -0.4265
 3797TIP3    H232883   6.648   3.966   4.524  0.6886 -0.8690  0.2908
 3798TIP3   OH232884   4.956   1.727  15.324 -0.0881 -0.3180 -0.2614
 3798TIP3    H132885   4.941   1.806  15.272  0.4460 -0.2318 -0.2837
 3798TIP3    H232886   4.939   1.754  15.414  1.8707  0.2948 -0.0649
 3799TIP3   OH232887   6.231   1.922  15.230 -0.4908 -0.1193 -0.0168
 3799TIP3    H132888   6.155   1.869  15.256 -1.8972  1.4805 -0.7366
 3799TIP3    H232889   6.296   1.858  15.202 -0.3941 -1.7051  3.5184
 3800TIP3   OH232890   2.105   2.238   4.062 -0.9033  0.4082  0.3258
 3800TIP3    H132891   2.180   2.270   4.112 -0.1801  0.5393 -0.8227
 3800TIP3    H232892   2.106   2.143   4.074  0.0405  0.3107 -0.4942
 3801TIP3   OH232893   3.200   3.977  11.273  0.6485  0.0939 -0.1363
 3801TIP3    H132894   3.186   4.009  11.362  0.2635 -0.7619  0.1159
 3801TIP3    H232895   3.145   4.034  11.219  0.5533  0.3423  0.2149
 3802TIP3   OH232896   4.016   2.602   5.768  0.5283  0.1313  0.2275
 3802TIP3    H132897   3.993   2.648   5.849  1.2035  1.5153 -0.3463
 3802TIP3    H232898   4.080   2.659   5.726  0.4043 -0.7236 -1.1458
 3803TIP3   OH232899   6.697   4.895   5.243 -0.3637  0.1085  0.5332
 3803TIP3    H132900   6.717   4.928   5.155 -1.4578 -0.5776  0.0235
 3803TIP3    H232901   6.725   4.803   5.241  0.3733  0.3059  1.1751
 3804TIP3   OH232902   6.049   3.453  10.937  0.0487 -0.7499 -0.4686
 3804TIP3    H132903   6.100   3.533  10.922 -0.2241 -0.6059 -0.6160
 3804TIP3    H232904   6.003   3.469  11.019 -2.5749  0.5552 -2.1405
 3805TIP3   OH232905   2.665   2.130   1.266  0.0980 -0.2200  0.3652
 3805TIP3    H132906   2.574   2.161   1.264  0.4119  0.6769 -0.2278
 3805TIP3    H232907   2.673   2.073   1.189 -0.3664 -1.4874  1.2354
 3806TIP3   OH232908   6.542   5.798   2.764  0.0412 -0.3236  0.6306
 3806TIP3    H132909   6.555   5.837   2.678 -1.0441  2.6162  1.7263
 3806TIP3    H232910   6.468   5.739   2.753  0.1308 -0.2268 -0.5343
 3807TIP3   OH232911   1.871   3.321   6.500  0.2154  0.1905  0.2794
 3807TIP3    H132912   1.949   3.322   6.443  0.7224 -1.3367  0.9179
 3807TIP3    H232913   1.869   3.408   6.539  0.5753  0.8412 -1.1245
 3808TIP3   OH232914   6.479   3.770  10.894 -0.6532 -0.2096  0.1052
 3808TIP3    H132915   6.446   3.814  10.815  2.7448  0.9524 -0.7700
 3808TIP3    H232916   6.541   3.705  10.860  1.7128  1.0793  1.8177
 3809TIP3   OH232917   6.753   2.425   5.532 -0.9182  0.0211 -0.5668
 3809TIP3    H132918   6.684   2.468   5.581  1.2070  1.4205  1.3104
 3809TIP3    H232919   6.751   2.334   5.562 -2.0865  0.0028 -0.7061
 3810TIP3   OH232920   6.647   6.459   0.852 -1.0694  0.1320 -0.2725
 3810TIP3    H132921   6.630   6.513   0.929  2.9860  2.7687 -1.0590
 3810TIP3    H232922   6.716   6.399   0.880 -0.1663  0.5469 -1.5980
 3811TIP3   OH232923   6.221   3.354  14.330  0.0123 -0.4078  0.1922
 3811TIP3    H132924   6.217   3.322  14.240 -1.4202 -0.0832  0.1410
 3811TIP3    H232925   6.183   3.442  14.327  0.7376 -0.0546  0.9621
 3812TIP3   OH232926   6.301   3.474  11.223  0.1171  0.4552 -0.0179
 3812TIP3    H132927   6.258   3.514  11.148  0.0379 -1.2799 -0.9213
 3812TIP3    H232928   6.382   3.524  11.233  0.1025  0.7447 -1.2251
 3813TIP3   OH232929   4.584   6.209   5.633 -0.8810 -0.1067 -0.1515
 3813TIP3    H132930   4.626   6.262   5.700  0.5639  0.6485 -1.6071
 3813TIP3    H232931   4.492   6.234   5.636 -0.8771 -0.2335  1.6490
 3814TIP3   OH232932   6.092   3.946   2.891 -0.1931 -0.3549  0.0150
 3814TIP3    H132933   6.120   3.886   2.961 -0.1980 -0.5122 -0.1161
 3814TIP3    H232934   6.085   3.890   2.814 -1.2972 -0.4017  0.1426
 3815TIP3   OH232935   6.691   3.037   2.704 -0.0839  0.1121  0.4927
 3815TIP3    H132936   6.643   2.971   2.654  1.0500 -1.4169  1.3796
 3815TIP3    H232937   6.622   3.091   2.744 -1.0385 -0.8535  0.1876
 3816TIP3   OH232938   3.957   2.444  11.626 -0.1860  0.2520  0.0635
 3816TIP3    H132939   3.918   2.531  11.613  1.8250  1.3053  0.7331
 3816TIP3    H232940   3.906   2.386  11.570 -0.4324  2.2011 -1.8124
 3817TIP3   OH232941   4.408   3.832   2.126 -0.1133  0.1749 -0.5399
 3817TIP3    H132942   4.397   3.927   2.134  0.4463  0.4140 -2.3789
 3817TIP3    H232943   4.323   3.800   2.097 -0.0501  0.2294 -0.7870
 3818TIP3   OH232944   3.960   0.042  12.334 -0.1930 -0.0180  0.6769
 3818TIP3    H132945   3.973   0.120  12.280  1.2833  0.0147  1.0700
 3818TIP3    H232946   3.887  -0.003  12.292  1.2632 -0.2730 -1.6784
 3819TIP3   OH232947   3.488   5.024   1.955 -0.3057 -0.0581 -0.0094
 3819TIP3    H132948   3.489   4.936   1.993 -0.6639  0.1016  0.3743
 3819TIP3    H232949   3.561   5.024   1.893  0.7220 -0.1068  1.1652
 3820TIP3   OH232950   2.613   5.195   0.414  0.0698  0.0663  0.1764
 3820TIP3    H132951   2.636   5.279   0.376 -2.9842  0.5349 -0.7668
 3820TIP3    H232952   2.591   5.214   0.505  2.1762 -0.2080  0.7685
 3821TIP3   OH232953   6.027   3.391  15.151  0.3675 -0.0946 -0.1114
 3821TIP3    H132954   6.116   3.357  15.142  0.5758  0.7730 -1.5683
 3821TIP3    H232955   5.996   3.357  15.234  2.4145  0.3792  0.8728
 3822TIP3   OH232956   5.554   4.502  14.336 -0.2123 -0.1328 -0.2629
 3822TIP3    H132957   5.568   4.548  14.418  1.4054  0.2459 -0.7420
 3822TIP3    H232958   5.507   4.566  14.281 -0.4974 -0.0742  0.0457
 3823TIP3   OH232959   0.519   6.722   0.574  0.3396 -0.2542  0.4807
 3823TIP3    H132960   0.457   6.787   0.540 -0.0934 -0.3776  1.0187
 3823TIP3    H232961   0.596   6.731   0.518 -0.4243 -0.5989 -0.6450
 3824TIP3   OH232962   0.905   4.570  10.854 -0.5785 -0.0335 -0.3348
 3824TIP3    H132963   0.819   4.587  10.894 -0.4619  0.4760 -0.2938
 3824TIP3    H232964   0.939   4.657  10.833  0.4460 -0.1596  0.7270
 3825TIP3   OH232965   6.534   3.630  16.274  0.0874  0.3309 -0.3742
 3825TIP3    H132966   6.477   3.669  16.341  1.5489 -0.6055  1.4783
 3825TIP3    H232967   6.609   3.689  16.270 -0.9498  1.5499 -2.7933
 3826TIP3   OH232968   4.892   0.710  17.031 -0.1305 -0.6937  0.0589
 3826TIP3    H132969   4.877   0.656  16.953  1.7976 -3.3216  1.4397
 3826TIP3    H232970   4.812   0.699  17.083 -1.0110  0.2692 -1.0699
 3827TIP3   OH232971   3.146   6.393   3.373 -0.5624 -0.0130  0.0160
 3827TIP3    H132972   3.216   6.343   3.333 -2.4274 -2.0820 -0.7735
 3827TIP3    H232973   3.164   6.484   3.348  1.1390 -0.6571 -1.1932
 3828TIP3   OH232974   5.254   5.693  11.062 -0.6092 -0.4902  0.3130
 3828TIP3    H132975   5.211   5.771  11.028 -0.2174 -0.7773 -0.8911
 3828TIP3    H232976   5.187   5.625  11.058 -0.5904 -0.5022  0.1661
 3829TIP3   OH232977   3.613   6.694  16.257 -0.3907  0.7406  0.0821
 3829TIP3    H132978   3.660   6.619  16.219  0.5789  1.2320  0.2931
 3829TIP3    H232979   3.540   6.654  16.304 -0.0010 -0.0727  0.0183
 3830TIP3   OH232980   5.489   5.185   0.043  0.0459  0.0659  0.8108
 3830TIP3    H132981   5.467   5.192  -0.050  0.2940  1.9743  0.8683
 3830TIP3    H232982   5.426   5.122   0.077  0.3124 -1.0924 -0.7488
 3831TIP3   OH232983   5.586   6.452  12.028 -0.3625 -0.3265 -0.0844
 3831TIP3    H132984   5.564   6.421  12.116 -2.3895 -2.8129 -1.3919
 3831TIP3    H232985   5.654   6.392  11.997 -0.2496  0.0233 -0.5246
 3832TIP3   OH232986   2.849   5.054   0.893 -0.2859  0.2162  0.4707
 3832TIP3    H132987   2.886   4.966   0.901  0.2167  0.2217 -1.5755
 3832TIP3    H232988   2.848   5.087   0.983 -0.4309 -1.8389  1.2646
 3833TIP3   OH232989   6.609   6.514  13.563 -0.0694 -0.1014 -0.3666
 3833TIP3    H132990   6.630   6.605  13.580  1.0025 -0.5835  0.9610
 3833TIP3    H232991   6.645   6.497  13.476  3.0767 -0.2644  0.9006
 3834TIP3   OH232992   2.398   4.901   2.721 -0.4731 -0.1016  0.1484
 3834TIP3    H132993   2.334   4.832   2.705  1.6150 -1.7776 -1.2415
 3834TIP3    H232994   2.439   4.916   2.636  2.4966 -0.6423  1.4319
 3835TIP3   OH232995   5.008   4.448  17.159 -0.1292 -0.0091 -0.1775
 3835TIP3    H132996   4.968   4.531  17.183 -1.6493 -0.9464  0.6040
 3835TIP3    H232997   4.991   4.439  17.065 -0.5369  0.2581 -0.1279
 3836TIP3   OH232998   2.901   0.575   1.574  0.0887  0.3038 -0.3971
 3836TIP3    H132999   2.854   0.652   1.607 -1.1926 -0.9785  0.8495
 3836TIP3    H233000   2.979   0.611   1.532 -1.0057  2.3516 -0.7583
 3837TIP3   OH233001   3.214   2.145  14.500 -0.3901 -0.3753 -0.2613
 3837TIP3    H133002   3.153   2.188  14.560  0.4638 -0.5088  0.6990
 3837TIP3    H233003   3.260   2.081  14.553  0.7078 -0.1809 -0.9492
 3838TIP3   OH233004   5.833   4.690  11.635  0.2850 -0.0973  0.0321
 3838TIP3    H133005   5.872   4.644  11.561 -0.2131 -1.4633  0.6014
 3838TIP3    H233006   5.754   4.730  11.599  1.4311  1.4556 -0.7795
 3839TIP3   OH233007   4.682   3.250   0.604  0.1810 -0.4641  0.0196
 3839TIP3    H133008   4.654   3.180   0.545 -0.4635 -0.5683  0.4491
 3839TIP3    H233009   4.774   3.264   0.582  0.0291 -0.7195 -0.7970
 3840TIP3   OH233010   4.398   3.252   3.530 -0.0709  0.6482  0.1241
 3840TIP3    H133011   4.356   3.213   3.606  0.0089  0.3626  0.0237
 3840TIP3    H233012   4.446   3.180   3.490  0.2171  0.8901  0.0326
 3841TIP3   OH233013   4.298   0.126   1.909 -0.5549 -0.6980 -0.0391
 3841TIP3    H133014   4.376   0.072   1.898  1.3036  2.1516 -1.2950
 3841TIP3    H233015   4.257   0.093   1.989  1.1613 -3.1104 -0.0812
 3842TIP3   OH233016   4.771   4.693   1.362 -0.2600  0.1990  0.0278
 3842TIP3    H133017   4.797   4.651   1.280  1.5015  3.0079 -0.9115
 3842TIP3    H233018   4.843   4.674   1.422  0.0527  0.9686 -0.0962
 3843TIP3   OH233019   6.764   0.621  15.467  0.2057 -0.8221 -0.4598
 3843TIP3    H133020   6.839   0.641  15.524  0.4165  1.3279 -1.4501
 3843TIP3    H233021   6.731   0.538  15.500  0.6217  0.1307  2.5097
 3844TIP3   OH233022   1.883   5.817   2.287 -0.3594  0.3872  0.1785
 3844TIP3    H133023   1.867   5.790   2.378 -0.9318 -0.7342 -0.2338
 3844TIP3    H233024   1.869   5.911   2.287 -1.9633  0.1801  0.9362
 3845TIP3   OH233025   5.544   5.701   5.642 -0.2144 -0.0016 -0.0935
 3845TIP3    H133026   5.488   5.751   5.701 -0.2197  0.8829 -0.8398
 3845TIP3    H233027   5.562   5.760   5.569  2.3558  0.0169  0.5027
 3846TIP3   OH233028   4.775   3.740  17.192 -0.0373  0.3004  0.3457
 3846TIP3    H133029   4.688   3.781  17.193  0.2982  1.0270 -0.0543
 3846TIP3    H233030   4.798   3.735  17.100  1.2323  2.0271  0.5463
 3847TIP3   OH233031   6.316   2.611  11.894 -0.6357  0.0803  0.3536
 3847TIP3    H133032   6.336   2.566  11.976  1.1995  0.3980  0.0924
 3847TIP3    H233033   6.268   2.547  11.842  1.1875 -1.2872  0.3276
 3848TIP3   OH233034   2.812   6.337   1.150  0.7318 -0.2133  0.4976
 3848TIP3    H133035   2.868   6.345   1.073  1.8603 -0.0537  1.3087
 3848TIP3    H233036   2.849   6.399   1.213 -2.0774  1.9779  0.0948
 3849TIP3   OH233037   0.882   4.531   4.452 -0.4047 -0.1899  0.4934
 3849TIP3    H133038   0.900   4.623   4.431 -0.6163 -0.4927 -1.0993
 3849TIP3    H233039   0.959   4.484   4.420 -1.3027 -0.8097 -0.8121
 3850TIP3   OH233040   3.286   1.190  12.787  0.6157  0.1208  0.1588
 3850TIP3    H133041   3.301   1.206  12.880 -0.2102  0.5037  0.2311
 3850TIP3    H233042   3.261   1.275  12.751 -0.4828 -0.3119 -0.1229
 3851TIP3   OH233043   3.855   1.377  10.923 -0.3885  0.6468 -0.4975
 3851TIP3    H133044   3.877   1.461  10.884  0.7172  0.0978 -1.0754
 3851TIP3    H233045   3.935   1.348  10.966 -1.0180  0.3031  0.4570
 3852TIP3   OH233046   4.759   4.582  15.946 -0.0410 -0.5022 -0.3002
 3852TIP3    H133047   4.847   4.566  15.912  0.6926  0.7592  0.9832
 3852TIP3    H233048   4.771   4.595  16.040 -1.4564  0.8311 -0.2888
 3853TIP3   OH233049   6.280   6.447  11.616  0.0694 -0.6067  0.0384
 3853TIP3    H133050   6.257   6.538  11.633  0.9766 -0.4760  0.5730
 3853TIP3    H233051   6.198   6.399  11.629 -0.5962  0.2099 -0.9743
 3854TIP3   OH233052   5.969   2.307  11.658 -0.0246  0.2638  0.2346
 3854TIP3    H133053   5.940   2.396  11.678 -0.5734  0.2460 -0.4851
 3854TIP3    H233054   5.964   2.300  11.563  1.9502  0.1176  0.1302
 3855TIP3   OH233055   0.149   6.108   3.440 -0.1283  0.0895 -0.5788
 3855TIP3    H133056   0.156   6.192   3.395 -0.4123  0.7502  0.5796
 3855TIP3    H233057   0.070   6.115   3.493  0.1656 -0.6771 -0.0150
 3856TIP3   OH233058   0.692   1.441   3.928 -0.1169  0.3735  0.5251
 3856TIP3    H133059   0.774   1.480   3.900 -1.3048  1.0222 -2.2457
 3856TIP3    H233060   0.679   1.474   4.017  1.9628  1.2986  0.5127
 3857TIP3   OH233061   1.149   5.671  14.405 -0.8745 -0.0458  0.1995
 3857TIP3    H133062   1.097   5.618  14.466  0.3692 -0.2429  1.1139
 3857TIP3    H233063   1.109   5.655  14.319 -2.7590  0.3869  0.9844
 3858TIP3   OH233064   2.615   0.185   5.139  0.1442  0.1070  0.0202
 3858TIP3    H133065   2.636   0.163   5.048 -0.7424 -3.8841  0.6987
 3858TIP3    H233066   2.669   0.125   5.191 -1.2607  0.5949  2.0680
 3859TIP3   OH233067   5.511   6.661  16.699 -0.4213 -0.3952  0.1620
 3859TIP3    H133068   5.578   6.676  16.765  1.6921 -4.7182 -0.8219
 3859TIP3    H233069   5.542   6.707  16.621  0.0081 -0.0724  0.5269
 3860TIP3   OH233070   3.256   6.615   1.487 -0.4615  0.4260  0.0318
 3860TIP3    H133071   3.351   6.611   1.496 -0.4205 -0.1686 -0.6893
 3860TIP3    H233072   3.236   6.709   1.483  0.2368  0.5234 -1.4094
 3861TIP3   OH233073   3.101   5.378  15.802 -0.4220  0.5402  0.7100
 3861TIP3    H133074   3.056   5.448  15.849 -1.5719 -0.4107  1.0581
 3861TIP3    H233075   3.194   5.395  15.816 -0.7266  0.9916  2.2855
 3862TIP3   OH233076   2.272   3.181  13.756 -0.5708  0.2379  0.1712
 3862TIP3    H133077   2.310   3.130  13.684 -1.8436 -0.6681  0.1155
 3862TIP3    H233078   2.278   3.123  13.832  0.3727  1.0289  0.7034
 3863TIP3   OH233079   4.686   0.936   3.063 -0.1612 -0.2603  0.0914
 3863TIP3    H133080   4.752   0.871   3.038  0.8173  0.7681 -0.0380
 3863TIP3    H233081   4.626   0.938   2.988  1.0700  0.6057 -0.9034
 3864TIP3   OH233082   4.279   5.295   1.654  0.1787  0.0705  0.6549
 3864TIP3    H133083   4.207   5.332   1.602  1.4941  0.6619 -0.7914
 3864TIP3    H233084   4.326   5.372   1.687  3.1619 -0.2154 -2.6887
 3865TIP3   OH233085   6.325   1.007  16.427 -0.8139 -0.5306 -0.0369
 3865TIP3    H133086   6.404   0.994  16.375  1.2085  2.0263  2.2303
 3865TIP3    H233087   6.273   1.070  16.377  0.6560  1.1588  0.5049
 3866TIP3   OH233088   2.210   3.451  13.744 -0.1524 -0.7826  0.2430
 3866TIP3    H133089   2.224   3.358  13.728 -0.1357 -0.8577  0.7074
 3866TIP3    H233090   2.248   3.467  13.830 -0.1073 -0.3367  0.1406
 3867TIP3   OH233091   0.459   3.606  13.936 -0.1880  0.1433 -0.2942
 3867TIP3    H133092   0.414   3.521  13.942 -2.4070  1.2524 -0.4713
 3867TIP3    H233093   0.390   3.670  13.953  1.6626  1.8932  0.8462
 3868TIP3   OH233094   4.703   0.907   0.634  0.0315  0.8240 -0.1491
 3868TIP3    H133095   4.745   0.955   0.562  1.3214 -0.6666 -0.4054
 3868TIP3    H233096   4.772   0.851   0.669 -1.4613 -0.9271  0.0699
 3869TIP3   OH233097   5.857   6.099   0.766 -0.2185  0.3830  0.1948
 3869TIP3    H133098   5.933   6.138   0.809  0.0243  0.4123 -0.2536
 3869TIP3    H233099   5.783   6.149   0.799  0.1673  1.8093 -1.0130
 3870TIP3   OH233100   6.087   4.955   3.218 -0.1879 -0.5296 -0.2609
 3870TIP3    H133101   6.094   4.861   3.237  1.1481  0.0692  2.4732
 3870TIP3    H233102   6.054   4.993   3.299  2.0958  1.7255 -0.3380
 3871TIP3   OH233103   2.120   3.674  12.141  0.2745  0.0738  0.2199
 3871TIP3    H133104   2.063   3.598  12.146  1.6650 -1.0159 -0.0078
 3871TIP3    H233105   2.196   3.650  12.195  0.1927  1.7711  1.1114
 3872TIP3   OH233106   4.952   0.839  16.117 -0.1907 -0.5356 -0.0253
 3872TIP3    H133107   4.996   0.828  16.032 -2.0534 -0.6183 -1.0061
 3872TIP3    H233108   4.894   0.763  16.123  1.2665 -1.5147  2.1833
 3873TIP3   OH233109   0.963   2.175  11.658 -0.2609 -0.5028  0.0334
 3873TIP3    H133110   0.967   2.269  11.679  0.3114 -0.7547  1.0996
 3873TIP3    H233111   0.964   2.172  11.562 -1.4464  0.6308 -0.0304
 3874TIP3   OH233112   0.279   5.461   1.081 -0.2607 -0.0088 -0.2090
 3874TIP3    H133113   0.331   5.530   1.122 -0.0158 -1.5756  2.1979
 3874TIP3    H233114   0.253   5.404   1.153 -1.9618 -1.4641 -1.9169
 3875TIP3   OH233115   2.788   5.850  14.348 -0.1881  0.0477 -0.0421
 3875TIP3    H133116   2.882   5.865  14.337  0.0133  0.3913  1.9498
 3875TIP3    H233117   2.776   5.758  14.325  0.8307 -0.2929  0.7086
 3876TIP3   OH233118   4.990   5.127  14.642  0.5552  0.1515  0.1044
 3876TIP3    H133119   4.964   5.038  14.619 -2.3191  0.8885  0.2948
 3876TIP3    H233120   5.043   5.156  14.568 -0.7362 -0.8069 -1.2381
 3877TIP3   OH233121   2.435   2.881   4.379 -0.4014  0.0518 -0.1842
 3877TIP3    H133122   2.372   2.870   4.307 -0.7145  2.2398 -0.2784
 3877TIP3    H233123   2.501   2.813   4.363 -1.4801 -0.7356 -1.4390
 3878TIP3   OH233124   3.809   0.729   2.691 -0.2296  0.1607 -0.2755
 3878TIP3    H133125   3.901   0.751   2.700  0.6820 -2.5587 -2.0291
 3878TIP3    H233126   3.770   0.748   2.776  2.0624  0.7746  0.6594
 3879TIP3   OH233127   4.103   3.742   6.647  0.2674 -0.0007 -0.2818
 3879TIP3    H133128   4.109   3.798   6.569 -1.1835 -1.0889 -1.2027
 3879TIP3    H233129   4.010   3.740   6.668  0.3423 -1.8250 -0.0739
 3880TIP3   OH233130   1.232   3.764  11.775  0.0701 -0.5709  0.0437
 3880TIP3    H133131   1.324   3.763  11.803  0.3082 -2.2038 -0.6940
 3880TIP3    H233132   1.218   3.852  11.741  1.4625 -0.3935 -0.1130
 3881TIP3   OH233133   4.390   6.480  15.250  0.0599  0.2657 -0.1147
 3881TIP3    H133134   4.372   6.551  15.312 -1.9044  0.0396 -0.4114
 3881TIP3    H233135   4.320   6.486  15.185  1.6657  0.0119 -1.9068
 3882TIP3   OH233136   6.739   5.174  15.431 -0.5212 -0.6552  0.1585
 3882TIP3    H133137   6.667   5.226  15.466 -0.8205 -2.1748  1.9057
 3882TIP3    H233138   6.818   5.223  15.457 -0.8449 -0.3754  0.6330
 3883TIP3   OH233139   0.026   5.623   3.997 -0.6599  0.1943 -0.3432
 3883TIP3    H133140   0.031   5.611   4.092 -1.6077  0.7139 -0.2267
 3883TIP3    H233141  -0.045   5.686   3.984 -0.1740  0.5454 -1.3650
 3884TIP3   OH233142   4.580   5.946  11.996  0.0306 -0.2871  0.2499
 3884TIP3    H133143   4.602   5.932  11.904 -1.2467  1.0507 -0.2980
 3884TIP3    H233144   4.584   5.859  12.036  0.4539 -0.8959 -1.1013
 3885TIP3   OH233145   4.168   0.998   2.421  0.1038 -0.0705  0.1015
 3885TIP3    H133146   4.240   0.952   2.378 -0.4619  0.8573 -1.8958
 3885TIP3    H233147   4.091   0.943   2.403 -0.3314  0.9142 -1.0646
 3886TIP3   OH233148   1.112   2.506   1.689  0.0542 -0.1362  0.0139
 3886TIP3    H133149   1.122   2.454   1.769  1.9297  1.0697  0.5947
 3886TIP3    H233150   1.201   2.513   1.654 -0.0459  3.1603  0.2660
 3887TIP3   OH233151   5.879   0.023  15.200  0.1621  0.2242  0.2402
 3887TIP3    H133152   5.810   0.066  15.149  0.3633 -0.1758 -0.3823
 3887TIP3    H233153   5.890  -0.063  15.158  1.2515  0.4077  0.1355
 3888TIP3   OH233154   4.516   4.761  14.063 -0.5679 -0.6769 -0.3222
 3888TIP3    H133155   4.452   4.705  14.019  0.0097 -1.4464 -0.2036
 3888TIP3    H233156   4.557   4.811  13.993 -0.9346 -0.5654 -0.4577
 3889TIP3   OH233157   2.472   2.554  12.281 -0.3344  0.3242  0.0008
 3889TIP3    H133158   2.490   2.531  12.190 -0.8916  0.9542 -0.2668
 3889TIP3    H233159   2.403   2.492  12.307  0.0010 -0.0219  0.0740
 3890TIP3   OH233160   4.282   3.239  15.699 -0.2896 -0.4082  0.8100
 3890TIP3    H133161   4.209   3.295  15.726  0.4899  0.2400  1.5977
 3890TIP3    H233162   4.245   3.182  15.632 -1.3969  0.2468  0.8553
 3891TIP3   OH233163   0.206   4.228  12.485  0.1224 -0.3199 -0.6339
 3891TIP3    H133164   0.279   4.289  12.473 -0.1552 -0.0386 -0.9087
 3891TIP3    H233165   0.199   4.182  12.402  0.7777 -1.2329 -0.1986
 3892TIP3   OH233166   5.369   0.828  14.860 -0.3158 -0.3314 -0.0024
 3892TIP3    H133167   5.374   0.923  14.848 -1.1920 -0.3036 -0.2006
 3892TIP3    H233168   5.423   0.792  14.790 -0.6117  0.0034 -0.4065
 3893TIP3   OH233169   6.207   2.953   0.988 -0.3583 -0.2105  0.0877
 3893TIP3    H133170   6.192   3.032   0.936 -1.5608  0.6820  1.7048
 3893TIP3    H233171   6.237   2.986   1.073 -0.6224 -1.4925  0.6953
 3894TIP3   OH233172   4.791   2.447   4.980  0.6244 -0.4966  0.1513
 3894TIP3    H133173   4.869   2.480   5.025 -0.3205  1.2529  0.5485
 3894TIP3    H233174   4.719   2.472   5.038 -0.2632 -1.9293 -0.3104
 3895TIP3   OH233175   1.447   6.342  14.525 -0.2905 -0.2649 -0.8042
 3895TIP3    H133176   1.356   6.337  14.556 -0.4726 -0.1393 -1.3105
 3895TIP3    H233177   1.496   6.373  14.601 -1.0043  1.7991 -1.1592
 3896TIP3   OH233178   5.984   5.742  15.064  0.3287  0.3520  0.2587
 3896TIP3    H133179   6.032   5.801  15.123 -0.6905  0.1518  1.3180
 3896TIP3    H233180   6.029   5.749  14.980  1.4905  1.0510  0.9291
 3897TIP3   OH233181   3.938   4.586   1.045 -0.3286 -0.4317 -0.0165
 3897TIP3    H133182   3.994   4.584   1.123 -0.0100 -0.9757 -0.2543
 3897TIP3    H233183   3.856   4.545   1.074  0.6495 -2.8948 -0.6127
 3898TIP3   OH233184   4.245   4.563  12.493  0.8062  0.1286  0.0529
 3898TIP3    H133185   4.248   4.625  12.421 -0.7620  0.5090  0.3004
 3898TIP3    H233186   4.311   4.595  12.555  2.4003 -0.3942 -1.3342
 3899TIP3   OH233187   2.659   3.618  16.137  0.6244  0.5255 -0.7024
 3899TIP3    H133188   2.683   3.548  16.076 -0.0831  0.4936 -0.9484
 3899TIP3    H233189   2.742   3.662  16.157  1.0167 -0.1558 -0.8264
 3900TIP3   OH233190   6.346   2.506  16.571 -0.4471  0.1863 -0.1790
 3900TIP3    H133191   6.420   2.491  16.512  0.2959  1.4724  0.4225
 3900TIP3    H233192   6.272   2.521  16.512 -0.0722 -0.2567 -0.7737
 3901TIP3   OH233193   1.313   6.469  11.837 -0.3003 -0.2505 -0.0688
 3901TIP3    H133194   1.304   6.447  11.744 -1.1907  0.4732 -0.1514
 3901TIP3    H233195   1.230   6.442  11.876 -0.0821 -0.1709  0.4505
 3902TIP3   OH233196   1.475   2.405   5.211 -0.2823 -0.5334 -0.1346
 3902TIP3    H133197   1.521   2.464   5.152  0.3782 -1.8343 -0.9477
 3902TIP3    H233198   1.445   2.333   5.156 -1.2138 -0.8774  0.8054
 3903TIP3   OH233199   1.515   4.727   0.820  0.2549 -0.3971 -0.1613
 3903TIP3    H133200   1.523   4.727   0.916  1.8342 -1.1414 -0.2751
 3903TIP3    H233201   1.466   4.807   0.800  0.8284  0.3134  1.1919
 3904TIP3   OH233202   6.219   4.112  17.171 -0.6148  0.1949 -0.3202
 3904TIP3    H133203   6.127   4.114  17.198 -1.0110  0.0532 -1.6463
 3904TIP3    H233204   6.226   4.181  17.104  0.0448 -0.4042 -0.8733
 3905TIP3   OH233205   3.030   1.308   2.076 -0.0964 -0.4881 -0.0971
 3905TIP3    H133206   3.015   1.320   2.169  0.0377 -1.3165  0.0378
 3905TIP3    H233207   2.980   1.229   2.054 -0.8475  0.2068 -0.9074
 3906TIP3   OH233208   2.807   2.195  13.156 -0.4249  0.1609  0.5938
 3906TIP3    H133209   2.751   2.197  13.078 -0.2692 -1.6632  0.4222
 3906TIP3    H233210   2.819   2.287  13.179  1.6737  0.9472 -3.1400
 3907TIP3   OH233211   5.401   6.448  15.345  0.2301 -0.0746 -0.2809
 3907TIP3    H133212   5.366   6.492  15.422  1.1290 -0.2976  0.2533
 3907TIP3    H233213   5.370   6.358  15.352 -1.1222  0.3138 -1.0747
 3908TIP3   OH233214   4.061   2.981  11.694  0.1882  0.4816 -0.4740
 3908TIP3    H133215   4.089   3.011  11.608 -1.3676  1.6276 -0.6072
 3908TIP3    H233216   4.140   2.944  11.734  1.7002  2.8707 -1.1351
 3909TIP3   OH233217   2.587   4.487  15.015  0.3157 -0.0791  0.3252
 3909TIP3    H133218   2.575   4.392  15.005  1.1839 -0.0427 -1.2503
 3909TIP3    H233219   2.538   4.525  14.942  2.4599  0.5160 -0.8554
 3910TIP3   OH233220   1.084   3.383  12.987  0.1763 -0.4919 -0.0054
 3910TIP3    H133221   1.125   3.390  12.901 -1.5283  0.8173 -0.7461
 3910TIP3    H233222   1.123   3.305  13.027  0.5110 -1.4580 -2.1961
 3911TIP3   OH233223   0.751   5.634   0.030 -0.6887 -0.2574  0.2900
 3911TIP3    H133224   0.693   5.562   0.055 -2.1123  0.6199 -0.3961
 3911TIP3    H233225   0.828   5.591  -0.007 -1.7395 -1.4134 -0.5963
 3912TIP3   OH233226   1.443   5.672  16.940 -0.3075 -0.6709  0.3039
 3912TIP3    H133227   1.503   5.602  16.914  1.8290  0.5633  1.7719
 3912TIP3    H233228   1.396   5.638  17.015 -0.3265 -1.0606  0.1150
 3913TIP3   OH233229   1.402   6.715  16.489 -0.1411 -0.4605  0.0100
 3913TIP3    H133230   1.399   6.760  16.574 -0.8757  0.2781 -0.4008
 3913TIP3    H233231   1.494   6.694  16.476  0.1941  0.8733  0.2309
 3914TIP3   OH233232   4.314   0.258   0.174  0.0808  0.3716 -0.1764
 3914TIP3    H133233   4.394   0.206   0.173 -0.8964 -1.1828  1.2713
 3914TIP3    H233234   4.244   0.195   0.158 -0.9417  1.5790 -0.5517
 3915TIP3   OH233235   6.627   3.528   2.974  0.0046 -0.3527 -0.4792
 3915TIP3    H133236   6.716   3.560   2.964  0.1559 -0.8862 -0.8707
 3915TIP3    H233237   6.612   3.475   2.896 -0.2087 -1.3026  0.1944
 3916TIP3   OH233238   3.660   1.814   2.185 -0.0726  0.1417  0.0834
 3916TIP3    H133239   3.599   1.790   2.254 -0.5974 -0.8002 -0.6992
 3916TIP3    H233240   3.610   1.873   2.129  0.0294  0.1081 -0.0425
 3917TIP3   OH233241   1.037   3.570   4.397  0.4595  0.1768 -0.2738
 3917TIP3    H133242   0.949   3.599   4.374  1.5654  3.0197 -1.2216
 3917TIP3    H233243   1.028   3.532   4.485 -1.5916  1.0385 -0.0818
 3918TIP3   OH233244   1.487   0.939   1.863  0.1777  0.0005 -0.4164
 3918TIP3    H133245   1.525   0.983   1.787  1.2244 -0.2057 -0.0280
 3918TIP3    H233246   1.559   0.935   1.927 -0.8305  0.6268  0.7789
 3919TIP3   OH233247   4.049   1.958  16.652  0.0804  0.2794 -0.2874
 3919TIP3    H133248   4.031   2.042  16.609  0.9124  0.9880  0.7034
 3919TIP3    H233249   4.107   1.912  16.591  0.0714  0.6596 -0.5895
 3920TIP3   OH233250   3.828   4.320  17.094 -0.6135  0.3621 -0.9475
 3920TIP3    H133251   3.804   4.228  17.082 -0.5492  0.3374 -0.8921
 3920TIP3    H233252   3.924   4.320  17.096 -0.6124  0.4430 -1.0404
 3921TIP3   OH233253   4.845   1.011  15.010 -0.3771  0.0545  0.3074
 3921TIP3    H133254   4.843   0.935  14.951  0.7742  0.6959 -0.5894
 3921TIP3    H233255   4.857   0.973  15.097 -3.0298 -0.9622  0.2676
 3922TIP3   OH233256   2.990   4.299  13.362  0.2506 -0.0880  0.0484
 3922TIP3    H133257   2.961   4.277  13.451 -0.3219  3.5594  0.8483
 3922TIP3    H233258   3.074   4.343  13.375  1.1468 -1.2918 -1.4396
 3923TIP3   OH233259   4.122   6.241   2.648  0.1821  0.2204 -0.2274
 3923TIP3    H133260   4.113   6.309   2.714  1.1533 -0.9214  1.1029
 3923TIP3    H233261   4.085   6.163   2.688  2.3411 -0.9009 -0.3529
 3924TIP3   OH233262   6.577   3.812   4.469 -0.1015 -0.2900  0.0103
 3924TIP3    H133263   6.543   3.834   4.383  0.3920  1.3090  0.2101
 3924TIP3    H233264   6.640   3.741   4.453  0.1372  0.1374 -0.9642
 3925TIP3   OH233265   3.062   6.010  13.848 -0.0123 -0.4509  0.3136
 3925TIP3    H133266   3.125   5.941  13.828 -0.4159 -0.5668 -0.5430
 3925TIP3    H233267   3.099   6.089  13.808 -1.6667 -1.0177 -2.4477
 3926TIP3   OH233268   1.691   3.227  12.106 -0.4088 -0.5137  0.2388
 3926TIP3    H133269   1.713   3.271  12.023 -1.5528 -1.3673 -0.5255
 3926TIP3    H233270   1.637   3.290  12.153  1.2691  0.4782  0.9097
 3927TIP3   OH233271   3.564   1.782  13.272  0.2068  0.0231 -0.0042
 3927TIP3    H133272   3.633   1.821  13.325  0.8828 -2.9668  1.4396
 3927TIP3    H233273   3.554   1.693  13.307 -2.3868 -0.5651 -2.0534
 3928TIP3   OH233274   5.467   0.277   1.089  0.2933 -0.1159  0.4026
 3928TIP3    H133275   5.485   0.217   1.017  1.2807 -0.4027  0.8774
 3928TIP3    H233276   5.442   0.358   1.047 -0.1304 -0.5849 -0.2568
 3929TIP3   OH233277   2.128   4.563  13.421  0.1635  0.9323 -0.3447
 3929TIP3    H133278   2.037   4.533  13.430  0.3987  0.7065  1.3618
 3929TIP3    H233279   2.141   4.570  13.326 -0.8240 -1.5492 -0.6981
 3930TIP3   OH233280   3.275   6.705   0.057  0.2590  0.6147  0.0984
 3930TIP3    H133281   3.235   6.767  -0.004  1.2774 -0.7566 -2.0299
 3930TIP3    H233282   3.205   6.642   0.076  0.1447  0.6634 -0.1620
 3931TIP3   OH233283   2.613   5.201  10.940  0.3741  0.3893  0.4101
 3931TIP3    H133284   2.705   5.190  10.967  0.1388  0.2641  1.1702
 3931TIP3    H233285   2.602   5.295  10.930  0.2831  0.4903  1.4071
 3932TIP3   OH233286   1.111   1.838  11.718  0.7743  0.7580  0.9065
 3932TIP3    H133287   1.156   1.916  11.685 -0.2623  0.9174 -0.1717
 3932TIP3    H233288   1.181   1.782  11.751  1.6683  1.4764  0.2621
 3933TIP3   OH233289   0.544   5.101  14.700  0.9217 -0.0890 -0.1925
 3933TIP3    H133290   0.456   5.076  14.673  0.8650  0.2190 -0.2828
 3933TIP3    H233291   0.573   5.165  14.635  0.4589  1.2901  0.9446
 3934TIP3   OH233292   5.062   2.542   4.735 -0.3394  0.3112 -0.2187
 3934TIP3    H133293   4.990   2.603   4.719 -0.3656  0.1754 -0.6170
 3934TIP3    H233294   5.115   2.547   4.656  0.9322  1.5769  0.6940
 3935TIP3   OH233295   3.452   2.704  16.247  0.1451  0.1049  0.2872
 3935TIP3    H133296   3.466   2.737  16.158 -0.8158  0.4079  0.2487
 3935TIP3    H233297   3.373   2.748  16.278 -0.1995 -0.8853  0.8550
 3936TIP3   OH233298   4.867   1.447  12.746 -0.0869  0.2532 -0.0975
 3936TIP3    H133299   4.940   1.412  12.694 -0.1974  0.6788 -0.5359
 3936TIP3    H233300   4.797   1.383  12.734  0.1746 -0.0918  0.2219
 3937TIP3   OH233301   4.614   3.863   3.332 -0.2648  0.1482  0.5324
 3937TIP3    H133302   4.541   3.804   3.348 -0.5783  0.4198  0.1187
 3937TIP3    H233303   4.630   3.858   3.238 -0.9952  1.5245  0.3175
 3938TIP3   OH233304   5.777   2.532  12.832  0.2391  0.0399  0.0469
 3938TIP3    H133305   5.704   2.471  12.825  1.0862 -0.8474 -1.2259
 3938TIP3    H233306   5.789   2.544  12.926  0.8171 -2.6772  0.3656
 3939TIP3   OH233307   5.240   5.725   0.307  0.2587 -0.2422  0.2498
 3939TIP3    H133308   5.155   5.766   0.293  0.6882  0.6623  0.2554
 3939TIP3    H233309   5.251   5.725   0.403  0.9498  1.0881  0.1899
 3940TIP3   OH233310   2.376   4.223   2.634 -0.6104 -0.1064 -0.1396
 3940TIP3    H133311   2.410   4.286   2.697 -0.0548  0.1758 -0.7096
 3940TIP3    H233312   2.321   4.164   2.685  0.7649 -0.5849  0.8047
 3941TIP3   OH233313   1.032   1.026   1.193  0.0337  0.1828 -0.9281
 3941TIP3    H133314   1.076   1.017   1.109  0.3342  0.2947 -0.7812
 3941TIP3    H233315   1.074   0.961   1.249  0.0589  0.3383 -0.7676
 3942TIP3   OH233316   6.790   6.792  13.472 -0.4144 -0.1241  0.6634
 3942TIP3    H133317   6.751   6.744  13.399  0.5716  0.4325 -0.2448
 3942TIP3    H233318   6.856   6.732  13.508  0.3928  0.3143 -0.0834
 3943TIP3   OH233319   3.974   3.907   3.740 -0.0166  0.0073 -0.1974
 3943TIP3    H133320   3.900   3.878   3.687 -0.4828  1.8299 -0.5783
 3943TIP3    H233321   4.017   3.974   3.688  1.0216  0.0330  0.6646
 3944TIP3   OH233322   5.327   2.471   2.440 -1.1448  0.3558 -0.4559
 3944TIP3    H133323   5.327   2.380   2.468 -1.2826  0.9275  1.4569
 3944TIP3    H233324   5.266   2.474   2.367 -0.1545 -1.3299 -1.3971
 3945TIP3   OH233325   6.707   4.985  12.084 -0.2159  0.3184  0.1217
 3945TIP3    H133326   6.654   4.956  12.010 -1.7788  1.1466  0.8912
 3945TIP3    H233327   6.791   4.940  12.073 -0.6559 -0.0602 -1.7825
 3946TIP3   OH233328   0.326   3.405   3.938  0.0966 -0.1766  0.0628
 3946TIP3    H133329   0.363   3.439   4.020  0.5751  1.4239 -0.7910
 3946TIP3    H233330   0.347   3.312   3.939  0.9599  0.0150  1.3042
 3947TIP3   OH233331   2.111   5.676  12.515 -0.1473 -0.0868  0.3160
 3947TIP3    H133332   2.022   5.704  12.533 -0.0657 -0.1402  0.7963
 3947TIP3    H233333   2.120   5.593  12.563  0.5829  0.5732  1.3129
 3948TIP3   OH233334   2.223   6.735   2.298  0.7939  0.0078 -0.5482
 3948TIP3    H133335   2.157   6.802   2.283  2.4910  1.1379 -3.3309
 3948TIP3    H233336   2.305   6.783   2.304  1.6553 -1.5666  0.5522
 3949TIP3   OH233337   4.092   1.728  17.100  0.4317 -0.3487 -0.3731
 3949TIP3    H133338   4.185   1.713  17.119 -0.0117 -1.6542  0.8481
 3949TIP3    H233339   4.070   1.664  17.032  0.2449 -0.5694 -0.1077
 3950TIP3   OH233340   0.466   2.218  15.375 -0.4812  0.2672  0.6807
 3950TIP3    H133341   0.375   2.188  15.373 -1.1387  1.8303  3.7590
 3950TIP3    H233342   0.516   2.146  15.337 -2.6804 -2.0046  1.9173
 3951TIP3   OH233343   3.714   0.820   3.615  0.1767  0.1361 -0.5675
 3951TIP3    H133344   3.645   0.882   3.593 -1.4145 -1.4723 -0.2464
 3951TIP3    H233345   3.769   0.866   3.678 -1.2023  1.0821 -0.0446
 3952TIP3   OH233346   0.319   5.834   0.436  0.1853 -0.6022 -0.3196
 3952TIP3    H133347   0.301   5.742   0.455 -0.1047 -0.1030  2.0220
 3952TIP3    H233348   0.352   5.869   0.519 -0.0449  1.4866 -1.0855
 3953TIP3   OH233349   4.777   2.365   3.498  0.2259  0.0188  0.6491
 3953TIP3    H133350   4.737   2.345   3.413 -0.3260  1.1871  0.6331
 3953TIP3    H233351   4.782   2.460   3.500  0.2737 -0.0128  1.9185
 3954TIP3   OH233352   2.402   2.995  15.970  0.1048 -0.3502  0.0944
 3954TIP3    H133353   2.409   2.905  15.936 -0.3204 -0.2063 -0.3891
 3954TIP3    H233354   2.328   2.992  16.030  0.2610 -0.3885  0.2816
 3955TIP3   OH233355   5.493   1.511  14.200 -0.6573 -0.2565  0.0551
 3955TIP3    H133356   5.546   1.434  14.180  0.3079  0.1811  0.8815
 3955TIP3    H233357   5.557   1.578  14.225 -1.5318  0.5966  0.0418
 3956TIP3   OH233358   4.221   1.367  16.775 -0.3997  0.2108  0.2974
 3956TIP3    H133359   4.269   1.448  16.792 -0.0556 -0.0582  0.6037
 3956TIP3    H233360   4.183   1.380  16.688 -0.8845  0.9654  0.6184
 3957TIP3   OH233361   1.243   2.629  17.000  0.4565  0.1559 -0.0708
 3957TIP3    H133362   1.276   2.677  17.077  0.8314 -0.6568  0.2773
 3957TIP3    H233363   1.195   2.556  17.037 -1.2448  0.9893 -0.5901
 3958TIP3   OH233364   5.371   5.452   0.595 -0.1288  0.4044  0.4531
 3958TIP3    H133365   5.354   5.541   0.566  1.7382  0.4595 -0.5449
 3958TIP3    H233366   5.286   5.420   0.626 -1.0022  2.2013 -0.0193
 3959TIP3   OH233367   4.223   5.121   5.262 -0.1019 -0.0269 -0.0395
 3959TIP3    H133368   4.279   5.123   5.184  0.5361 -0.6439  0.4024
 3959TIP3    H233369   4.133   5.118   5.227  0.2173 -1.8373 -0.7624
 3960TIP3   OH233370   5.192   1.654   0.780  0.7612  0.1440  0.1930
 3960TIP3    H133371   5.281   1.652   0.815  0.7217  0.3060  0.3006
 3960TIP3    H233372   5.144   1.709   0.842  0.7189  0.5294 -0.1839
 3961TIP3   OH233373   1.587   5.004   5.969  0.1517 -0.2263  0.0821
 3961TIP3    H133374   1.630   5.039   5.891 -1.3709  1.8746  0.1477
 3961TIP3    H233375   1.496   4.994   5.944  0.3610 -3.3182  0.3853
 3962TIP3   OH233376   3.887   4.574   0.345 -0.1955  0.6417 -0.6515
 3962TIP3    H133377   3.850   4.492   0.311 -2.0808  1.3241 -0.2950
 3962TIP3    H233378   3.953   4.546   0.408 -1.0578 -0.6253 -0.2781
 3963TIP3   OH233379   5.719   1.682  15.777  0.7834  0.0078  0.5056
 3963TIP3    H133380   5.794   1.740  15.791  1.9902 -0.7788 -2.3218
 3963TIP3    H233381   5.677   1.716  15.698 -1.1254 -0.3031  1.3660
 3964TIP3   OH233382   4.233   5.413   4.914  0.6765 -0.0235 -0.4434
 3964TIP3    H133383   4.163   5.406   4.979  1.0744  2.9759  0.4128
 3964TIP3    H233384   4.265   5.323   4.902 -0.2279 -0.8116  2.6127
 3965TIP3   OH233385   3.923   1.635  10.945  0.4538  0.0124 -0.0667
 3965TIP3    H133386   3.945   1.615  11.036 -1.8366 -0.6249  0.3673
 3965TIP3    H233387   3.971   1.717  10.927  0.7550  0.2669  1.7645
 3966TIP3   OH233388   6.046   1.971   3.136 -0.0996  0.1528  0.3891
 3966TIP3    H133389   5.992   2.022   3.076 -0.2852  1.9916  2.0347
 3966TIP3    H233390   6.115   1.934   3.081 -3.1418 -2.4825 -1.7935
 3967TIP3   OH233391   1.420   1.877   6.120  0.0680 -0.1803 -0.2719
 3967TIP3    H133392   1.482   1.875   6.192 -0.4875 -1.0559  0.1854
 3967TIP3    H233393   1.443   1.802   6.065 -0.5264 -0.4660 -0.1421
 3968TIP3   OH233394   3.310   0.272  16.073  0.1815 -0.3232  0.0564
 3968TIP3    H133395   3.374   0.211  16.037 -0.0437  0.1889 -1.2178
 3968TIP3    H233396   3.256   0.297  15.999 -1.3750 -0.5797  1.0744
 3969TIP3   OH233397   2.376   4.463  15.517  0.1420 -0.4354  0.3267
 3969TIP3    H133398   2.291   4.507  15.531 -0.1712 -1.3115  1.2076
 3969TIP3    H233399   2.441   4.529  15.539 -0.2291  1.1957 -3.0402
 3970TIP3   OH233400   2.326   2.046  11.084 -0.2582 -0.0053 -0.1483
 3970TIP3    H133401   2.412   2.049  11.125 -1.0215  0.2809  1.4731
 3970TIP3    H233402   2.332   2.107  11.011  0.9021  0.0323 -0.0315
 3971TIP3   OH233403   0.946   0.327   0.085 -0.0353 -0.5233  0.5055
 3971TIP3    H133404   0.899   0.248   0.057  0.4190 -0.2411 -1.0722
 3971TIP3    H233405   0.960   0.313   0.179 -0.5988 -1.9867  0.3979
 3972TIP3   OH233406   2.059   0.905   4.155 -0.0542  0.2898 -0.1458
 3972TIP3    H133407   1.986   0.963   4.174 -0.0407 -0.1101  1.2019
 3972TIP3    H233408   2.078   0.919   4.062 -0.9947  1.3472 -0.1855
 3973TIP3   OH233409   2.902   1.100  16.084  0.6642  0.0167  0.1854
 3973TIP3    H133410   2.995   1.083  16.068  0.6840 -1.2864  1.4424
 3973TIP3    H233411   2.893   1.090  16.179 -1.0333 -1.3894 -0.0969
 3974TIP3   OH233412   4.122   4.996   4.065 -0.2111  0.4932  0.0779
 3974TIP3    H133413   4.201   5.005   4.013 -1.2158  1.2290 -1.3673
 3974TIP3    H233414   4.148   4.945   4.141  2.1680  2.6176  0.7427
 3975TIP3   OH233415   2.558   3.476  12.268 -0.2067  0.0984 -0.4188
 3975TIP3    H133416   2.527   3.495  12.357 -0.5828  4.3338 -1.3196
 3975TIP3    H233417   2.651   3.456  12.279 -0.6821 -1.4328  1.0967
 3976TIP3   OH233418   1.951   5.739  15.212 -0.1096 -0.5328 -0.0463
 3976TIP3    H133419   1.882   5.805  15.200  0.6116  0.2739  0.2012
 3976TIP3    H233420   2.007   5.749  15.135 -0.2418 -1.1668 -0.2278
 3977TIP3   OH233421   1.612   4.945   4.576  0.5158 -0.1540  0.1114
 3977TIP3    H133422   1.543   4.973   4.514 -0.4167 -0.8919  0.8063
 3977TIP3    H233423   1.678   5.014   4.569 -0.1672  0.4431 -0.7618
 3978TIP3   OH233424   0.451   3.674   4.560  0.6313 -0.1934  0.2800
 3978TIP3    H133425   0.393   3.614   4.607  0.3436 -0.0643  0.0923
 3978TIP3    H233426   0.464   3.747   4.622  1.3441 -0.6611  0.6802
 3979TIP3   OH233427   3.743   2.423   3.300  0.4975 -0.3018  0.2466
 3979TIP3    H133428   3.799   2.349   3.276  0.3933 -0.0415 -0.8323
 3979TIP3    H233429   3.757   2.487   3.230 -3.8315 -1.6404 -2.0252
 3980TIP3   OH233430   3.928   4.430  11.171 -0.0324 -0.0385  0.0038
 3980TIP3    H133431   3.939   4.488  11.095 -1.2592  1.0777  0.6619
 3980TIP3    H233432   3.997   4.456  11.231  1.8439 -1.8862 -1.2984
 3981TIP3   OH233433   0.129   4.956   5.498 -0.4275  0.3320 -0.3106
 3981TIP3    H133434   0.103   4.889   5.434 -0.5886  0.2899 -0.2014
 3981TIP3    H233435   0.207   4.920   5.539  0.4005  0.9217 -1.3563
 3982TIP3   OH233436   4.220   2.820   3.251  0.7845 -0.2016  0.2308
 3982TIP3    H133437   4.137   2.827   3.298 -0.4729 -1.3235 -1.7152
 3982TIP3    H233438   4.248   2.910   3.237 -2.4156  0.4375 -2.9197
 3983TIP3   OH233439   2.033   6.666  15.505 -0.7476 -0.2671  0.3552
 3983TIP3    H133440   2.025   6.724  15.429  2.0163 -0.1801  0.0688
 3983TIP3    H233441   1.998   6.582  15.474 -0.0973 -0.0993 -0.8827
 3984TIP3   OH233442   3.886   2.953   5.782 -0.3343  0.1663  0.0686
 3984TIP3    H133443   3.828   2.893   5.735 -0.5130  1.3252 -1.2218
 3984TIP3    H233444   3.972   2.937   5.743 -0.0672 -0.4354  0.8935
 3985TIP3   OH233445   1.986   1.030   5.100  0.1316 -0.2174  0.2027
 3985TIP3    H133446   2.031   1.111   5.077 -0.5304  0.0511 -0.1898
 3985TIP3    H233447   1.905   1.059   5.142 -1.3089 -0.6051 -2.2194
 3986TIP3   OH233448   5.536   2.290   2.182  0.3517 -0.0799  0.4714
 3986TIP3    H133449   5.565   2.200   2.167  0.9833  0.3345 -0.8363
 3986TIP3    H233450   5.440   2.284   2.182  0.3096 -0.3156 -2.6369
 3987TIP3   OH233451   5.553   3.104  12.489  0.1620 -0.3726 -0.0283
 3987TIP3    H133452   5.625   3.166  12.500 -0.4872  0.5347 -0.8229
 3987TIP3    H233453   5.595   3.023  12.460  1.2462 -0.9704  3.0078
 3988TIP3   OH233454   6.483   0.634  11.864 -0.4545 -0.2394  0.0486
 3988TIP3    H133455   6.474   0.714  11.915  0.4523 -1.0015  1.4384
 3988TIP3    H233456   6.409   0.635  11.803  0.9984  2.9548 -1.7878
 3989TIP3   OH233457   1.809   6.254  11.810  0.1049  0.1376  0.3193
 3989TIP3    H133458   1.799   6.297  11.895  2.2550 -0.5129  0.9382
 3989TIP3    H233459   1.874   6.186  11.825  1.2336  0.6371 -2.0808
 3990TIP3   OH233460   0.598   1.606  10.861  0.2798 -0.5642 -0.0208
 3990TIP3    H133461   0.526   1.543  10.859  0.1159 -0.3707 -0.1303
 3990TIP3    H233462   0.610   1.632  10.770  0.0914 -0.1409  0.0760
 3991TIP3   OH233463   1.480   3.951  11.615 -0.2481  0.3074  0.2906
 3991TIP3    H133464   1.460   3.872  11.564  0.6164 -0.6803  1.4429
 3991TIP3    H233465   1.395   3.988  11.636 -0.6988 -0.8531  0.5445
 3992TIP3   OH233466   0.666   3.432   3.384 -0.5048  0.0983  0.0883
 3992TIP3    H133467   0.666   3.342   3.352 -2.4951  0.6409 -1.5714
 3992TIP3    H233468   0.601   3.431   3.455 -3.4417  0.9808 -2.4523
 3993TIP3   OH233469   1.208   4.256  14.869  0.2839 -0.6442  0.1937
 3993TIP3    H133470   1.287   4.300  14.900  0.8435 -0.6882 -1.1182
 3993TIP3    H233471   1.173   4.315  14.802 -0.1544 -1.1702 -0.0417
 3994TIP3   OH233472   0.989   6.800  14.771  0.4748 -0.1199 -0.1976
 3994TIP3    H133473   0.894   6.808  14.766  0.8381  4.3414 -2.6978
 3994TIP3    H233474   1.014   6.750  14.693  0.2851  0.2466 -0.4949
 3995TIP3   OH233475   1.146   4.806  15.285  0.6172 -0.0601  0.4430
 3995TIP3    H133476   1.231   4.810  15.240  0.0801 -0.6950 -0.6554
 3995TIP3    H233477   1.126   4.712  15.289 -0.4861  0.1357 -0.1918
 3996TIP3   OH233478   5.165   2.506  16.624 -0.0315  0.5026  0.5717
 3996TIP3    H133479   5.191   2.583  16.673 -0.2050  0.7523  0.2750
 3996TIP3    H233480   5.107   2.539  16.555  0.4567  0.2021  0.0028
 3997TIP3   OH233481   2.446   1.786  11.212 -0.2738 -0.5002  0.2272
 3997TIP3    H133482   2.414   1.752  11.128 -0.4721  0.1403  0.0395
 3997TIP3    H233483   2.369   1.784  11.270 -0.1002 -1.0848  0.4422
 3998TIP3   OH233484   6.817   6.706   4.460  0.1553  0.5237  0.2899
 3998TIP3    H133485   6.899   6.753   4.448  1.9214 -2.3674  0.6775
 3998TIP3    H233486   6.762   6.766   4.511  2.4814  1.9613  1.1794
 3999TIP3   OH233487   0.966   2.366  14.518  0.1349  0.7228 -0.1542
 3999TIP3    H133488   1.048   2.382  14.470  0.2868  1.9155  0.4774
 3999TIP3    H233489   0.927   2.291  14.474  1.8733 -0.2611 -0.0712
 4000TIP3   OH233490   6.224   5.582   4.858 -0.1737  0.2107  0.4131
 4000TIP3    H133491   6.213   5.675   4.877 -1.0617  0.1895  0.0142
 4000TIP3    H233492   6.204   5.538   4.940  2.6400  0.4850  1.3152
 4001TIP3   OH233493   1.151   2.596   2.928  0.1560  0.4832  0.8054
 4001TIP3    H133494   1.214   2.664   2.903  0.5785  0.6454  2.2162
 4001TIP3    H233495   1.195   2.514   2.907  0.1627  0.6271  0.2582
 4002TIP3   OH233496   5.223   0.715   5.979  0.1437  0.2052  0.3766
 4002TIP3    H133497   5.294   0.777   5.991  0.8600 -0.2245 -1.5269
 4002TIP3    H233498   5.149   0.768   5.951  0.6302  0.2787 -0.8059
 4003TIP3   OH233499   3.462   0.446   0.929 -0.1954  0.1556 -0.2960
 4003TIP3    H133500   3.378   0.492   0.936  1.7513  4.0033 -1.0482
 4003TIP3    H233501   3.514   0.479   1.002  0.8392 -1.8698 -0.0936
 4004TIP3   OH233502   5.113   5.317   5.365  0.4053 -0.1780 -0.6088
 4004TIP3    H133503   5.145   5.397   5.405 -0.8759  0.2682 -0.4411
 4004TIP3    H233504   5.115   5.334   5.271  0.8868 -0.2507 -0.6139
 4005TIP3   OH233505   4.280   0.487  13.445  0.1954 -0.0554  0.1257
 4005TIP3    H133506   4.212   0.439  13.398  2.0934 -3.5644  0.8183
 4005TIP3    H233507   4.359   0.472  13.394  1.1386  1.0674  1.2372
 4006TIP3   OH233508   2.049   4.103  12.266  0.0072 -0.4240  0.0830
 4006TIP3    H133509   1.975   4.043  12.270  0.9237 -1.5633  0.6234
 4006TIP3    H233510   2.038   4.151  12.184 -1.1874 -0.7445  0.0462
 4007TIP3   OH233511   4.510   0.270   4.443  0.1867 -0.1016 -0.6803
 4007TIP3    H133512   4.563   0.191   4.455  0.3175  0.2186  0.8682
 4007TIP3    H233513   4.419   0.240   4.453  0.3044  0.1999  1.3463
 4008TIP3   OH233514   5.121   2.084  15.316 -0.6720 -0.5269 -0.6568
 4008TIP3    H133515   5.107   2.115  15.227 -1.3860 -0.8769 -0.6697
 4008TIP3    H233516   5.198   2.027  15.310  0.8234  1.4167 -0.5796
 4009TIP3   OH233517   2.849   3.396   2.366  0.1305  0.6957  0.3882
 4009TIP3    H133518   2.856   3.469   2.427  1.4491  0.4391  0.5557
 4009TIP3    H233519   2.831   3.320   2.420 -2.0807  1.0066  0.1426
 4010TIP3   OH233520   1.867   3.850  10.986 -0.1595 -0.0207  0.0699
 4010TIP3    H133521   1.918   3.902  11.049 -0.2759  1.6463 -1.1830
 4010TIP3    H233522   1.781   3.892  10.983 -0.9306 -1.5382  0.5757
 4011TIP3   OH233523   3.755   1.730   1.502  0.7458  0.0909  0.1912
 4011TIP3    H133524   3.702   1.791   1.553 -0.8786 -0.1257 -1.1864
 4011TIP3    H233525   3.768   1.775   1.418  1.6780 -0.3947  0.0761
 4012TIP3   OH233526   0.296   4.946   0.491  0.1953  0.3472 -0.5304
 4012TIP3    H133527   0.264   5.035   0.503 -0.8789 -0.2587  1.1402
 4012TIP3    H233528   0.219   4.895   0.469  0.7254 -0.2925 -0.9389
 4013TIP3   OH233529   6.070   5.379  15.668 -0.7462  0.3044 -0.4729
 4013TIP3    H133530   6.056   5.287  15.646 -2.9452  0.4655  0.1755
 4013TIP3    H233531   6.070   5.381  15.764 -1.1926  1.0515 -0.4879
 4014TIP3   OH233532   5.778   1.867  16.752  0.3791 -0.2055 -0.3087
 4014TIP3    H133533   5.745   1.820  16.829 -1.0597  1.9360  0.4439
 4014TIP3    H233534   5.799   1.799  16.689 -2.0724 -1.8247  0.5765
 4015TIP3   OH233535   4.337   5.477  17.067  0.7349 -0.1660 -0.1009
 4015TIP3    H133536   4.353   5.402  17.009 -1.1230 -0.0811 -0.7415
 4015TIP3    H233537   4.419   5.528  17.063  0.9250 -0.5870 -2.0227
 4016TIP3   OH233538   3.939   3.730   5.179  0.5545  0.0511  0.4360
 4016TIP3    H133539   3.933   3.815   5.223 -0.9077 -0.2491  0.8286
 4016TIP3    H233540   3.914   3.748   5.088 -0.9997 -0.1840  0.8096
 4017TIP3   OH233541   5.205   6.178  16.562  0.2377 -0.2461  0.4240
 4017TIP3    H133542   5.200   6.269  16.594 -1.0867  0.9403 -2.9309
 4017TIP3    H233543   5.129   6.135  16.601 -0.6965  0.8466 -0.1478
 4018TIP3   OH233544   3.382   0.092   2.095  0.2071 -0.0333 -0.0957
 4018TIP3    H133545   3.389   0.025   2.164  1.0877  0.7282  0.5660
 4018TIP3    H233546   3.322   0.157   2.132  0.2633  0.1180 -0.2737
 4019TIP3   OH233547   6.503   5.596  11.883  0.0262 -0.3287 -0.4033
 4019TIP3    H133548   6.497   5.540  11.960 -0.4324 -0.3894 -0.4829
 4019TIP3    H233549   6.588   5.574  11.844  1.2756  1.3518  1.3279
 4020TIP3   OH233550   4.041   5.569  14.791 -0.3418  0.4735 -0.0189
 4020TIP3    H133551   3.958   5.529  14.816 -0.1439 -1.0614 -1.8052
 4020TIP3    H233552   4.090   5.500  14.748  1.6725  1.5119  0.5462
 4021TIP3   OH233553   2.654   1.723  12.295  0.2163  0.0755  0.2020
 4021TIP3    H133554   2.705   1.762  12.366 -1.8343  1.6841  0.8332
 4021TIP3    H233555   2.594   1.663  12.338 -0.1793  0.1126 -0.2970
 4022TIP3   OH233556   5.111   2.871  16.568  0.0265  0.1348 -0.3563
 4022TIP3    H133557   5.088   2.816  16.493 -3.6053  2.2375 -0.8753
 4022TIP3    H233558   5.131   2.809  16.638  1.1029 -1.8333 -2.3447
 4023TIP3   OH233559   5.541   4.496   1.226  0.4712  0.4043 -0.4635
 4023TIP3    H133560   5.458   4.528   1.261 -0.3768 -1.3491 -0.8172
 4023TIP3    H233561   5.523   4.479   1.134  0.8375 -1.2445 -0.2464
 4024TIP3   OH233562   4.485   0.444  15.008 -0.0419 -0.2530 -0.1524
 4024TIP3    H133563   4.529   0.370  14.966 -0.9183 -0.7101 -0.2921
 4024TIP3    H233564   4.427   0.403  15.072  0.8365  0.4152  1.0767
 4025TIP3   OH233565   3.612   3.257  15.249 -0.4683 -0.1710 -0.2356
 4025TIP3    H133566   3.602   3.180  15.194 -0.6718  0.0290 -0.4785
 4025TIP3    H233567   3.707   3.273  15.251 -0.2940 -1.2814  1.0027
 4026TIP3   OH233568   1.096   5.715  14.935 -0.4357 -0.2530  0.1605
 4026TIP3    H133569   1.014   5.718  14.886 -0.3526 -1.2218 -0.0570
 4026TIP3    H233570   1.077   5.761  15.016 -0.9373  0.2918 -0.2654
 4027TIP3   OH233571   2.770   6.812   2.075  0.4364  0.1409  0.1671
 4027TIP3    H133572   2.756   6.723   2.041  2.2604 -0.0144 -0.2755
 4027TIP3    H233573   2.759   6.803   2.170  2.3640 -0.9837  0.3312
 4028TIP3   OH233574   4.642   4.820  10.128 -0.9524 -0.4953  0.2040
 4028TIP3    H133575   4.664   4.727  10.122  0.4055 -0.1612 -0.0880
 4028TIP3    H233576   4.663   4.844  10.219  0.7094  0.0273 -0.3113
 4029TIP3   OH233577   6.240   6.322   1.150  0.2129  0.0809 -0.3078
 4029TIP3    H133578   6.323   6.273   1.151  1.0042  1.4004 -0.2954
 4029TIP3    H233579   6.193   6.291   1.227  2.1292  1.7383  1.5616
 4030TIP3   OH233580   2.049   5.240  12.789 -0.4149  0.3928 -0.3272
 4030TIP3    H133581   1.970   5.222  12.841  0.1183  0.1332  0.4003
 4030TIP3    H233582   2.088   5.154  12.775  1.3555  0.7778  1.9014
 4031TIP3   OH233583   5.513   0.878   2.251  0.1033  0.3803  0.0338
 4031TIP3    H133584   5.560   0.913   2.327  0.0882 -2.1470  1.2654
 4031TIP3    H233585   5.423   0.907   2.263  0.4181  1.3352  0.1218
 4032TIP3   OH233586   5.455   5.032   2.120  0.2017  0.2529 -0.3165
 4032TIP3    H133587   5.447   5.001   2.029 -2.8111  0.3852 -0.1644
 4032TIP3    H233588   5.443   4.953   2.173 -1.8014  0.7388 -0.0094
 4033TIP3   OH233589   2.785   3.244  12.004  0.6468  0.0284  0.0790
 4033TIP3    H133590   2.771   3.191  11.925  0.3516  0.4833 -0.1727
 4033TIP3    H233591   2.840   3.317  11.975  0.2956  0.3532  0.2368
 4034TIP3   OH233592   3.418   1.970  17.246 -0.0502  0.4000 -0.1962
 4034TIP3    H133593   3.406   2.050  17.195 -1.6464 -1.1823 -2.4159
 4034TIP3    H233594   3.370   1.903  17.196  1.4733 -1.9796  1.4585
 4035TIP3   OH233595   5.895   0.079   6.291 -0.0689  0.0021 -0.6638
 4035TIP3    H133596   5.802   0.082   6.315  0.3949  0.2892  1.1095
 4035TIP3    H233597   5.922   0.170   6.290  0.4315 -0.1401 -0.2446
 4036TIP3   OH233598   0.336   2.524   3.050 -0.7770 -0.0235  0.5648
 4036TIP3    H133599   0.405   2.546   2.987 -1.3614 -0.1761 -0.1350
 4036TIP3    H233600   0.364   2.441   3.089  0.3769  0.8576  1.6753
 4037TIP3   OH233601   4.159   1.675   4.110 -0.0831  0.5854 -0.2131
 4037TIP3    H133602   4.120   1.621   4.179  1.6621 -0.5787 -0.1112
 4037TIP3    H233603   4.251   1.681   4.134  0.1696  1.7282 -1.4538
 4038TIP3   OH233604   6.553   1.849   2.314  0.0217 -0.2623 -0.0432
 4038TIP3    H133605   6.576   1.933   2.353  0.8835 -0.8690  0.8106
 4038TIP3    H233606   6.458   1.845   2.318  0.0548  0.0381  1.2866
 4039TIP3   OH233607   0.079   1.311   4.965  0.0483  0.1786 -0.1614
 4039TIP3    H133608  -0.001   1.278   4.922 -1.0919  2.0073  0.5141
 4039TIP3    H233609   0.148   1.253   4.933 -0.9935  0.5734 -3.3554
 4040TIP3   OH233610   3.682   1.923  16.550  0.5572 -0.1423 -0.0405
 4040TIP3    H133611   3.755   1.903  16.491  0.3024 -0.6880 -0.1775
 4040TIP3    H233612   3.657   2.012  16.527 -0.4015 -0.8242 -1.6884
 4041TIP3   OH233613   3.054   0.170   4.038 -0.4885  0.2029  0.1065
 4041TIP3    H133614   2.995   0.212   3.975 -1.1649 -0.3536  0.3709
 4041TIP3    H233615   3.131   0.228   4.040 -2.1157  2.3942  1.7692
 4042TIP3   OH233616   0.155   6.102   1.320 -0.2638 -0.1255  0.4229
 4042TIP3    H133617   0.186   6.014   1.340  1.2219  0.5930  1.4195
 4042TIP3    H233618   0.165   6.150   1.402 -1.9253  0.7477  0.1470
 4043TIP3   OH233619   6.465   0.169  11.464 -0.0062 -0.2249  0.4844
 4043TIP3    H133620   6.543   0.225  11.464  0.4241 -0.8235  1.1096
 4043TIP3    H233621   6.476   0.114  11.386 -0.1452  0.1625  0.1898
 4044TIP3   OH233622   2.553   3.035  12.631 -0.0326  0.2403  0.4936
 4044TIP3    H133623   2.609   2.958  12.646 -1.4910 -0.8016  0.6665
 4044TIP3    H233624   2.474   3.017  12.681  0.9320  3.4328  3.3294
 4045TIP3   OH233625   3.470   1.154  15.204  0.3719 -0.1940  0.1992
 4045TIP3    H133626   3.415   1.075  15.202  1.1757 -0.7329 -1.1315
 4045TIP3    H233627   3.483   1.171  15.298 -3.1525  0.7362  0.5863
 4046TIP3   OH233628   5.299   1.097   1.705 -0.4257  0.0738  0.3050
 4046TIP3    H133629   5.275   1.067   1.617  1.2348  0.0296 -0.1446
 4046TIP3    H233630   5.245   1.043   1.763 -1.7755  0.3297 -0.6859
 4047TIP3   OH233631   0.595   2.892  12.102 -0.1329  0.4912  0.2626
 4047TIP3    H133632   0.562   2.953  12.035 -0.5911  0.7037  0.6801
 4047TIP3    H233633   0.562   2.806  12.075  1.6369  0.2004 -1.0772
 4048TIP3   OH233634   3.152   5.721   2.203  0.0048 -0.1204 -0.6819
 4048TIP3    H133635   3.058   5.707   2.203  0.0201 -0.2489  0.1942
 4048TIP3    H233636   3.190   5.633   2.205  0.1226 -0.0355  1.2219
 4049TIP3   OH233637   5.334   2.475  15.962 -0.0771 -0.3273  0.0199
 4049TIP3    H133638   5.380   2.557  15.944  1.1502 -1.0025  0.0638
 4049TIP3    H233639   5.250   2.503  15.999  0.9534  0.8947  1.5045
 4050TIP3   OH233640   1.618   6.798   2.677  0.4589  0.1862 -0.1144
 4050TIP3    H133641   1.535   6.810   2.723 -0.0745  3.6137 -1.8364
 4050TIP3    H233642   1.595   6.747   2.599 -0.1611  1.4992 -0.8147
 4051TIP3   OH233643   4.446   4.744  13.437 -0.3403  0.4312  0.0515
 4051TIP3    H133644   4.376   4.738  13.503 -1.0205  1.2229 -0.5780
 4051TIP3    H233645   4.421   4.682  13.369 -0.1071  0.2602  0.1235
 4052TIP3   OH233646   3.375   5.681   1.493  0.1818  0.1618 -0.3254
 4052TIP3    H133647   3.367   5.620   1.421 -1.1593  1.9976 -1.7933
 4052TIP3    H233648   3.312   5.649   1.558  0.1622 -0.5431 -0.6882
 4053TIP3   OH233649   5.385   6.166  15.123  0.0387 -0.1097 -0.2763
 4053TIP3    H133650   5.411   6.174  15.215 -3.5517 -0.0458  0.7875
 4053TIP3    H233651   5.355   6.253  15.098 -1.6503 -0.7842 -0.6577
 4054TIP3   OH233652   2.465   3.380  15.195 -0.3437 -0.0826  0.1465
 4054TIP3    H133653   2.377   3.383  15.156 -0.2782 -1.1688 -0.1129
 4054TIP3    H233654   2.454   3.330  15.275 -0.3114  1.4390  1.1203
 4055TIP3   OH233655   3.380   3.136  11.279  0.3417  0.5492 -0.0408
 4055TIP3    H133656   3.375   3.115  11.186  0.3790 -0.5026  0.1829
 4055TIP3    H233657   3.315   3.078  11.320 -0.1730  1.5044  0.5021
 4056TIP3   OH233658   5.324   1.039  13.957  0.2760 -0.5008  0.0613
 4056TIP3    H133659   5.247   0.982  13.959  0.8805 -1.4250 -1.5454
 4056TIP3    H233660   5.306   1.102  13.888  1.3063 -1.2882 -0.9629
 4057TIP3   OH233661   6.541   2.657  17.168 -0.2296  0.5831 -0.0054
 4057TIP3    H133662   6.508   2.745  17.187  0.6044  0.3824  2.5250
 4057TIP3    H233663   6.465   2.600  17.180 -0.4413  0.7889 -0.3292
 4058TIP3   OH233664   5.805   1.787   0.076 -0.3207 -0.0295 -0.4756
 4058TIP3    H133665   5.850   1.742   0.004  1.1515 -1.9853  1.5813
 4058TIP3    H233666   5.876   1.820   0.131 -1.3958 -0.1841  1.0320
 4059TIP3   OH233667   3.960   2.589   5.157 -0.4819  0.0656 -0.2313
 4059TIP3    H133668   4.031   2.600   5.093  0.2600  2.0640  0.8843
 4059TIP3    H233669   3.986   2.645   5.231 -1.9558 -1.1979  1.2722
 4060TIP3   OH233670   3.597   4.851  14.738  0.1159  0.3810  0.1165
 4060TIP3    H133671   3.642   4.795  14.801 -0.6486 -1.9119 -1.3014
 4060TIP3    H233672   3.665   4.911  14.706  1.4730 -1.1273  0.1261
 4061TIP3   OH233673   4.905   3.032   4.160 -0.4795  0.1222  0.3208
 4061TIP3    H133674   4.958   2.953   4.169  0.5300  0.5976 -1.3670
 4061TIP3    H233675   4.857   3.020   4.078 -0.9442  0.9045  0.4684
 4062TIP3   OH233676   5.942   6.608  15.585  0.6170  0.3310  0.1673
 4062TIP3    H133677   5.914   6.527  15.628  0.1906  0.7471  0.6807
 4062TIP3    H233678   5.925   6.677  15.650 -0.9893  1.1029 -1.0399
 4063TIP3   OH233679   5.182   0.465  16.706 -0.3630 -0.5273  0.0281
 4063TIP3    H133680   5.163   0.548  16.751  0.8696  0.1429 -0.6781
 4063TIP3    H233681   5.108   0.453  16.646 -0.2286  0.3693 -0.3163
 4064TIP3   OH233682   5.317   0.688   5.001 -0.1576 -0.1489 -0.0356
 4064TIP3    H133683   5.291   0.597   5.013 -2.2003  0.1877 -1.7113
 4064TIP3    H233684   5.408   0.683   4.970 -0.8121 -1.7106 -1.7891
 4065TIP3   OH233685   1.007   1.870  15.370 -0.5681  0.0337 -0.4173
 4065TIP3    H133686   0.943   1.800  15.363 -0.2351 -0.3200  0.0920
 4065TIP3    H233687   1.000   1.900  15.461 -0.1956  0.1733 -0.4337
 4066TIP3   OH233688   4.849   0.643   0.312  0.4326  0.1031  0.0347
 4066TIP3    H133689   4.834   0.561   0.265 -0.0466 -0.0574  0.4499
 4066TIP3    H233690   4.846   0.711   0.245  1.7224 -0.2986 -0.4373
 4067TIP3   OH233691   0.928   3.664  12.888  0.3826  0.0666  0.0831
 4067TIP3    H133692   0.936   3.574  12.920 -2.3286 -0.1747  0.2380
 4067TIP3    H233693   0.975   3.664  12.804 -0.0300 -1.6456 -0.1733
 4068TIP3   OH233694   0.197   2.926   0.711 -0.1190  0.1312  0.5172
 4068TIP3    H133695   0.267   2.889   0.765  1.2975  1.5895 -0.2809
 4068TIP3    H233696   0.208   2.884   0.625  1.7586  2.6625 -0.5136
 4069TIP3   OH233697   4.868   1.218   4.676  0.2261 -0.3983  0.3511
 4069TIP3    H133698   4.812   1.187   4.748  0.1406  0.1998  0.5507
 4069TIP3    H233699   4.862   1.150   4.609 -3.3162  1.1117 -0.9897
 4070TIP3   OH233700   2.348   3.443  16.259 -0.2739 -0.7069  0.2808
 4070TIP3    H133701   2.340   3.435  16.164  1.6267 -2.3770  0.2323
 4070TIP3    H233702   2.403   3.520  16.272 -1.5513  0.2669  0.1055
 4071TIP3   OH233703   6.507   4.841   0.646 -0.1466 -0.2167  0.0061
 4071TIP3    H133704   6.572   4.795   0.594 -1.6626 -0.1077 -2.0580
 4071TIP3    H233705   6.551   4.920   0.676  0.8937 -0.5190 -0.7043
 4072TIP3   OH233706   4.846   2.946  11.471 -0.1863  0.0656 -0.0076
 4072TIP3    H133707   4.818   2.879  11.408 -0.0247  0.5107 -0.5645
 4072TIP3    H233708   4.771   3.006  11.476 -0.3762 -0.2250  0.5800
 4073TIP3   OH233709   2.056   0.304   3.358  0.2637 -0.4380 -0.3910
 4073TIP3    H133710   2.064   0.245   3.433  0.0845 -0.4457 -0.3767
 4073TIP3    H233711   2.081   0.390   3.393 -0.6052 -0.2929 -0.1126
 4074TIP3   OH233712   0.362   4.390  10.425 -0.3886  0.1848  0.0905
 4074TIP3    H133713   0.399   4.364  10.510 -0.7816 -0.3588  0.1041
 4074TIP3    H233714   0.374   4.313  10.370 -1.0893  0.1624 -0.0339
 4075TIP3   OH233715   1.932   4.509  14.235  0.4697 -0.0728  0.0597
 4075TIP3    H133716   1.984   4.523  14.157  1.1442  0.2222  0.5562
 4075TIP3    H233717   1.965   4.427  14.272 -0.7869 -0.9458 -0.7012
 4076TIP3   OH233718   3.624   0.588  12.918 -0.1083  0.7746  0.1170
 4076TIP3    H133719   3.602   0.547  13.002  0.7703 -0.5861 -0.2910
 4076TIP3    H233720   3.715   0.617  12.930 -0.8205  2.9164  0.5024
 4077TIP3   OH233721   0.105   6.480   5.827  0.0255  0.3621 -0.7086
 4077TIP3    H133722   0.113   6.476   5.923  0.0911  3.4427 -0.5462
 4077TIP3    H233723   0.011   6.471   5.810 -0.3265  2.7555 -0.1418
 4078TIP3   OH233724   6.418   4.301  16.525  0.1845  0.2664  0.2046
 4078TIP3    H133725   6.340   4.354  16.543 -0.4237 -0.2961 -0.7629
 4078TIP3    H233726   6.491   4.356  16.554 -0.4885  1.2783  0.0159
 4079TIP3   OH233727   4.119   4.505  16.149  0.4111  0.2975  0.1881
 4079TIP3    H133728   4.084   4.526  16.063  0.3276  1.1276  0.4231
 4079TIP3    H233729   4.196   4.450  16.132 -0.0259 -0.1451 -0.3808
 4080TIP3   OH233730   0.017   0.499  13.363  0.1524 -0.5703  0.3446
 4080TIP3    H133731  -0.023   0.413  13.354 -1.8146  0.4356 -0.7506
 4080TIP3    H233732  -0.031   0.555  13.301  1.8769  1.1428  0.5081
 4081TIP3   OH233733   2.254   1.230  14.822 -0.0841 -0.1825  0.5467
 4081TIP3    H133734   2.192   1.242  14.750 -1.1258 -0.0419  1.4576
 4081TIP3    H233735   2.222   1.287  14.891  0.4602 -0.9047  1.4016
 4082TIP3   OH233736   1.642   4.484   3.767 -0.0459  0.2443  0.6613
 4082TIP3    H133737   1.665   4.551   3.703  0.1264  0.1585  0.6317
 4082TIP3    H233738   1.571   4.436   3.726 -0.0779  0.3237  0.6239
 4083TIP3   OH233739   6.103   3.656  14.576  0.5248  0.4338 -0.1270
 4083TIP3    H133740   6.048   3.696  14.643  1.1056  0.5936  0.2542
 4083TIP3    H233741   6.084   3.562  14.584 -0.2230  0.5525 -0.4760
 4084TIP3   OH233742   2.851   1.933   1.953 -0.4864  0.0297 -0.0562
 4084TIP3    H133743   2.789   1.898   2.018  1.5132  1.5556  2.7991
 4084TIP3    H233744   2.906   1.859   1.931 -1.2556 -0.5387 -0.0977
 4085TIP3   OH233745   2.907   5.559   2.489 -0.5090 -0.0598 -0.4418
 4085TIP3    H133746   2.858   5.540   2.409 -0.7361  0.9870 -0.5509
 4085TIP3    H233747   2.858   5.515   2.558 -0.2228 -1.1067 -0.8916
 4086TIP3   OH233748   4.118   4.591   0.507  0.3668 -0.1676 -0.4860
 4086TIP3    H133749   4.140   4.559   0.595  1.6084  0.3742 -0.5965
 4086TIP3    H233750   4.200   4.586   0.458 -0.4532 -1.0892 -1.8192
 4087TIP3   OH233751   0.251   2.486  14.944 -0.0817  0.2009 -0.2988
 4087TIP3    H133752   0.213   2.568  14.912 -2.1563 -0.2014  1.0273
 4087TIP3    H233753   0.188   2.419  14.919  0.6295 -0.7407  0.3864
 4088TIP3   OH233754   3.101   2.807   3.439  0.3225  0.3141 -0.6614
 4088TIP3    H133755   3.152   2.886   3.458 -3.4760  2.5866  0.5470
 4088TIP3    H233756   3.051   2.790   3.519 -1.4354 -1.3463 -2.0635
 4089TIP3   OH233757   4.601   0.010   3.159  0.1550  0.4561 -0.0508
 4089TIP3    H133758   4.634  -0.080   3.162 -0.2075  0.2457 -2.2532
 4089TIP3    H233759   4.681   0.064   3.158  0.3939  0.0954 -0.7218
 4090TIP3   OH233760   0.270   4.087  12.262 -0.3188  0.1937  0.5314
 4090TIP3    H133761   0.232   4.081  12.174  0.5148 -0.1672  0.1896
 4090TIP3    H233762   0.264   3.998  12.296 -0.1900  0.2342  0.6584
 4091TIP3   OH233763   3.108   1.987   1.441 -0.4715 -0.0426  0.0881
 4091TIP3    H133764   3.126   2.065   1.389 -0.9801  0.4472  0.6456
 4091TIP3    H233765   3.015   1.993   1.462 -0.6353 -1.0729 -0.3157
 4092TIP3   OH233766   6.619   0.664   0.454 -0.0560 -0.6843 -0.1916
 4092TIP3    H133767   6.631   0.686   0.362 -1.0489  0.6056 -0.0171
 4092TIP3    H233768   6.660   0.578   0.463  0.2681 -0.7109 -1.7785
 4093TIP3   OH233769   3.922   4.231  12.024  0.2193  0.8348 -0.1590
 4093TIP3    H133770   3.948   4.237  11.932 -1.3219 -0.6266 -0.7140
 4093TIP3    H233771   3.875   4.148  12.030 -1.0068  1.6239  1.6304
 4094TIP3   OH233772   0.283   5.180   5.494  0.2110 -0.0511  0.0176
 4094TIP3    H133773   0.210   5.119   5.483 -2.0870  2.3212  1.5817
 4094TIP3    H233774   0.320   5.157   5.579  2.0657 -1.9870 -1.2654
 4095TIP3   OH233775   5.681   6.163  13.486 -0.2671 -0.5165  0.3611
 4095TIP3    H133776   5.709   6.193  13.399  4.6183 -0.6814  1.7208
 4095TIP3    H233777   5.678   6.068  13.479  0.6586 -0.5626  0.4681
 4096TIP3   OH233778   5.276   5.208  14.876  0.0854  0.3494 -0.3539
 4096TIP3    H133779   5.336   5.282  14.864 -0.3687  0.4357 -2.2451
 4096TIP3    H233780   5.301   5.146  14.808 -2.7124  0.8977 -1.9570
 4097TIP3   OH233781   6.376   3.668   0.914  0.8219  0.2053  0.3026
 4097TIP3    H133782   6.401   3.703   1.000 -1.2633  1.2273  0.5335
 4097TIP3    H233783   6.426   3.587   0.905 -0.7874 -1.2714  3.6512
 4098TIP3   OH233784   2.067   5.887  12.341 -0.7543 -0.3359 -0.5187
 4098TIP3    H133785   2.086   5.817  12.405  1.4064  1.5854  1.0220
 4098TIP3    H233786   2.091   5.849  12.257 -1.3126 -2.0667  0.0651
 4099TIP3   OH233787   5.409   4.241   3.928  0.0637 -0.3813  0.3188
 4099TIP3    H133788   5.455   4.204   4.003 -1.0149 -0.1470  1.0986
 4099TIP3    H233789   5.379   4.326   3.958 -0.4468 -0.3257 -0.3557
 4100TIP3   OH233790   2.298   4.284   1.070 -0.4313 -1.0008  0.7937
 4100TIP3    H133791   2.306   4.205   1.016  1.7301 -0.6635  0.5445
 4100TIP3    H233792   2.368   4.275   1.135  1.1606  1.5957 -0.4653
 4101TIP3   OH233793   4.105   2.529   3.168  0.3729 -0.5626 -0.2662
 4101TIP3    H133794   4.115   2.461   3.102 -1.8552  0.8928 -2.1996
 4101TIP3    H233795   4.119   2.611   3.120 -2.6022  0.5949  0.6868
 4102TIP3   OH233796   1.340   2.890  13.895  0.5542 -0.4660 -0.0608
 4102TIP3    H133797   1.283   2.820  13.865 -0.0377 -0.6172  1.4025
 4102TIP3    H233798   1.405   2.847  13.950 -0.2866  0.2267  1.4920
 4103TIP3   OH233799   1.001   4.104   1.484  0.4893  0.2951 -0.4465
 4103TIP3    H133800   1.061   4.097   1.558  0.1647  4.2330  0.2920
 4103TIP3    H233801   0.915   4.081   1.520  0.8223 -0.8468 -0.3770
 4104TIP3   OH233802   0.657   1.415  14.799 -0.1242 -0.1198 -0.3945
 4104TIP3    H133803   0.633   1.507  14.784  3.1046  0.3500 -3.1623
 4104TIP3    H233804   0.620   1.368  14.725 -0.2752 -0.7789  0.1001
 4105TIP3   OH233805   5.748   3.175  11.543  0.1227 -0.0853  0.2359
 4105TIP3    H133806   5.812   3.105  11.529  1.1853  1.5087 -3.4541
 4105TIP3    H233807   5.664   3.131  11.541  0.8778 -1.5630  0.2770
 4106TIP3   OH233808   5.252   5.268  13.664  0.0821  0.0859  0.0395
 4106TIP3    H133809   5.182   5.278  13.728 -0.8377  1.6004 -1.1711
 4106TIP3    H233810   5.286   5.357  13.651 -2.2646  0.4796 -4.3475
 4107TIP3   OH233811   3.225   2.361  16.450  0.2381  0.0040  0.4812
 4107TIP3    H133812   3.173   2.281  16.456  1.3549 -0.8848 -1.3739
 4107TIP3    H233813   3.312   2.336  16.478  0.4073  0.7720  0.6669
 4108TIP3   OH233814   3.560   4.867   0.177  0.2664  0.0319 -1.0786
 4108TIP3    H133815   3.613   4.834   0.250  0.3031  2.6752  0.1382
 4108TIP3    H233816   3.622   4.878   0.105  1.0119  1.1925 -0.2761
 4109TIP3   OH233817   0.156   3.548  13.949 -0.5964 -0.1357 -0.1211
 4109TIP3    H133818   0.118   3.570  13.864  2.3544  1.0505 -1.2041
 4109TIP3    H233819   0.201   3.464  13.934 -2.0523 -1.1464  0.9481
 4110TIP3   OH233820   0.208   2.333   4.519  0.1416 -0.2745 -0.6450
 4110TIP3    H133821   0.211   2.422   4.484 -1.9254 -0.3619 -1.0989
 4110TIP3    H233822   0.129   2.331   4.574  0.4586 -1.6670 -0.2105
 4111TIP3   OH233823   3.561   5.241  11.307  0.1012  0.0251 -0.2230
 4111TIP3    H133824   3.646   5.222  11.267  0.2641 -0.1113  0.1777
 4111TIP3    H233825   3.580   5.246  11.401 -0.0235  1.7352 -0.2733
 4112TIP3   OH233826   5.972   1.722  17.138 -0.5705  0.0170  0.0359
 4112TIP3    H133827   6.029   1.795  17.115 -1.5822  0.8417  0.1096
 4112TIP3    H233828   6.015   1.645  17.100  0.5844  0.6209  0.0953
 4113TIP3   OH233829   0.561   1.408  15.858  0.2300 -0.1218  0.2966
 4113TIP3    H133830   0.635   1.347  15.861 -0.2623 -0.7423 -0.0785
 4113TIP3    H233831   0.509   1.379  15.783 -0.1757  0.5732  0.3025
 4114TIP3   OH233832   4.933   1.668  12.595  0.2119  0.8751 -0.0861
 4114TIP3    H133833   4.894   1.593  12.640 -1.6191  2.9575  1.9276
 4114TIP3    H233834   5.007   1.694  12.651  0.6415  0.7838 -0.6053
 4115TIP3   OH233835   3.377   1.945  14.637  0.1646 -0.4341  0.5562
 4115TIP3    H133836   3.326   1.895  14.701 -0.1332 -0.7386  0.0848
 4115TIP3    H233837   3.391   1.884  14.565 -0.9943  0.4476 -0.4311
 4116TIP3   OH233838   5.542   6.359   5.021  0.1341  0.0943  0.1560
 4116TIP3    H133839   5.461   6.326   5.060  0.2340 -0.5328 -0.1539
 4116TIP3    H233840   5.541   6.324   4.931  0.1233  1.1472 -0.2561
 4117TIP3   OH233841   2.880   2.669  11.165  0.3664  0.1473  0.4825
 4117TIP3    H133842   2.860   2.696  11.075 -0.3294 -1.2409  0.2151
 4117TIP3    H233843   2.923   2.585  11.156 -1.7040 -1.0666  1.5577
 4118TIP3   OH233844   4.005   1.015   2.871 -0.0186  0.6180  0.1531
 4118TIP3    H133845   4.056   1.012   2.791  2.0591  1.2551  1.4049
 4118TIP3    H233846   4.063   0.980   2.938 -1.6888  0.1654  1.4044
 4119TIP3   OH233847   4.283   3.166   0.967 -0.6768 -0.4693  0.1104
 4119TIP3    H133848   4.313   3.181   1.056 -0.3248  1.0966 -0.2559
 4119TIP3    H233849   4.206   3.222   0.958 -0.0072  0.3247 -0.9298
 4120TIP3   OH233850   3.304   6.569  11.204  0.1684 -0.4875 -0.0645
 4120TIP3    H133851   3.308   6.474  11.217 -1.7483 -0.5725  0.0809
 4120TIP3    H233852   3.219   6.584  11.162  0.9540  1.0620 -1.1340
 4121TIP3   OH233853   2.499   1.249   4.595 -0.1819  0.2933  0.1272
 4121TIP3    H133854   2.478   1.330   4.547 -1.0409  0.2019  0.3372
 4121TIP3    H233855   2.450   1.181   4.548  0.9107 -0.1842 -0.3321
 4122TIP3   OH233856   1.458   0.767   0.634 -0.1406  0.3539  0.1295
 4122TIP3    H133857   1.542   0.722   0.642  0.1153  0.4790 -1.7598
 4122TIP3    H233858   1.415   0.751   0.718  2.2205  1.2488  1.5436
 4123TIP3   OH233859   0.366   2.346   5.084 -0.1107 -1.2947 -0.3653
 4123TIP3    H133860   0.342   2.436   5.064  1.8946 -0.7990 -0.6657
 4123TIP3    H233861   0.334   2.295   5.010 -0.2008 -0.6595 -0.7648
 4124TIP3   OH233862   2.844   3.317  14.705 -0.6409  0.1911  0.0184
 4124TIP3    H133863   2.938   3.312  14.725 -0.3614  0.2857 -1.2460
 4124TIP3    H233864   2.804   3.253  14.764  0.4305 -1.1646 -0.6769
 4125TIP3   OH233865   4.388   0.263  13.586  0.4917 -0.2234  0.0633
 4125TIP3    H133866   4.332   0.200  13.541  2.0734 -0.5840 -1.4893
 4125TIP3    H233867   4.341   0.346  13.579  0.3598 -0.4179 -1.6856
 4126TIP3   OH233868   4.416   2.220  11.523  0.3904 -0.1105  0.1192
 4126TIP3    H133869   4.431   2.146  11.582  1.9844 -0.3945 -0.6321
 4126TIP3    H233870   4.441   2.297  11.574  0.9930 -0.2888  0.0921
 4127TIP3   OH233871   6.081   6.165   3.450  0.2174 -0.2675  0.3047
 4127TIP3    H133872   6.049   6.095   3.394  0.6684  0.4638 -0.8892
 4127TIP3    H233873   6.166   6.189   3.412  0.6823  0.0318  1.4910
 4128TIP3   OH233874   4.244   1.016  12.696 -0.2823  0.3901 -0.4535
 4128TIP3    H133875   4.322   0.966  12.722 -0.5241 -0.5289 -1.4569
 4128TIP3    H233876   4.221   1.066  12.774  1.7025  1.1802 -0.3619
 4129TIP3   OH233877   4.950   2.736   0.562 -0.2851  0.1138 -0.2184
 4129TIP3    H133878   4.933   2.755   0.470  2.4250  1.3918 -0.5186
 4129TIP3    H233879   4.975   2.643   0.563 -0.2458  0.1163 -0.7847
 4130TIP3   OH233880   6.454   3.021  13.153 -0.4904  0.4178 -0.0230
 4130TIP3    H133881   6.514   3.014  13.079 -1.2700 -1.5291 -0.5133
 4130TIP3    H233882   6.424   3.112  13.152  0.2073  0.6343 -1.5508
 4131TIP3   OH233883   2.964   3.742   5.701  0.2101  0.1106  0.6639
 4131TIP3    H133884   2.890   3.683   5.688  0.9223 -0.4513 -0.9890
 4131TIP3    H233885   2.956   3.771   5.792 -1.1888 -1.0897  0.9413
 4132TIP3   OH233886   6.139   2.356  16.824  0.0142  0.4292 -0.2121
 4132TIP3    H133887   6.052   2.317  16.822 -0.6329  1.6148  2.3953
 4132TIP3    H233888   6.200   2.283  16.813 -1.2281 -0.9493  1.9580
 4133TIP3   OH233889   2.625   5.464  15.192  0.2906 -0.2582 -0.0234
 4133TIP3    H133890   2.689   5.528  15.225  0.0480  0.0384 -0.1210
 4133TIP3    H233891   2.586   5.427  15.271 -0.8307  0.9983  0.0423
 4134TIP3   OH233892   6.035   6.766   5.559  0.0563 -0.4463  0.2117
 4134TIP3    H133893   5.942   6.778   5.578 -0.4940 -0.0934 -2.4497
 4134TIP3    H233894   6.066   6.853   5.534  1.1542 -0.5282  1.2408
 4135TIP3   OH233895   3.032   3.032   1.074  0.1045  0.2122 -0.4576
 4135TIP3    H133896   3.078   3.082   1.141 -2.1797 -0.2719  1.5290
 4135TIP3    H233897   2.945   3.071   1.070 -0.6430 -1.4807 -1.2624
 4136TIP3   OH233898   6.750   1.687   2.414 -0.5089 -0.1737  0.0156
 4136TIP3    H133899   6.781   1.619   2.355  0.7780  0.8443 -0.5045
 4136TIP3    H233900   6.674   1.725   2.370  0.5457  0.6956 -1.0863
 4137TIP3   OH233901   4.636   3.607   2.814  0.0136 -0.3582 -0.2711
 4137TIP3    H133902   4.647   3.584   2.722  0.7912 -1.9430  0.1947
 4137TIP3    H233903   4.541   3.614   2.825  0.0134  3.6884 -2.0461
 4138TIP3   OH233904   2.547   0.414   4.633 -0.3525  0.3083 -0.2526
 4138TIP3    H133905   2.589   0.379   4.711 -0.2586 -1.2692 -0.9878
 4138TIP3    H233906   2.610   0.475   4.596  0.2041 -0.0467  0.1088
 4139TIP3   OH233907   6.034   4.900   0.608 -0.0029  0.5887 -0.0878
 4139TIP3    H133908   6.044   4.945   0.692 -0.3927  0.8741 -0.1953
 4139TIP3    H233909   6.016   4.970   0.545 -3.7688  0.0182  0.2573
 4140TIP3   OH233910   5.662   3.960  11.908  0.4541  0.3596  0.3882
 4140TIP3    H133911   5.701   3.879  11.942  2.3335  0.1639 -2.0637
 4140TIP3    H233912   5.655   4.018  11.984  2.4182 -0.8389  1.5154
 4141TIP3   OH233913   6.403   3.988   4.259 -0.5195 -0.2546  0.4152
 4141TIP3    H133914   6.482   4.008   4.209 -0.3752  1.7237  1.3743
 4141TIP3    H233915   6.331   4.008   4.199 -0.3187 -0.6931  0.0229
 4142TIP3   OH233916   1.212   3.126  12.864 -0.1027 -0.1055 -0.0865
 4142TIP3    H133917   1.183   3.036  12.855  1.2525 -0.4032 -1.8236
 4142TIP3    H233918   1.167   3.173  12.794  1.4230 -0.0370 -1.0473
 4143TIP3   OH233919   5.733   3.168  14.770  0.5821 -0.9639  0.3178
 4143TIP3    H133920   5.817   3.160  14.816  0.9234  1.6280  0.1816
 4143TIP3    H233921   5.708   3.260  14.779 -1.4312 -1.3227 -1.0978
 4144TIP3   OH233922   1.132   3.137  13.798  0.0391  0.1264 -0.2210
 4144TIP3    H133923   1.193   3.198  13.756 -0.1343  0.7165  0.3737
 4144TIP3    H233924   1.187   3.080  13.851  0.1916 -0.1755 -0.6954
 4145TIP3   OH233925   4.608   0.887   1.884 -0.3519  0.1909  0.5358
 4145TIP3    H133926   4.680   0.825   1.880  2.0698  2.8366  1.6665
 4145TIP3    H233927   4.607   0.918   1.975 -2.3224  0.9104  0.3077
 4146TIP3   OH233928   3.571   0.472  12.667 -0.2714  0.0950 -0.4895
 4146TIP3    H133929   3.651   0.425  12.645  0.2666  0.0993  1.4030
 4146TIP3    H233930   3.589   0.511  12.753 -2.1185  0.5043 -0.2734
 4147TIP3   OH233931   2.000   2.486   3.949 -0.0918  0.3633 -0.0004
 4147TIP3    H133932   2.015   2.491   4.043 -0.2466  0.6724  0.0091
 4147TIP3    H233933   1.916   2.531   3.936 -0.2541 -0.0077 -0.2380
 4148TIP3   OH233934   0.858   4.013  16.854  0.1347 -0.3206 -0.6732
 4148TIP3    H133935   0.780   4.068  16.859  0.7006  0.3670  0.9319
 4148TIP3    H233936   0.864   3.988  16.761 -1.9313 -0.3228 -0.8284
 4149TIP3   OH233937   4.050   5.667  16.823 -0.3435  0.1159  0.0812
 4149TIP3    H133938   4.062   5.584  16.868  1.4886  0.2251 -0.1929
 4149TIP3    H233939   3.989   5.647  16.752 -0.6919 -0.7546  0.6182
 4150TIP3   OH233940   6.672   0.700   4.262 -0.2602 -0.3696 -0.6267
 4150TIP3    H133941   6.677   0.605   4.252  1.1057 -0.3886  0.0385
 4150TIP3    H233942   6.750   0.733   4.217 -1.0870  0.4956 -1.4467
 4151TIP3   OH233943   4.689   1.768   6.184  0.1034 -0.0116 -0.0892
 4151TIP3    H133944   4.709   1.779   6.091  0.9887  1.5255  0.2585
 4151TIP3    H233945   4.622   1.834   6.201 -0.3902 -0.6067  0.2592
 4152TIP3   OH233946   3.948   0.123   5.628 -0.0603 -0.1896 -0.4593
 4152TIP3    H133947   3.938   0.092   5.717 -1.0060  0.4761 -0.3324
 4152TIP3    H233948   3.927   0.216   5.632 -0.4255 -0.2258 -1.4369
 4153TIP3   OH233949   1.498   5.567  15.713 -0.1823  0.6663 -0.1507
 4153TIP3    H133950   1.583   5.548  15.752 -0.6440 -0.1194  0.4976
 4153TIP3    H233951   1.517   5.585  15.621  0.3712 -2.3571 -0.6754
 4154TIP3   OH233952   2.282   2.763  15.052  0.7994  0.1035 -0.6829
 4154TIP3    H133953   2.202   2.718  15.027  1.3253 -1.0236 -0.3769
 4154TIP3    H233954   2.262   2.800  15.138 -0.0356  1.5009 -1.4677
 4155TIP3   OH233955   0.911   5.162  11.490 -0.4200 -0.2818 -0.2299
 4155TIP3    H133956   0.963   5.210  11.425  0.0404 -0.0861  0.2801
 4155TIP3    H233957   0.974   5.105  11.533 -0.7230 -0.3955  0.0607
 4156TIP3   OH233958   0.344   3.604   3.580 -0.3497 -0.1628 -0.1461
 4156TIP3    H133959   0.311   3.626   3.667  0.6311 -0.8915  0.4217
 4156TIP3    H233960   0.430   3.647   3.575 -0.8185  0.6873 -1.1322
 4157TIP3   OH233961   1.655   0.244  11.924 -0.6186 -0.2298  0.2786
 4157TIP3    H133962   1.700   0.160  11.922 -1.3252 -0.6226  0.4920
 4157TIP3    H233963   1.573   0.229  11.876 -1.2882  0.0108  1.3211
 4158TIP3   OH233964   3.139   3.099  14.571 -0.1067 -0.1174  0.1336
 4158TIP3    H133965   3.225   3.065  14.596 -0.2121 -0.2718  0.2891
 4158TIP3    H233966   3.143   3.192  14.591 -0.3394 -0.3220  1.1357
 4159TIP3   OH233967   5.880   5.797   0.939 -0.8009 -0.3358  1.2493
 4159TIP3    H133968   5.826   5.874   0.958 -2.3768 -0.9868 -0.4205
 4159TIP3    H233969   5.838   5.726   0.986 -0.1186 -0.4529  1.6957
 4160TIP3   OH233970   3.596   5.950   5.434 -0.9907  0.0669  1.2909
 4160TIP3    H133971   3.627   5.949   5.343  2.3374 -0.9956  2.3843
 4160TIP3    H233972   3.542   6.029   5.439  1.8741  2.2569 -0.6659
 4161TIP3   OH233973   4.690   3.035  13.804 -0.1495  0.3198 -0.0525
 4161TIP3    H133974   4.694   2.940  13.817  0.1889  0.5152  1.3384
 4161TIP3    H233975   4.642   3.046  13.722 -1.9020 -1.0136  0.7394
 4162TIP3   OH233976   3.467   3.105  11.624  0.4919 -0.7830 -0.0711
 4162TIP3    H133977   3.383   3.119  11.580  0.8445 -1.3312 -0.9244
 4162TIP3    H233978   3.495   3.018  11.595  1.1063 -0.8205  0.6236
 4163TIP3   OH233979   3.749   2.887   5.240  0.7566  0.5545  0.4925
 4163TIP3    H133980   3.782   2.892   5.151  0.8270  1.2776  0.5552
 4163TIP3    H233981   3.683   2.818   5.237  1.8370 -0.4849  0.2341
 4164TIP3   OH233982   6.087   0.210  16.431 -0.1380  0.2321  0.0046
 4164TIP3    H133983   6.081   0.194  16.525  2.4091  0.3677  0.2157
 4164TIP3    H233984   6.180   0.211  16.413 -0.6201 -1.2284 -2.8045
 4165TIP3   OH233985   3.071   6.480   3.643  0.2611  0.1084 -0.1357
 4165TIP3    H133986   3.133   6.425   3.690 -0.6966 -0.0177  0.9862
 4165TIP3    H233987   3.071   6.445   3.554  2.5554  0.7590 -0.4290
 4166TIP3   OH233988   0.970   1.680   3.187 -0.5073 -0.1870  0.0172
 4166TIP3    H133989   1.006   1.669   3.275 -0.6200 -2.8051 -0.2502
 4166TIP3    H233990   1.026   1.626   3.131 -1.2831  0.3704 -1.3084
 4167TIP3   OH233991   0.417   3.908   2.962  0.1449  0.6343 -0.1803
 4167TIP3    H133992   0.407   3.836   2.900  2.8098  0.0258 -0.0004
 4167TIP3    H233993   0.351   3.972   2.936 -0.2306 -0.5463 -2.2691
 4168TIP3   OH233994   0.782   6.533   5.300  0.7062  0.3511 -0.3175
 4168TIP3    H133995   0.733   6.577   5.231  1.5899 -0.4764 -1.4846
 4168TIP3    H233996   0.715   6.491   5.354  0.0385  0.6987 -0.8748
 4169TIP3   OH233997   5.105   3.545  11.902  0.1807 -0.3399 -0.3886
 4169TIP3    H133998   5.086   3.463  11.947 -0.2524 -0.1945 -0.2996
 4169TIP3    H233999   5.055   3.539  11.820  1.0567 -0.6567 -0.9059
 4170TIP3   OH234000   5.265   4.279  14.561 -0.7569 -0.2102 -0.1316
 4170TIP3    H134001   5.346   4.279  14.510  0.3291 -0.3820  1.5466
 4170TIP3    H234002   5.240   4.371  14.566  0.1316  0.0081  0.5286
 4171TIP3   OH234003   4.431   3.718  13.502 -0.3111 -0.3124  0.1454
 4171TIP3    H134004   4.419   3.627  13.529  2.7811 -1.6918 -2.7001
 4171TIP3    H234005   4.518   3.742  13.535  0.1320  0.5860 -1.6049
 4172TIP3   OH234006   1.685   6.064   5.163  0.4920  0.5208  0.0528
 4172TIP3    H134007   1.619   5.996   5.180  1.4751 -0.5142 -0.1774
 4172TIP3    H234008   1.638   6.146   5.175 -2.0442 -0.0911 -4.3967
 4173TIP3   OH234009   2.586   5.135  14.502 -0.4553  0.0822  0.3543
 4173TIP3    H134010   2.532   5.126  14.580  0.8307 -3.1239  0.9566
 4173TIP3    H234011   2.584   5.048  14.461 -0.2024  1.4099 -2.5765
 4174TIP3   OH234012   0.630   2.073   0.661 -0.5360 -0.1060  0.2211
 4174TIP3    H134013   0.692   2.138   0.694 -0.6328  0.0374  0.1238
 4174TIP3    H234014   0.685   2.002   0.629 -0.3794  0.4022 -0.6781
 4175TIP3   OH234015   0.180   5.499   2.377  0.0896  0.1889 -1.0328
 4175TIP3    H134016   0.087   5.483   2.389  0.2368  0.9876  1.2670
 4175TIP3    H234017   0.207   5.434   2.311 -1.7404 -1.0864 -0.5511
 4176TIP3   OH234018   2.102   2.882  16.634 -0.3947  0.3756  0.7292
 4176TIP3    H134019   2.080   2.907  16.723  0.4351  0.5151  0.9040
 4176TIP3    H234020   2.196   2.863  16.638 -0.4964 -0.2716  0.0395
 4177TIP3   OH234021   5.114   1.383  11.995  0.1654 -0.2673 -0.5697
 4177TIP3    H134022   5.059   1.311  11.962  1.8629 -2.0755  0.4406
 4177TIP3    H234023   5.179   1.396  11.926  0.4187 -0.3314 -0.3432
 4178TIP3   OH234024   6.536   3.942  14.579  0.4273  0.2201 -0.0121
 4178TIP3    H134025   6.608   3.898  14.623 -0.2801 -0.9761 -0.0456
 4178TIP3    H234026   6.468   3.949  14.645 -0.1586 -0.4270 -0.5401
 4179TIP3   OH234027   0.385   3.400   5.721  0.0150 -0.3296 -0.2169
 4179TIP3    H134028   0.311   3.446   5.681 -1.1473 -1.4741  0.5633
 4179TIP3    H234029   0.346   3.324   5.763  1.5499 -0.5625  0.8477
 4180TIP3   OH234030   6.072   1.147   3.260 -0.1492 -0.5011 -0.0716
 4180TIP3    H134031   6.162   1.165   3.286  0.0794  0.8986 -1.7341
 4180TIP3    H234032   6.080   1.118   3.169 -1.4917  1.0127 -0.6855
 4181TIP3   OH234033   6.762   1.514   2.215 -0.3420 -0.1219 -0.2822
 4181TIP3    H134034   6.819   1.443   2.243 -0.9436 -0.6001 -0.2576
 4181TIP3    H234035   6.778   1.522   2.121  0.0539  0.0120 -0.2054
 4182TIP3   OH234036   0.140   2.154   0.778  0.3043  0.3229 -0.1783
 4182TIP3    H134037   0.221   2.112   0.749  0.4658 -0.2762  1.1347
 4182TIP3    H234038   0.169   2.220   0.841 -0.2182  0.1594  0.2349
 4183TIP3   OH234039   5.567   6.504  10.747 -0.0040  0.4996 -0.1480
 4183TIP3    H134040   5.554   6.422  10.700 -0.1761  0.6455 -0.3550
 4183TIP3    H234041   5.661   6.519  10.744  0.0450  0.2352  0.0192
 4184TIP3   OH234042   4.078   4.437   3.668 -0.3556  0.3736  0.5412
 4184TIP3    H134043   4.030   4.416   3.748  0.8324  0.3399  1.2703
 4184TIP3    H234044   4.014   4.426   3.598 -1.3530  0.1611  1.4622
 4185TIP3   OH234045   5.264   2.927  11.967  0.0778 -0.3825 -0.0842
 4185TIP3    H134046   5.287   2.876  12.044  1.0916  1.0969  0.6149
 4185TIP3    H234047   5.173   2.904  11.949 -0.2861 -0.4666  1.7882
 4186TIP3   OH234048   4.784   3.878  12.378 -0.2170  0.2300 -0.2632
 4186TIP3    H134049   4.825   3.939  12.317 -0.2460 -0.1630 -0.6820
 4186TIP3    H234050   4.785   3.923  12.462  1.0155  0.2466 -0.2772
 4187TIP3   OH234051   0.125   0.158  13.336  0.4812  0.2105 -0.0297
 4187TIP3    H134052   0.092   0.168  13.247 -0.2756 -0.7851  0.1328
 4187TIP3    H234053   0.070   0.090  13.375  1.1250  0.2843  1.0399
 4188TIP3   OH234054   0.524   4.352  12.825  0.2004 -0.2684  0.3522
 4188TIP3    H134055   0.543   4.282  12.887 -1.3923  0.0232  1.1983
 4188TIP3    H234056   0.542   4.433  12.873  1.4239 -0.0699 -0.4141
 4189TIP3   OH234057   2.861   5.164   1.650  0.0330  0.0537  0.0969
 4189TIP3    H134058   2.766   5.161   1.662  0.1419  1.8527  1.7824
 4189TIP3    H234059   2.891   5.076   1.673 -1.0558  0.0156  1.4640
 4190TIP3   OH234060   4.310   2.174   4.107 -0.4192  0.2768  0.2733
 4190TIP3    H134061   4.343   2.093   4.068 -1.8315  0.2621 -0.9329
 4190TIP3    H234062   4.226   2.189   4.064 -0.9640  1.4749  1.7249
 4191TIP3   OH234063   0.121   6.636   6.224  0.1612 -0.4892 -0.6034
 4191TIP3    H134064   0.151   6.621   6.135  2.0696 -1.6597  0.2175
 4191TIP3    H234065   0.051   6.571   6.237 -0.5417  0.0895 -1.4277
 4192TIP3   OH234066   2.245   4.953   2.088  0.2454 -0.0399 -0.4693
 4192TIP3    H134067   2.321   4.995   2.130  0.7978  0.1244 -1.6041
 4192TIP3    H234068   2.188   4.927   2.161  0.3547  1.8130  0.3099
 4193TIP3   OH234069   4.518   0.557  13.044  0.4418 -0.0501  0.0828
 4193TIP3    H134070   4.454   0.554  12.973 -1.3113  0.6487  1.5776
 4193TIP3    H234071   4.561   0.642  13.034  0.1001  0.1042 -0.0629
 4194TIP3   OH234072   3.193   6.753  17.093  0.0018  0.3726 -0.3007
 4194TIP3    H134073   3.165   6.806  17.018 -0.0025  0.7309 -0.0476
 4194TIP3    H234074   3.235   6.676  17.053  1.8925  1.5557 -0.6944
 4195TIP3   OH234075   2.188   2.125   0.518 -0.3755 -0.1260 -0.4384
 4195TIP3    H134076   2.116   2.069   0.488 -0.5640  0.4551 -1.0975
 4195TIP3    H234077   2.176   2.207   0.469  0.2180  0.2888  0.1037
 4196TIP3   OH234078   3.192   4.929  12.177 -0.2099 -0.1577 -0.4395
 4196TIP3    H134079   3.283   4.958  12.170  0.8784 -2.6440  2.5183
 4196TIP3    H234080   3.193   4.838  12.150 -1.9885 -0.0125 -1.0784
 4197TIP3   OH234081   2.162   1.822   5.926 -0.2174  0.8449  0.4553
 4197TIP3    H134082   2.068   1.836   5.922 -0.1674  1.3626  0.9665
 4197TIP3    H234083   2.173   1.745   5.981 -0.3203  1.1218  0.8670
 4198TIP3   OH234084   6.217   4.743  13.289 -0.1900  0.1842 -0.4362
 4198TIP3    H134085   6.191   4.730  13.198 -0.5381  0.4083 -0.3699
 4198TIP3    H234086   6.274   4.669  13.309  2.5122  1.7979 -1.8258
 4199TIP3   OH234087   4.970   4.363  16.611 -0.6133 -0.2560 -0.1060
 4199TIP3    H134088   4.911   4.310  16.664  0.7989 -1.0640  0.6963
 4199TIP3    H234089   4.957   4.332  16.521  0.6061 -2.3778  0.4228
 4200TIP3   OH234090   1.886   5.213   4.288  0.0007  0.9635  0.6969
 4200TIP3    H134091   1.813   5.266   4.321  0.1476  2.2746 -0.9977
 4200TIP3    H234092   1.946   5.206   4.362 -1.7399  0.0340  2.0643
 4201TIP3   OH234093   6.311   6.118  11.893  0.4257  0.3551 -0.1305
 4201TIP3    H134094   6.257   6.144  11.968  1.3779 -0.0052  0.6891
 4201TIP3    H234095   6.371   6.191  11.880  0.6565  0.1618 -0.1574
 4202TIP3   OH234096   6.181   6.458   3.360  0.3271 -0.3659  0.0974
 4202TIP3    H134097   6.121   6.499   3.298  1.6229  2.5349  0.7068
 4202TIP3    H234098   6.138   6.467   3.445  0.8173  0.1611  0.2942
 4203TIP3   OH234099   6.700   6.599   0.339 -0.0964 -0.5679  0.0828
 4203TIP3    H134100   6.744   6.514   0.335 -1.5097 -1.3638  1.1591
 4203TIP3    H234101   6.630   6.587   0.402 -0.3161  1.4127  0.2493
 4204TIP3   OH234102   3.691   2.923   2.265 -0.2717  0.2158  0.1915
 4204TIP3    H134103   3.705   2.845   2.318 -1.0280  0.0938  0.2228
 4204TIP3    H234104   3.675   2.993   2.328  1.3055  0.5960  0.1937
 4205TIP3   OH234105   0.765   2.441   2.930 -0.1942 -0.1676 -0.4354
 4205TIP3    H134106   0.699   2.398   2.875 -1.1766 -0.2018  0.7579
 4205TIP3    H234107   0.817   2.369   2.966  0.8077 -0.1148 -1.7555
 4206TIP3   OH234108   5.673   4.246  11.482  0.0357 -0.1244 -0.2283
 4206TIP3    H134109   5.696   4.188  11.409  2.3210 -0.0418  0.3929
 4206TIP3    H234110   5.675   4.190  11.559 -1.4618 -0.0078 -0.0935
 4207TIP3   OH234111   6.421   3.856   0.415  0.0321  1.2127 -0.3511
 4207TIP3    H134112   6.447   3.833   0.504  1.9360  0.5284 -1.0681
 4207TIP3    H234113   6.326   3.868   0.421 -0.0401 -0.0090  1.5042
 4208TIP3   OH234114   3.303   2.428   4.613 -0.5307 -0.1384  0.0314
 4208TIP3    H134115   3.320   2.436   4.519 -1.3943  0.5105 -0.0756
 4208TIP3    H234116   3.355   2.352   4.640  0.6801  0.3992 -0.7283
 4209TIP3   OH234117   6.257   1.801  16.139 -0.3247  0.3075  0.3161
 4209TIP3    H134118   6.226   1.822  16.051 -1.9032 -0.2203  0.7369
 4209TIP3    H234119   6.292   1.884  16.172  1.0082  0.3264 -1.0899
 4210TIP3   OH234120   2.723   0.076  14.430  0.8423 -0.3007 -0.1022
 4210TIP3    H134121   2.679  -0.006  14.407 -0.2500  0.1880  0.2125
 4210TIP3    H234122   2.815   0.052  14.441  0.6646 -1.3307 -0.8019
 4211TIP3   OH234123   1.845   1.735   4.571 -0.1423 -0.1474 -0.3233
 4211TIP3    H134124   1.923   1.725   4.517  1.0786  0.5287  1.2503
 4211TIP3    H234125   1.795   1.655   4.557  0.3272 -0.1371 -2.1409
 4212TIP3   OH234126   1.507   5.769  15.049  0.0538 -0.0794 -0.1229
 4212TIP3    H134127   1.525   5.758  14.955 -0.0253  0.1137 -0.1620
 4212TIP3    H234128   1.452   5.847  15.053 -0.3833 -0.3939  0.0346
 4213TIP3   OH234129   2.983   1.608   0.476 -0.0447 -0.2303  0.1627
 4213TIP3    H134130   2.979   1.667   0.400  1.1158 -0.6087 -0.2138
 4213TIP3    H234131   2.903   1.626   0.525 -1.2361 -0.5765 -1.6032
 4214TIP3   OH234132   2.304   5.892   1.048 -0.2845  0.1631  0.1956
 4214TIP3    H134133   2.253   5.838   1.108  0.7095 -0.7993  0.2064
 4214TIP3    H234134   2.292   5.982   1.079 -1.9819 -0.0425  0.1585
 4215TIP3   OH234135   1.283   3.142  15.239  0.5331 -0.7017  0.1060
 4215TIP3    H134136   1.258   3.055  15.209  0.9922 -1.2573  1.2823
 4215TIP3    H234137   1.206   3.175  15.285  0.4695 -0.6211 -0.0586
 4216TIP3   OH234138   2.608   5.925  12.464  0.0604  0.0065  0.8463
 4216TIP3    H134139   2.573   5.850  12.511 -0.2574 -0.1869  0.3114
 4216TIP3    H234140   2.531   5.978  12.442  0.3009  0.5954  1.3942
 4217TIP3   OH234141   4.690   3.540   2.570 -0.3044  0.3151  0.3120
 4217TIP3    H134142   4.650   3.468   2.520 -1.8377  0.4554  1.3099
 4217TIP3    H234143   4.680   3.617   2.514 -0.5426  0.1518  0.1285
 4218TIP3   OH234144   2.729   6.311   5.824 -0.0744 -0.5469 -0.8595
 4218TIP3    H134145   2.679   6.392   5.834  2.1391  0.7852 -0.1708
 4218TIP3    H234146   2.668   6.242   5.849 -1.3704  1.0870  0.6064
 4219TIP3   OH234147   0.608   1.642  16.546 -0.0531 -0.2621 -0.0784
 4219TIP3    H134148   0.647   1.609  16.465 -0.8619  0.5416 -0.8154
 4219TIP3    H234149   0.591   1.735  16.529 -1.5192 -0.3979  0.5018
 4220TIP3   OH234150   4.370   1.097   4.917  0.4725 -0.3109  0.2570
 4220TIP3    H134151   4.438   1.164   4.912  0.6135 -0.5216 -0.8783
 4220TIP3    H234152   4.407   1.028   4.972  1.7088 -1.0203 -1.4219
 4221TIP3   OH234153   3.905   5.642   5.260  0.0527 -0.9999  0.2186
 4221TIP3    H134154   3.970   5.704   5.227 -0.5257 -0.2722  0.4136
 4221TIP3    H234155   3.954   5.581   5.314  0.3201  0.6753  1.9121
 4222TIP3   OH234156   6.138   5.375   1.826  0.2284 -0.2004  0.1206
 4222TIP3    H134157   6.048   5.370   1.794 -0.5360 -0.2231  2.2154
 4222TIP3    H234158   6.156   5.287   1.860  1.1892 -0.3125 -0.6616
 4223TIP3   OH234159   5.000   5.097  14.145 -0.3285  0.3561 -0.1074
 4223TIP3    H134160   5.019   5.018  14.196 -2.4160 -0.5549 -0.7037
 4223TIP3    H234161   5.075   5.154  14.161  1.0264 -1.5863  0.6447
 4224TIP3   OH234162   1.371   4.672   4.562  0.1703 -0.4606  0.0728
 4224TIP3    H134163   1.460   4.665   4.594  0.5444  0.4623 -0.7249
 4224TIP3    H234164   1.380   4.705   4.472 -0.9455 -0.7508 -0.1617
 4225TIP3   OH234165   4.587   3.170  11.321  0.0104  0.1310 -0.6962
 4225TIP3    H134166   4.526   3.141  11.389  0.9272 -0.3973 -0.0900
 4225TIP3    H234167   4.599   3.263  11.336  1.8194 -0.3598  1.1866
 4226TIP3   OH234168   0.162   2.503  14.540  0.5014  0.1680  0.0446
 4226TIP3    H134169   0.177   2.581  14.592  0.7449  0.0520  0.1463
 4226TIP3    H234170   0.247   2.483  14.501  0.1536  0.6983 -1.0099
 4227TIP3   OH234171   2.468   0.686   5.806 -0.5231  0.5387  0.0356
 4227TIP3    H134172   2.470   0.725   5.718 -0.2700 -1.0399 -0.6675
 4227TIP3    H234173   2.521   0.746   5.859 -1.4993  2.0429 -0.6543
 4228TIP3   OH234174   0.858   2.147   4.341  0.0941  0.2136  0.3748
 4228TIP3    H134175   0.795   2.133   4.271  0.6059  0.5382 -0.1614
 4228TIP3    H234176   0.941   2.115   4.306 -0.1776 -2.3003  1.8991
 4229TIP3   OH234177   5.441   3.213  10.047 -0.4012  0.7164  0.1323
 4229TIP3    H134178   5.491   3.158  10.107 -0.0640  0.8594 -0.0188
 4229TIP3    H234179   5.398   3.277  10.104  1.6468  2.2194  0.0381
 4230TIP3   OH234180   6.790   6.668  13.808 -0.4538 -0.3743 -0.1915
 4230TIP3    H134181   6.781   6.616  13.888 -1.8094 -1.0074 -0.7303
 4230TIP3    H234182   6.737   6.746  13.825 -0.6324 -0.4458 -0.4180
 4231TIP3   OH234183   1.007   3.968   3.552  0.0340  0.4349 -0.0124
 4231TIP3    H134184   0.922   3.936   3.584 -0.2189  0.4973 -0.6245
 4231TIP3    H234185   1.071   3.926   3.610 -0.2263 -1.9623 -1.4136
 4232TIP3   OH234186   4.798   3.963   4.349  0.1999  0.1088 -0.6402
 4232TIP3    H134187   4.709   3.980   4.379  0.1173 -1.4107  0.0084
 4232TIP3    H234188   4.845   3.933   4.427  0.6444 -1.4161 -1.4723
 4233TIP3   OH234189   3.597   1.500   4.263  0.4681 -0.0787 -0.9195
 4233TIP3    H134190   3.647   1.517   4.343  0.1801 -1.4994 -0.4206
 4233TIP3    H234191   3.526   1.565   4.265  0.5553 -0.0074 -0.1068
 4234TIP3   OH234192   2.632   1.242  13.142  0.1381  0.0582 -0.0131
 4234TIP3    H134193   2.700   1.251  13.076  0.1772 -2.7240 -0.4025
 4234TIP3    H234194   2.550   1.242  13.092 -0.1417  2.6735  0.3904
 4235TIP3   OH234195   6.261   0.197   2.911  0.1664  0.0436 -0.0437
 4235TIP3    H134196   6.248   0.113   2.955  1.2358  0.3758  0.9273
 4235TIP3    H234197   6.334   0.181   2.852  1.3071  0.6693  1.1791
 4236TIP3   OH234198   6.656   0.242  13.341 -0.4437  0.6229  0.4233
 4236TIP3    H134199   6.645   0.147  13.336 -1.8155  0.5023  4.1606
 4236TIP3    H234200   6.580   0.277  13.294  0.2974 -0.0619 -1.3527
 4237TIP3   OH234201   5.240   5.043  12.474 -0.5953  0.1163  0.4095
 4237TIP3    H134202   5.317   4.991  12.451 -2.0238 -1.9327  0.1163
 4237TIP3    H234203   5.239   5.114  12.409  0.7985 -0.0592  0.1731
 4238TIP3   OH234204   4.640   0.301  14.829 -0.3894  0.0846 -0.8678
 4238TIP3    H134205   4.711   0.241  14.806 -0.3792  0.6928 -2.5114
 4238TIP3    H234206   4.567   0.274  14.774 -0.6473  1.0426 -1.0035
 4239TIP3   OH234207   3.199   1.138   0.654 -0.2890  0.3944 -0.0584
 4239TIP3    H134208   3.230   1.083   0.583  0.4624  1.3958 -0.5285
 4239TIP3    H234209   3.129   1.190   0.614  0.9022  1.7741 -0.4045
 4240TIP3   OH234210   5.417   5.671  10.775 -0.3193 -0.3686  0.1980
 4240TIP3    H134211   5.327   5.703  10.768 -0.5713 -1.3892 -1.7616
 4240TIP3    H234212   5.470   5.740  10.735 -0.2790 -0.0254  0.8355
 4241TIP3   OH234213   5.005   4.271  11.613 -0.3779 -0.2769  0.3009
 4241TIP3    H134214   5.092   4.232  11.607 -0.8984 -1.5324  0.7790
 4241TIP3    H234215   4.957   4.237  11.538 -0.5227  0.2510  0.1504
 4242TIP3   OH234216   4.781   3.764   1.953 -0.4042 -0.5833  0.1389
 4242TIP3    H134217   4.778   3.746   1.859  0.6658  1.1932 -0.2761
 4242TIP3    H234218   4.829   3.690   1.990 -0.5433 -1.1356 -0.7582
 4243TIP3   OH234219   2.830   4.572  16.212  0.0526 -0.4868  0.0292
 4243TIP3    H134220   2.819   4.477  16.223 -0.9961 -0.5586 -1.4952
 4243TIP3    H234221   2.757   4.610  16.261 -0.2163 -0.5272 -0.3291
 4244TIP3   OH234222   2.498   5.979   0.874  0.1582  0.2397  0.3230
 4244TIP3    H134223   2.422   5.932   0.907  0.0703 -0.6812 -1.1500
 4244TIP3    H234224   2.509   6.053   0.934 -1.5163  0.0390  0.8863
 4245TIP3   OH234225   5.765   2.973   3.098 -1.3954 -0.6679  0.1620
 4245TIP3    H134226   5.830   2.990   3.166  2.5597 -2.9284 -2.8347
 4245TIP3    H234227   5.749   3.059   3.059 -0.6314  0.0066  1.2942
 4246TIP3   OH234228   0.085   3.598  13.657  0.3171 -0.7816 -0.3563
 4246TIP3    H134229   0.063   3.523  13.602 -0.2992  0.4100 -1.7644
 4246TIP3    H234230   0.145   3.651  13.604  3.5389 -1.9874  1.9463
 4247TIP3   OH234231   2.742   5.316   0.835  0.3696  0.3261  0.2031
 4247TIP3    H134232   2.777   5.227   0.832 -0.9038 -0.1728 -0.0020
 4247TIP3    H234233   2.755   5.344   0.925 -0.6009 -0.6411  0.6609
 4248TIP3   OH234234   2.232   1.411   4.127 -0.4209 -0.1287 -0.0663
 4248TIP3    H134235   2.311   1.391   4.078 -0.2902 -0.7874  0.3904
 4248TIP3    H234236   2.233   1.505   4.140 -1.0212  0.1939 -2.2651
 4249TIP3   OH234237   1.337   1.882   1.807  0.2503 -0.3523 -0.3868
 4249TIP3    H134238   1.284   1.919   1.878  0.9130 -1.0410  0.4855
 4249TIP3    H234239   1.274   1.834   1.752 -0.1756 -0.3630  0.1048
 4250TIP3   OH234240   4.576   5.953  15.129  0.0143  0.0416  0.0296
 4250TIP3    H134241   4.637   6.011  15.176  0.2271 -0.0722 -0.1031
 4250TIP3    H234242   4.629   5.876  15.107 -0.4009 -0.4117  0.6225
 4251TIP3   OH234243   2.723   4.326   5.412  0.3917 -0.1984  0.1300
 4251TIP3    H134244   2.652   4.276   5.452  0.3214  0.9467  1.4711
 4251TIP3    H234245   2.794   4.323   5.477  0.5281  1.1047  0.0596
 4252TIP3   OH234246   0.204   1.803   1.307 -0.4111 -0.4108 -0.0869
 4252TIP3    H134247   0.233   1.812   1.216 -0.1278 -3.3274 -0.3518
 4252TIP3    H234248   0.171   1.889   1.331  0.2054  0.5981 -2.7176
 4253TIP3   OH234249   4.728   2.511  15.363  1.0263 -0.3851 -0.1245
 4253TIP3    H134250   4.781   2.496  15.441 -1.6668  1.9265  2.2624
 4253TIP3    H234251   4.661   2.442  15.365  2.0373 -1.4396 -1.4546
 4254TIP3   OH234252   4.513   6.152   1.582  0.3521 -0.3346  0.1398
 4254TIP3    H134253   4.511   6.078   1.643 -0.6053 -0.4977 -0.0875
 4254TIP3    H234254   4.438   6.206   1.607  0.8593  0.3982  0.0967
 4255TIP3   OH234255   4.373   1.253   6.475  0.0166 -0.3125  0.0607
 4255TIP3    H134256   4.329   1.225   6.395  0.5361  1.5132 -0.8732
 4255TIP3    H234257   4.326   1.332   6.503 -1.9246 -2.4080  3.0924
 4256TIP3   OH234258   1.050   5.708   5.829  0.5325 -0.4812 -0.0982
 4256TIP3    H134259   0.989   5.670   5.766 -1.2473  0.0040  1.3132
 4256TIP3    H234260   1.104   5.767   5.776  1.3803 -2.6672 -1.7699
 4257TIP3   OH234261   0.170   5.544  14.839  0.1391  0.2454  0.0327
 4257TIP3    H134262   0.152   5.638  14.832  1.2573  0.4653 -0.0934
 4257TIP3    H234263   0.247   5.539  14.896 -0.0737 -0.6088  0.2486
 4258TIP3   OH234264   2.145   3.080   1.446 -0.2679 -0.1110 -0.1320
 4258TIP3    H134265   2.216   3.095   1.383 -2.3162  3.2986 -1.7884
 4258TIP3    H234266   2.159   3.146   1.514 -1.3195 -0.0843  0.0609
 4259TIP3   OH234267   0.513   3.804  13.072 -0.1236 -0.2839  0.2552
 4259TIP3    H134268   0.523   3.737  13.005  0.6264 -0.2331  0.3147
 4259TIP3    H234269   0.559   3.769  13.148 -0.6650 -0.1836  0.6375
 4260TIP3   OH234270   4.040   3.781  11.081  0.2834  0.3623  0.4722
 4260TIP3    H134271   4.129   3.814  11.092 -0.5125  1.9038  2.5333
 4260TIP3    H234272   3.988   3.859  11.062 -1.1393 -0.1040  2.3946
 4261TIP3   OH234273   2.456   1.054   3.347 -0.1491 -0.7135 -0.2228
 4261TIP3    H134274   2.522   1.050   3.277 -0.0734 -0.2868 -0.1806
 4261TIP3    H234275   2.495   1.005   3.419 -0.7912 -2.2757 -0.9332
 4262TIP3   OH234276   0.115   0.204  16.455 -0.1836  0.5616 -0.1742
 4262TIP3    H134277   0.180   0.149  16.411  1.5128  0.4238  2.4090
 4262TIP3    H234278   0.157   0.290  16.461 -0.1986  0.4622  1.5375
 4263TIP3   OH234279   3.227   1.217  14.817 -0.1486  0.1863  0.1717
 4263TIP3    H134280   3.306   1.233  14.764 -0.6751  0.1939 -0.6215
 4263TIP3    H234281   3.187   1.303  14.826 -0.5745  0.0304 -0.2353
 4264TIP3   OH234282   5.660   1.582  16.015 -0.6090  0.1252  0.1438
 4264TIP3    H134283   5.724   1.511  16.027 -1.4741 -0.8053 -0.7418
 4264TIP3    H234284   5.697   1.637  15.946  0.4966  1.0559  1.4446
 4265TIP3   OH234285   2.075   3.147  16.394  0.4596 -0.2482 -0.6822
 4265TIP3    H134286   2.041   3.133  16.483 -0.4268 -0.7882 -1.1016
 4265TIP3    H234287   2.001   3.125  16.337  0.7944  0.8392 -1.5252
 4266TIP3   OH234288   4.707   3.257  14.374  0.0420 -0.0940 -0.0425
 4266TIP3    H134289   4.735   3.226  14.288  0.3747 -1.7647  0.6440
 4266TIP3    H234290   4.637   3.320  14.355  2.4352  2.1973 -1.6674
 4267TIP3   OH234291   3.622   1.010  11.499  0.3642  0.8150  0.2417
 4267TIP3    H134292   3.703   0.991  11.546  1.2471  0.8301 -1.2283
 4267TIP3    H234293   3.630   1.101  11.472 -0.8270  1.2768  1.3776
 4268TIP3   OH234294   6.033   4.993  16.023 -0.2830  0.3188  0.1301
 4268TIP3    H134295   5.983   4.915  16.000  1.3816 -0.2667 -1.5304
 4268TIP3    H234296   6.099   4.962  16.085 -0.5871  0.6973  0.6495
 4269TIP3   OH234297   5.164   1.500  16.878  0.4859 -0.1152  0.0010
 4269TIP3    H134298   5.157   1.531  16.968  0.5611  1.3998 -0.4997
 4269TIP3    H234299   5.222   1.563  16.835  0.1979 -0.6447 -1.1815
 4270TIP3   OH234300   6.466   5.216  16.866 -0.2384 -0.8056 -0.8186
 4270TIP3    H134301   6.524   5.223  16.941  0.8635 -0.6798 -1.6762
 4270TIP3    H234302   6.505   5.273  16.799 -1.5857 -0.3575 -1.2561
 4271TIP3   OH234303   4.778   3.065   5.300 -0.1267 -0.4851  0.6316
 4271TIP3    H134304   4.716   3.117   5.249 -0.6029 -1.3918  0.2869
 4271TIP3    H234305   4.840   3.031   5.236  0.2622 -0.2409  0.8745
 4272TIP3   OH234306   5.575   6.566  13.299 -0.6174  0.4929 -0.7650
 4272TIP3    H134307   5.563   6.645  13.351 -1.0136  0.1738 -0.3751
 4272TIP3    H234308   5.488   6.527  13.294 -0.4554  0.1739 -1.1079
 4273TIP3   OH234309   6.470   3.995  17.153 -0.1077  0.0223 -0.3064
 4273TIP3    H134310   6.394   4.051  17.174  0.4998  0.4789  0.7027
 4273TIP3    H234311   6.541   4.057  17.138  0.9879 -0.5137  2.4669
 4274TIP3   OH234312   3.200   6.328  11.473  0.2301  0.4429  0.5176
 4274TIP3    H134313   3.122   6.367  11.513 -0.2036  0.3884 -0.2507
 4274TIP3    H234314   3.201   6.363  11.384 -0.3528 -1.5268 -0.2969
 4275TIP3   OH234315   3.260   0.334   2.356  0.7495  0.1381  0.4970
 4275TIP3    H134316   3.313   0.265   2.397  2.4494  1.0265 -0.1224
 4275TIP3    H234317   3.174   0.295   2.345  1.7396 -1.9994 -0.0856
 4276TIP3   OH234318   3.888   1.330  13.089 -0.2722  0.6062 -0.5063
 4276TIP3    H134319   3.825   1.343  13.019  1.4391  0.4097 -2.1148
 4276TIP3    H234320   3.934   1.414  13.096 -0.6797  0.7464  0.6500
 4277TIP3   OH234321   4.695   4.371   3.657 -0.1866  0.2363  0.1363
 4277TIP3    H134322   4.670   4.421   3.579 -1.1673  0.3833  0.5355
 4277TIP3    H234323   4.634   4.401   3.724 -1.0628 -1.8030  0.2841
 4278TIP3   OH234324   4.167   1.730  13.928 -0.8367 -0.3528  0.1793
 4278TIP3    H134325   4.235   1.756  13.990 -0.3510  1.8775 -1.2432
 4278TIP3    H234326   4.215   1.686  13.857 -0.9664  0.2343 -0.2839
 4279TIP3   OH234327   4.779   1.044   0.402  0.3132  0.0499 -0.3172
 4279TIP3    H134328   4.758   1.137   0.405  0.3653  0.0040  1.8414
 4279TIP3    H234329   4.872   1.042   0.378  0.5230  0.5799  0.4279
 4280TIP3   OH234330   4.262   3.143   2.454  0.0584  0.1572  0.0741
 4280TIP3    H134331   4.275   3.060   2.499 -1.0716 -0.3577 -0.5260
 4280TIP3    H234332   4.321   3.139   2.379 -2.4414 -1.5722 -1.8624
 4281TIP3   OH234333   3.965   1.515   2.067  0.2944 -0.7172 -0.4694
 4281TIP3    H134334   4.052   1.496   2.032 -0.2705  1.8459 -3.4234
 4281TIP3    H234335   3.979   1.591   2.125 -0.0208 -0.0371 -1.2764
 4282TIP3   OH234336   0.062   4.431  14.066 -0.3752  0.2581 -0.1527
 4282TIP3    H134337   0.022   4.472  13.989 -1.9760  0.6257  0.8478
 4282TIP3    H234338   0.116   4.361  14.030  0.6425  1.8112 -1.7510
 4283TIP3   OH234339   0.132   6.526   3.544  0.0332 -0.1961 -0.3507
 4283TIP3    H134340   0.121   6.479   3.461  1.6210 -0.8314 -0.2123
 4283TIP3    H234341   0.206   6.584   3.529  0.3584 -0.3477  0.6448
 4284TIP3   OH234342   5.151   4.183  15.581  0.1611 -0.2774  0.1460
 4284TIP3    H134343   5.092   4.145  15.647  0.2898  0.2800  0.5885
 4284TIP3    H234344   5.230   4.130  15.586 -0.0832 -0.6667 -0.0426
 4285TIP3   OH234345   1.794   3.504   3.317  0.0221 -0.3456  0.1963
 4285TIP3    H134346   1.769   3.593   3.292 -0.1525 -0.2568  0.6714
 4285TIP3    H234347   1.888   3.499   3.300  0.5842  0.8291  2.7525
 4286TIP3   OH234348   0.910   1.016   3.969  0.1307 -0.8119  0.0475
 4286TIP3    H134349   0.959   1.078   3.915  1.1073 -2.2821 -0.8203
 4286TIP3    H234350   0.839   1.067   4.007 -0.7130  0.2566 -2.8126
 4287TIP3   OH234351   3.771   4.011  15.857 -0.4109  0.2834 -0.0221
 4287TIP3    H134352   3.737   3.922  15.854 -0.3295  0.1486  1.9125
 4287TIP3    H234353   3.831   4.017  15.783 -0.4168 -1.2765 -0.1703
 4288TIP3   OH234354   0.762   5.596   1.254 -0.3357  0.1270 -0.5010
 4288TIP3    H134355   0.735   5.655   1.325 -0.3635 -2.1405  1.4219
 4288TIP3    H234356   0.792   5.517   1.298  0.5454 -0.9910 -3.0080
 4289TIP3   OH234357   3.174   2.538  11.427 -0.3143  0.5780 -0.0151
 4289TIP3    H134358   3.227   2.494  11.494  2.0513  3.4468  0.1438
 4289TIP3    H234359   3.199   2.495  11.345  0.6505  0.4537  0.3322
 4290TIP3   OH234360   0.682   5.355  14.027 -0.5116 -0.6061 -0.4041
 4290TIP3    H134361   0.604   5.307  13.997 -1.0024 -0.2384  0.2845
 4290TIP3    H234362   0.700   5.318  14.114  0.6381 -1.3473 -0.9517
 4291TIP3   OH234363   5.822   0.390  16.458  0.4791 -0.0483  0.0827
 4291TIP3    H134364   5.899   0.338  16.434  0.4704 -0.6518  1.3402
 4291TIP3    H234365   5.751   0.354  16.405  0.8650 -0.0947 -0.4047
 4292TIP3   OH234366   2.036   6.576  11.590  0.3148  0.1627  0.1269
 4292TIP3    H134367   1.944   6.600  11.600  0.2193 -0.1398 -0.0467
 4292TIP3    H234368   2.064   6.551  11.678  0.8712  2.5299  0.6831
 4293TIP3   OH234369   1.993   5.940   0.376  0.7562  0.0936 -0.5805
 4293TIP3    H134370   2.005   5.883   0.300  1.0580  1.3745 -1.5094
 4293TIP3    H234371   2.071   5.995   0.378  0.6003  0.2906  0.4695
 4294TIP3   OH234372   4.132   1.254  11.738 -0.5211  0.0021  0.1880
 4294TIP3    H134373   4.176   1.170  11.750  0.2972  0.3655 -0.2507
 4294TIP3    H234374   4.105   1.279  11.826 -2.4014 -1.5922  0.0874
 4295TIP3   OH234375   2.282   2.545   4.185  0.3198  0.1992 -0.1096
 4295TIP3    H134376   2.204   2.522   4.236  0.6946  1.3162  0.9636
 4295TIP3    H234377   2.356   2.514   4.238  0.6351 -0.7858 -1.0880
 4296TIP3   OH234378   2.713   4.587   0.672  0.1301 -0.4502  0.7028
 4296TIP3    H134379   2.715   4.602   0.578  2.4942  1.2979  1.0001
 4296TIP3    H234380   2.709   4.675   0.710  1.0997 -1.0744  2.2772
 4297TIP3   OH234381   5.164   6.458   3.988  0.5627  0.7742 -0.5047
 4297TIP3    H134382   5.126   6.525   3.931  0.4299  1.3714  0.2631
 4297TIP3    H234383   5.195   6.390   3.929 -0.9597  0.6655 -1.1984
 4298TIP3   OH234384   4.396   2.375   4.660 -0.3295 -0.1567  0.3930
 4298TIP3    H134385   4.372   2.447   4.602 -0.3176 -1.3714 -1.1565
 4298TIP3    H234386   4.350   2.393   4.742 -1.4219  0.8836 -0.4400
 4299TIP3   OH234387   4.057   6.082   0.417 -0.2387 -0.4682 -0.3082
 4299TIP3    H134388   4.113   6.015   0.456  1.5481  2.0581  1.6880
 4299TIP3    H234389   3.989   6.098   0.482  1.0422  1.6586  0.5877
 4300TIP3   OH234390   1.399   1.164   0.895  0.4622 -0.3576 -0.1568
 4300TIP3    H134391   1.390   1.254   0.865  4.8393 -0.3177 -1.7277
 4300TIP3    H234392   1.383   1.110   0.817 -1.7200 -0.9865  0.6769
 4301TIP3   OH234393   1.097   0.422  16.538  0.7343 -0.1927 -0.3208
 4301TIP3    H134394   1.039   0.416  16.614  1.3698  0.8330  0.2483
 4301TIP3    H234395   1.045   0.465  16.471  0.4063 -0.4572 -0.2370
 4302TIP3   OH234396   6.767   1.071  13.291  0.3647  0.4118  0.0698
 4302TIP3    H134397   6.689   1.035  13.334  0.1440 -0.1647 -0.7989
 4302TIP3    H234398   6.829   0.998  13.289  0.1928  0.2846 -1.0186
 4303TIP3   OH234399   4.210   2.862   2.570  0.3689 -0.0234  0.1748
 4303TIP3    H134400   4.117   2.874   2.588 -0.1921 -1.1971 -1.8257
 4303TIP3    H234401   4.233   2.781   2.615 -0.6780 -2.1532 -2.9911
 4304TIP3   OH234402   1.498   2.403   3.123  0.4722  0.1743 -0.0413
 4304TIP3    H134403   1.572   2.432   3.177 -0.0271  3.3124 -1.0001
 4304TIP3    H234404   1.421   2.418   3.178  0.4079 -2.0415  0.5241
 4305TIP3   OH234405   4.078   4.529   2.996 -0.1066  0.1528  0.0063
 4305TIP3    H134406   4.022   4.455   2.973 -0.6122  0.5361  0.0119
 4305TIP3    H234407   4.143   4.532   2.925  0.2455 -0.6227  0.2802
 4306TIP3   OH234408   2.080   5.473   3.207  0.1454 -0.3857 -0.5279
 4306TIP3    H134409   2.003   5.512   3.251  0.7006 -1.1850  1.2147
 4306TIP3    H234410   2.125   5.547   3.167 -0.5644  0.3335 -0.0110
 4307TIP3   OH234411   3.181   5.754  14.695  0.0818  0.8407 -0.5306
 4307TIP3    H134412   3.140   5.814  14.632  1.0162  1.7213 -0.3111
 4307TIP3    H234413   3.268   5.736  14.658 -0.5990 -1.2678 -1.1527
 4308TIP3   OH234414   1.560   2.732  13.397  0.9149 -0.1741 -0.0560
 4308TIP3    H134415   1.490   2.668  13.385  0.0287  0.8185 -0.2324
 4308TIP3    H234416   1.625   2.710  13.330  0.2037 -0.3168 -0.6922
 4309TIP3   OH234417   4.587   0.320   2.713  0.1852  0.0996 -0.3649
 4309TIP3    H134418   4.590   0.300   2.807  0.6942  2.1444  0.0765
 4309TIP3    H234419   4.677   0.308   2.683  0.2767  0.7054 -0.3258
 4310TIP3   OH234420   6.072   2.494  13.669  0.6064 -0.0009  0.5002
 4310TIP3    H134421   6.062   2.435  13.744  2.7837 -2.0419 -0.7532
 4310TIP3    H234422   5.993   2.548  13.670 -0.5749 -1.7023  2.7642
 4311TIP3   OH234423   3.009   4.926   2.632 -0.4297 -0.3601  0.3623
 4311TIP3    H134424   3.072   4.998   2.631  0.3672 -0.9545  3.7342
 4311TIP3    H234425   2.924   4.968   2.644 -0.3809  0.2322 -1.2596
 4312TIP3   OH234426   3.997   4.471   0.049 -0.5656 -0.2760  0.1138
 4312TIP3    H134427   4.016   4.377   0.044  2.0725  0.1980  0.6444
 4312TIP3    H234428   3.992   4.499  -0.042  0.0751 -0.6637 -0.0441
 4313TIP3   OH234429   6.025   5.526   2.124  0.1945 -0.3576  0.3614
 4313TIP3    H134430   5.958   5.535   2.192  1.0270  0.9829  1.0185
 4313TIP3    H234431   6.052   5.615   2.105  1.8543 -0.8913  0.1670
 4314TIP3   OH234432   6.611   3.171  11.517  0.4572  0.5397  0.1248
 4314TIP3    H134433   6.571   3.102  11.569 -3.2650  2.8243  0.5126
 4314TIP3    H234434   6.657   3.226  11.580 -0.2725  0.8213  0.4154
 4315TIP3   OH234435   2.417   0.255   5.339  0.1620 -0.1291  0.4319
 4315TIP3    H134436   2.462   0.320   5.393 -0.3243 -0.6674  1.4988
 4315TIP3    H234437   2.485   0.220   5.282  0.1320  2.3624 -1.1991
 4316TIP3   OH234438   0.064   4.002   3.219 -0.5899  0.3510 -0.0366
 4316TIP3    H134439   0.112   3.955   3.288 -0.6003 -2.2038 -1.7307
 4316TIP3    H234440   0.003   3.938   3.184 -0.7276  1.6710 -2.3090
 4317TIP3   OH234441   6.246   0.895   5.592  0.1343 -0.3005 -0.6217
 4317TIP3    H134442   6.274   0.856   5.675 -0.3574 -3.9122 -2.0315
 4317TIP3    H234443   6.328   0.914   5.545  0.4027  1.2928  0.4826
 4318TIP3   OH234444   5.854   4.502   5.209 -0.1311 -0.4248 -0.0217
 4318TIP3    H134445   5.895   4.588   5.220  2.9598 -1.5071 -2.4891
 4318TIP3    H234446   5.760   4.520   5.210  0.4256  2.7737  0.9302
 4319TIP3   OH234447   2.498   2.307   5.007 -0.4032 -0.5067 -0.3662
 4319TIP3    H134448   2.560   2.363   5.052 -0.1021 -0.3273 -1.0004
 4319TIP3    H234449   2.548   2.268   4.935 -0.9771 -0.4653 -0.7971
 4320TIP3   OH234450   6.109   3.156  14.452  0.0954 -0.5687 -0.1819
 4320TIP3    H134451   6.058   3.197  14.522  1.8677 -0.8732  1.3004
 4320TIP3    H234452   6.158   3.228  14.413  1.6711 -0.9272  1.1049
 4321TIP3   OH234453   0.295   0.326   4.918 -0.0747  0.0490 -0.8334
 4321TIP3    H134454   0.286   0.282   5.003 -0.8895  1.2840 -0.2637
 4321TIP3    H234455   0.311   0.255   4.856 -0.5095 -0.9678  0.1942
 4322TIP3   OH234456   1.542   5.092   1.023 -0.5217  0.1325 -0.5079
 4322TIP3    H134457   1.598   5.128   0.954  0.0658 -0.4273 -0.3278
 4322TIP3    H234458   1.603   5.057   1.088 -1.0746 -1.3599 -0.7651
 4323TIP3   OH234459   0.596   0.827  15.093  0.1457 -0.1745 -0.2026
 4323TIP3    H134460   0.553   0.771  15.028  0.7428 -0.1963 -0.5892
 4323TIP3    H234461   0.529   0.844  15.159 -0.5769  0.1177 -0.9939
 4324TIP3   OH234462   6.245   0.636  15.226  0.0951 -0.3315  0.4969
 4324TIP3    H134463   6.322   0.689  15.246 -0.8211  0.6883  1.4004
 4324TIP3    H234464   6.177   0.669  15.285 -0.9991 -1.2978 -0.1962
 4325TIP3   OH234465   0.472   6.731   0.884 -0.0377 -0.1579  0.0746
 4325TIP3    H134466   0.456   6.818   0.922  2.1473  0.6550 -0.7855
 4325TIP3    H234467   0.500   6.750   0.794  0.2697 -1.7679 -0.1698
 4326TIP3   OH234468   0.850   5.578  14.335 -0.1284  0.3492 -0.5505
 4326TIP3    H134469   0.908   5.621  14.272 -0.8314 -1.5246 -2.5549
 4326TIP3    H234470   0.904   5.508  14.372 -0.2895  0.2782 -0.4483
 4327TIP3   OH234471   1.717   5.979   0.026  0.3320  0.7679 -0.2606
 4327TIP3    H134472   1.747   5.997   0.115 -0.9517 -0.8285  0.5142
 4327TIP3    H234473   1.640   6.035   0.015 -0.5652 -0.3262  0.2942
 4328TIP3   OH234474   3.217   3.460  15.981  0.2183  0.2992 -0.1237
 4328TIP3    H134475   3.283   3.527  15.965  1.2893 -0.8761 -0.6903
 4328TIP3    H234476   3.184   3.480  16.069  0.6797  1.4214 -0.1927
 4329TIP3   OH234477   2.275   6.592  13.618  0.0578  0.3165  0.2753
 4329TIP3    H134478   2.245   6.682  13.606  1.7577  0.9873  0.8309
 4329TIP3    H234479   2.336   6.577  13.545  0.2408 -0.1783  0.5230
 4330TIP3   OH234480   1.079   5.254   5.835  0.2962  0.6533 -0.0834
 4330TIP3    H134481   1.122   5.280   5.916  0.8300 -0.9808  0.1791
 4330TIP3    H234482   0.994   5.298   5.838  0.6879  1.3736  0.8956
 4331TIP3   OH234483   3.823   0.860  17.182  0.1969 -0.2334  0.7590
 4331TIP3    H134484   3.849   0.925  17.117  0.4190  0.6054  1.6706
 4331TIP3    H234485   3.741   0.824  17.149 -0.7009  1.5731  0.9742
 4332TIP3   OH234486   2.168   0.844  10.589  0.4220 -0.1866 -0.8182
 4332TIP3    H134487   2.220   0.785  10.644  1.1438 -0.3698 -1.6878
 4332TIP3    H234488   2.105   0.786  10.546  2.1495 -0.6008 -2.8880
 4333TIP3   OH234489   4.993   6.297   4.411  0.0618 -0.1242 -0.2000
 4333TIP3    H134490   4.972   6.229   4.347 -3.5373  0.0931  0.6604
 4333TIP3    H234491   5.032   6.250   4.485  1.4934 -0.7135 -1.3089
 4334TIP3   OH234492   2.369   2.355  16.269 -0.3900  0.5684  0.1055
 4334TIP3    H134493   2.401   2.274  16.229  0.3084  0.2738  1.2431
 4334TIP3    H234494   2.320   2.326  16.345 -0.4853  1.2004  0.2827
 4335TIP3   OH234495   0.798   3.161   1.136  0.7383  0.5038 -0.0870
 4335TIP3    H134496   0.783   3.075   1.095  0.0561  1.4657 -1.8959
 4335TIP3    H234497   0.891   3.178   1.122  1.0008 -0.1654  0.7594
 4336TIP3   OH234498   2.555   2.637  11.996 -0.1059 -0.2820 -0.4214
 4336TIP3    H134499   2.607   2.716  12.011  1.4173 -0.6930 -3.1823
 4336TIP3    H234500   2.618   2.566  11.996 -1.1735 -1.2536 -0.1329
 4337TIP3   OH234501   0.691   0.736   6.367  0.4112 -0.7528  0.2675
 4337TIP3    H134502   0.758   0.683   6.411  2.3685  1.4274 -0.0066
 4337TIP3    H234503   0.712   0.826   6.391 -1.8805  0.0590 -0.6233
 4338TIP3   OH234504   5.197   4.448   2.670  0.7288  0.2488 -0.0871
 4338TIP3    H134505   5.202   4.364   2.624 -1.7644  0.4154 -0.7448
 4338TIP3    H234506   5.196   4.425   2.762  2.2610 -0.3004 -0.1963
 4339TIP3   OH234507   2.944   5.984  12.154 -0.0616  0.0672  0.2753
 4339TIP3    H134508   2.995   5.926  12.097  0.2900 -1.1832  1.8200
 4339TIP3    H234509   3.000   6.061  12.166 -0.4105  0.6300 -1.5586
 4340TIP3   OH234510   3.155   5.758   2.999  0.3330  0.1623  0.4635
 4340TIP3    H134511   3.129   5.741   2.909 -0.8302 -0.2953  0.8754
 4340TIP3    H234512   3.250   5.755   2.998  0.2565 -2.7506 -0.1901
 4341TIP3   OH234513   6.325   1.477   5.900  0.4210  0.4869 -0.4868
 4341TIP3    H134514   6.381   1.520   5.964 -0.8418  1.5165 -0.0444
 4341TIP3    H234515   6.379   1.465   5.823  0.8719  2.6009 -0.5063
 4342TIP3   OH234516   0.229   3.885  10.486  0.1889  0.1699 -0.0179
 4342TIP3    H134517   0.188   3.809  10.445  3.6031 -0.7395 -1.9392
 4342TIP3    H234518   0.261   3.853  10.570 -2.6661  0.8278  1.3916
 4343TIP3   OH234519   0.145   2.908   2.513  0.5504  0.0630  0.5418
 4343TIP3    H134520   0.069   2.884   2.565  1.4833  1.1334  2.4507
 4343TIP3    H234521   0.114   2.908   2.423 -1.5647  0.0009  1.2556
 4344TIP3   OH234522   5.443   5.285   5.129 -0.3598  0.5791  0.1928
 4344TIP3    H134523   5.397   5.230   5.066  0.6955 -0.8638  0.6605
 4344TIP3    H234524   5.531   5.296   5.092  0.5165 -0.9200  1.7468
 4345TIP3   OH234525   4.855   2.279  12.450  0.4758 -0.2957 -0.2267
 4345TIP3    H134526   4.913   2.258  12.377 -0.5164  0.0523 -1.1232
 4345TIP3    H234527   4.870   2.208  12.513  0.4030 -1.3103 -1.3191
 4346TIP3   OH234528   1.334   6.425   4.335 -0.1838  0.6001  0.2114
 4346TIP3    H134529   1.415   6.467   4.304 -0.6037  0.9697 -0.3878
 4346TIP3    H234530   1.312   6.362   4.267  0.3168 -0.4571  1.0047
 4347TIP3   OH234531   4.006   1.889  11.767  0.0130  0.2747 -0.3158
 4347TIP3    H134532   4.008   1.983  11.785  2.8475  0.0840  0.5493
 4347TIP3    H234533   4.044   1.881  11.680  1.6707 -0.2421  0.4501
 4348TIP3   OH234534   6.628   5.935  13.548  0.4766 -0.1468 -0.5096
 4348TIP3    H134535   6.646   6.005  13.486  0.3534 -0.3515 -0.7749
 4348TIP3    H234536   6.563   5.972  13.608 -0.0950 -0.2616 -1.0519
 4349TIP3   OH234537   5.703   3.659  13.835  0.0596  0.4175 -0.3114
 4349TIP3    H134538   5.685   3.595  13.766 -0.7230  2.4208 -2.0094
 4349TIP3    H234539   5.631   3.648  13.898  1.0488 -1.7637  0.5272
 4350TIP3   OH234540   1.643   1.810  12.284  0.3603 -0.1764  0.0584
 4350TIP3    H134541   1.705   1.875  12.250 -0.7846  0.7078 -0.3605
 4350TIP3    H234542   1.618   1.758  12.207  0.9509 -0.8525  0.3160
 4351TIP3   OH234543   5.533   4.056   0.874  0.3543  0.2111  0.4047
 4351TIP3    H134544   5.453   4.100   0.905 -1.0624 -0.0638 -2.6735
 4351TIP3    H234545   5.510   3.964   0.869  1.7545 -0.2468  2.0857
 4352TIP3   OH234546   4.216   2.851   2.227 -0.0863 -0.1749 -1.1184
 4352TIP3    H134547   4.202   2.910   2.154 -0.3288  0.3717 -0.6304
 4352TIP3    H234548   4.153   2.878   2.294 -0.2159 -0.9886 -0.8944
 4353TIP3   OH234549   5.701   1.646   5.969 -0.1803  0.0841  0.1577
 4353TIP3    H134550   5.755   1.701   6.027 -2.6869  1.1824  1.5485
 4353TIP3    H234551   5.669   1.707   5.902 -0.0334 -0.4646 -0.4108
 4354TIP3   OH234552   4.328   6.479   2.486 -0.0398 -0.0351  0.6765
 4354TIP3    H134553   4.357   6.456   2.398 -0.8961 -0.0685  0.4024
 4354TIP3    H234554   4.409   6.484   2.537  0.6494  1.9713 -0.5606
 4355TIP3   OH234555   1.589   0.337   2.941 -0.3354  0.0141 -0.2220
 4355TIP3    H134556   1.511   0.345   2.887 -0.5947  1.1095  0.2921
 4355TIP3    H234557   1.594   0.421   2.988  0.9006 -0.2110  0.0668
 4356TIP3   OH234558   3.745   1.776   2.560  0.1988  0.1955  0.0790
 4356TIP3    H134559   3.742   1.815   2.648  1.8272 -0.3008  0.3573
 4356TIP3    H234560   3.764   1.850   2.502 -1.9551  0.7259 -0.0185
 4357TIP3   OH234561   0.709   3.789  11.316 -0.0301  0.0046  0.3164
 4357TIP3    H134562   0.787   3.738  11.338  0.0244 -0.1008 -0.1127
 4357TIP3    H234563   0.692   3.842  11.394 -0.4408 -1.1038  0.9973
 4358TIP3   OH234564   2.330   3.596  10.644  0.0279  0.0508 -0.3484
 4358TIP3    H134565   2.309   3.674  10.695 -0.9717  0.5622 -1.5394
 4358TIP3    H234566   2.268   3.596  10.572  1.7978 -0.3397 -1.9279
 4359TIP3   OH234567   4.393   1.920  16.563 -0.0973  0.2596  0.5302
 4359TIP3    H134568   4.447   1.855  16.607  1.5227  1.9690  1.0710
 4359TIP3    H234569   4.317   1.870  16.533  1.1321 -1.8982  0.8973
 4360TIP3   OH234570   4.710   1.484  13.598  0.3001 -0.0396 -0.3753
 4360TIP3    H134571   4.723   1.575  13.622 -1.7754  1.1162 -3.3855
 4360TIP3    H234572   4.796   1.457  13.563  0.6233  1.0802 -0.4759
 4361TIP3   OH234573   4.838   0.584  13.105  0.0054 -0.6252  0.8931
 4361TIP3    H134574   4.833   0.641  13.181  2.3996  2.1587 -0.9143
 4361TIP3    H234575   4.780   0.624  13.041  1.9823  0.0534 -0.5279
 4362TIP3   OH234576   0.009   4.048  15.211  0.0286 -0.6823 -0.5432
 4362TIP3    H134577   0.085   4.014  15.164  0.3089 -0.5779 -0.1658
 4362TIP3    H234578   0.040   4.062  15.300 -0.5021 -0.8758 -0.3260
 4363TIP3   OH234579   5.460   2.462   4.080 -0.1951  0.6818 -0.0141
 4363TIP3    H134580   5.453   2.557   4.088 -1.3036  0.6325 -0.4188
 4363TIP3    H234581   5.532   2.439   4.139  0.3050  1.8046 -0.1681
 4364TIP3   OH234582   3.223   1.718   1.971  0.1900  0.4081  0.2499
 4364TIP3    H134583   3.273   1.689   2.048 -1.9782  2.1681  2.4166
 4364TIP3    H234584   3.247   1.810   1.961  0.6123  0.1384 -1.3618
 4365TIP3   OH234585   2.347   0.930  13.328 -0.1302 -0.9036 -0.4295
 4365TIP3    H134586   2.443   0.933  13.328 -0.0948 -1.8423  0.0119
 4365TIP3    H234587   2.321   1.011  13.372  0.4813 -1.0841  0.2857
 4366TIP3   OH234588   3.256   6.372   2.932  0.0938  0.7217 -0.9058
 4366TIP3    H134589   3.344   6.394   2.903  1.2133 -0.6205  1.3176
 4366TIP3    H234590   3.221   6.453   2.968  1.2839  0.7474  0.2295
 4367TIP3   OH234591   4.082   6.409  16.422 -0.1655  0.8386  0.3533
 4367TIP3    H134592   4.049   6.370  16.341 -0.0633  1.7560 -0.1328
 4367TIP3    H234593   4.143   6.476  16.394  0.9973  0.1600  1.2316
 4368TIP3   OH234594   6.699   3.076  12.688 -0.6839 -0.6928  0.8302
 4368TIP3    H134595   6.779   3.035  12.721  1.5633  1.6212 -1.5390
 4368TIP3    H234596   6.678   3.027  12.609  0.6548  1.1135 -0.6905
 4369TIP3   OH234597   5.083   0.382   3.911  0.0800  0.2269 -0.1975
 4369TIP3    H134598   5.137   0.461   3.916  0.7278 -0.2465  0.3900
 4369TIP3    H234599   5.131   0.317   3.962 -1.3233 -0.0344  0.8097
 4370TIP3   OH234600   3.470   1.528  12.248 -0.1681  0.2222  0.6224
 4370TIP3    H134601   3.461   1.610  12.200  0.3095 -0.5415 -0.7719
 4370TIP3    H234602   3.382   1.490  12.247  0.4925 -1.3733 -2.5284
 4371TIP3   OH234603   5.913   0.741  12.906  0.2179 -0.2608 -0.0991
 4371TIP3    H134604   5.845   0.807  12.896 -1.4817 -2.0046 -0.1936
 4371TIP3    H234605   5.946   0.727  12.817 -0.8834 -1.0586 -0.3893
 4372TIP3   OH234606   2.491   2.135  11.746  0.1421 -0.3895  0.4656
 4372TIP3    H134607   2.507   2.100  11.658  0.2278 -0.5486  0.5431
 4372TIP3    H234608   2.468   2.227  11.731  0.1104 -0.4274  0.2730
 4373TIP3   OH234609   1.354   5.061   3.765 -0.3854 -0.2142  0.0077
 4373TIP3    H134610   1.280   5.107   3.806 -1.3115 -1.0798 -0.6714
 4373TIP3    H234611   1.341   4.969   3.788 -0.5846 -0.6264 -1.7105
 4374TIP3   OH234612   3.426   0.074  11.616 -0.2208  0.0169 -0.1812
 4374TIP3    H134613   3.425  -0.009  11.663 -0.9229  0.1008 -0.0436
 4374TIP3    H234614   3.403   0.140  11.682 -0.6508  0.2026 -0.5158
 4375TIP3   OH234615   2.434   4.394   3.570 -0.5492  0.0831 -0.5648
 4375TIP3    H134616   2.530   4.400   3.565 -0.3823 -1.8974 -0.1149
 4375TIP3    H234617   2.405   4.408   3.480  0.2962 -1.2234 -1.0611
 4376TIP3   OH234618   5.534   5.157  15.662 -0.5312 -0.4116  0.0530
 4376TIP3    H134619   5.564   5.162  15.753 -0.7453 -0.3037  0.1183
 4376TIP3    H234620   5.454   5.209  15.660 -0.1516  0.1602 -0.3495
 4377TIP3   OH234621   4.035   2.600   3.879  0.5898 -0.4695  0.6945
 4377TIP3    H134622   4.062   2.628   3.966  2.3386 -1.1075  0.3744
 4377TIP3    H234623   4.040   2.504   3.882 -0.8485 -0.5664  0.3589
 4378TIP3   OH234624   3.441   5.512  11.312  0.3202  0.0898 -0.6143
 4378TIP3    H134625   3.497   5.452  11.361  1.7866  2.5946  0.9224
 4378TIP3    H234626   3.362   5.520  11.366  0.0320 -0.6271 -0.9314
 4379TIP3   OH234627   3.590   1.812  13.856 -0.5963  0.1783  0.8809
 4379TIP3    H134628   3.585   1.789  13.763 -0.1329 -1.5959  1.2765
 4379TIP3    H234629   3.675   1.855  13.865 -2.3150  4.0780 -0.2569
 4380TIP3   OH234630   5.371   2.087   1.091  0.2871 -0.2788 -0.1408
 4380TIP3    H134631   5.290   2.037   1.084 -1.0332  1.7330  0.6183
 4380TIP3    H234632   5.354   2.153   1.158  1.6093  1.9270 -1.9023
 4381TIP3   OH234633   6.269   0.751  15.473  0.2943 -0.2007  0.0497
 4381TIP3    H134634   6.239   0.674  15.523 -0.2376 -0.4201 -0.5931
 4381TIP3    H234635   6.340   0.788  15.525 -1.3034  0.4994  1.7593
 4382TIP3   OH234636   0.219   4.214  16.906 -0.0147  0.2966  0.1594
 4382TIP3    H134637   0.220   4.246  16.996  1.5493  0.1626  0.2080
 4382TIP3    H234638   0.289   4.149  16.903 -0.9385 -0.6722 -0.8108
 4383TIP3   OH234639   6.506   1.836  12.986 -0.3321 -0.1261  0.3184
 4383TIP3    H134640   6.440   1.883  12.935  0.1015  0.9622  0.7641
 4383TIP3    H234641   6.457   1.797  13.058 -0.0153  3.4936  2.5925
 4384TIP3   OH234642   0.068   5.398  13.568 -0.1164  0.3826  0.2176
 4384TIP3    H134643   0.122   5.320  13.553  0.9009  1.0407  0.3917
 4384TIP3    H234644   0.014   5.404  13.490  1.0638  0.5068 -0.6135
 4385TIP3   OH234645   2.120   6.026  11.440  0.0250  0.5189 -0.2206
 4385TIP3    H134646   2.203   6.031  11.393  0.9526 -0.2531  1.2942
 4385TIP3    H234647   2.126   6.096  11.505  0.4013 -0.9078  1.2965
 4386TIP3   OH234648   3.291   3.055   3.551 -0.0870  0.8955  0.5645
 4386TIP3    H134649   3.306   2.991   3.621 -0.5908 -0.2511 -0.3553
 4386TIP3    H234650   3.333   3.135   3.582 -0.2124  0.3703  2.1290
 4387TIP3   OH234651   2.590   1.681   1.962  0.5397  0.1863 -0.4208
 4387TIP3    H134652   2.638   1.600   1.977  1.1166  0.0253 -2.9869
 4387TIP3    H234653   2.621   1.741   2.030 -1.2131 -2.2523  2.6625
 4388TIP3   OH234654   3.555   4.187   0.206  0.2679 -0.3209 -0.7057
 4388TIP3    H134655   3.536   4.187   0.300  0.4265 -0.6071 -0.6724
 4388TIP3    H234656   3.488   4.128   0.169  0.6994 -0.8369 -0.6690
 4389TIP3   OH234657   3.011   4.905  16.617 -0.1976  0.3868  0.0364
 4389TIP3    H134658   3.091   4.945  16.652  1.4947 -1.1871 -1.8737
 4389TIP3    H234659   2.944   4.973  16.627  1.2698  1.6199  1.9892
 4390TIP3   OH234660   2.451   6.393  16.788 -0.1478 -0.0591  0.1707
 4390TIP3    H134661   2.468   6.476  16.744  1.1896 -0.0916  0.6244
 4390TIP3    H234662   2.443   6.330  16.716  1.0770  0.0562 -0.0634
 4391TIP3   OH234663   4.850   2.486  11.670 -0.1334  0.0484  0.1309
 4391TIP3    H134664   4.818   2.451  11.587 -0.0897  0.3871 -0.0317
 4391TIP3    H234665   4.937   2.447  11.680 -0.7628 -1.1941  0.7795
 4392TIP3   OH234666   4.055   5.824  13.868  0.5632 -0.4573 -0.3159
 4392TIP3    H134667   4.123   5.768  13.905 -1.2709 -2.6541 -0.1265
 4392TIP3    H234668   4.044   5.792  13.778 -1.4471 -1.3497  0.2228
 4393TIP3   OH234669   6.266   6.388   0.606 -0.0181 -0.7199  0.2766
 4393TIP3    H134670   6.260   6.443   0.684  0.0046 -1.3320  0.7116
 4393TIP3    H234671   6.217   6.309   0.628  0.3131 -1.0574 -0.1811
 4394TIP3   OH234672   0.137   2.953   3.905 -0.0868  0.1100  0.0543
 4394TIP3    H134673   0.196   2.990   3.971  0.5698 -1.2127  0.2314
 4394TIP3    H234674   0.069   2.910   3.956  0.9163 -1.7008 -0.1088
 4395TIP3   OH234675   1.857   3.813   4.304  0.4040 -0.5062 -0.5510
 4395TIP3    H134676   1.952   3.801   4.310  0.2615 -0.7608  1.3048
 4395TIP3    H234677   1.837   3.880   4.369 -0.4879  0.7432 -2.0841
 4396TIP3   OH234678   5.924   3.365   2.875  0.3246 -0.2305 -0.1502
 4396TIP3    H134679   5.961   3.390   2.960 -0.1050  0.4818 -0.1688
 4396TIP3    H234680   5.925   3.446   2.824  0.8769 -0.7326 -0.9353
 4397TIP3   OH234681   5.948   1.433   5.857 -0.0180 -0.1018  0.0357
 4397TIP3    H134682   5.975   1.343   5.876  1.8727  0.8137  1.8067
 4397TIP3    H234683   5.898   1.460   5.934  1.3332  1.1257  0.4940
 4398TIP3   OH234684   4.768   6.660  16.645  0.1621 -0.3822  0.2628
 4398TIP3    H134685   4.758   6.735  16.704 -0.8243 -0.3641  0.0856
 4398TIP3    H234686   4.694   6.604  16.665 -0.6486  0.0119 -1.5169
 4399TIP3   OH234687   4.898   1.196  16.911 -0.6166  0.1887  0.9668
 4399TIP3    H134688   4.967   1.206  16.976  0.1859  0.6654  0.0501
 4399TIP3    H234689   4.887   1.283  16.873 -1.6167  0.0856  0.9839
 4400TIP3   OH234690   5.693   2.571  16.221 -0.3151 -0.3273  0.0646
 4400TIP3    H134691   5.694   2.598  16.313 -0.2782  0.7556 -0.2484
 4400TIP3    H234692   5.618   2.617  16.183 -0.0822 -0.4462 -0.5456
 4401TIP3   OH234693   3.076   3.223  16.049 -0.4014 -0.0471 -0.2808
 4401TIP3    H134694   3.078   3.203  16.142  1.4695 -1.2108 -0.5555
 4401TIP3    H234695   3.089   3.318  16.045 -0.6613  0.0286  0.6460
 4402TIP3   OH234696   5.087   6.461  12.497 -0.2422 -0.6223  0.3986
 4402TIP3    H134697   4.995   6.448  12.475  0.1058 -0.7046 -1.0526
 4402TIP3    H234698   5.135   6.409  12.432  0.8196 -0.6636  1.2076
 4403TIP3   OH234699   1.454   4.988  13.707 -0.1615  0.0230  0.1274
 4403TIP3    H134700   1.466   5.083  13.699 -0.6707  0.1162  0.4149
 4403TIP3    H234701   1.478   4.969  13.798 -0.7000 -0.0169  0.2655
 4404TIP3   OH234702   0.802   2.752  11.787  0.3128 -0.0269  0.5173
 4404TIP3    H134703   0.757   2.668  11.799  0.2428 -0.0296  0.2258
 4404TIP3    H234704   0.877   2.746  11.846 -0.2179  0.0912  1.2241
 4405TIP3   OH234705   4.186   3.390   0.142  0.2159 -0.6553 -0.8547
 4405TIP3    H134706   4.202   3.410   0.049  2.0138  0.1472 -0.3936
 4405TIP3    H234707   4.272   3.398   0.183 -1.0133  1.8785  1.3883
 4406TIP3   OH234708   5.955   5.845   0.660  0.1780 -0.3881  0.1357
 4406TIP3    H134709   5.952   5.794   0.741 -0.0703  0.2936  0.5641
 4406TIP3    H234710   5.901   5.922   0.679 -0.0958 -0.3558 -0.7710
 4407TIP3   OH234711   3.162   2.552   5.896 -0.3521 -0.2330 -0.2072
 4407TIP3    H134712   3.220   2.591   5.830 -2.6971  0.0520 -2.1917
 4407TIP3    H234713   3.135   2.625   5.951 -1.0906  0.1607 -1.0763
 4408TIP3   OH234714   2.109   5.326  16.011  0.3129 -0.1856 -0.0535
 4408TIP3    H134715   2.150   5.344  15.927  1.4854 -2.2335  0.0298
 4408TIP3    H234716   2.178   5.282  16.062 -1.2179 -1.4494  0.9729
 4409TIP3   OH234717   6.287   4.814   4.384 -0.4102 -0.3245  0.0830
 4409TIP3    H134718   6.364   4.793   4.331 -1.4215 -2.4885 -0.5938
 4409TIP3    H234719   6.306   4.900   4.421  1.1927  0.3340 -2.1590
 4410TIP3   OH234720   0.412   1.749   1.502  0.0812 -0.3968 -0.2137
 4410TIP3    H134721   0.346   1.757   1.433  0.2315 -0.5676 -0.3782
 4410TIP3    H234722   0.367   1.703   1.573 -0.8984  2.1985  0.8891
 4411TIP3   OH234723   1.948   2.484   2.404 -0.3596  0.8152  0.1689
 4411TIP3    H134724   2.024   2.477   2.346 -0.0966 -1.9573  0.7974
 4411TIP3    H234725   1.874   2.459   2.349 -0.1231 -1.7053  0.9685
 4412TIP3   OH234726   1.078   1.980  13.250 -0.5943  0.1090  0.1946
 4412TIP3    H134727   1.116   2.044  13.311 -0.7949 -0.5143  0.9816
 4412TIP3    H234728   1.153   1.942  13.205 -0.3838 -0.0076  0.6370
 4413TIP3   OH234729   5.461   2.331   5.170 -0.2947  0.4372  0.7454
 4413TIP3    H134730   5.505   2.292   5.095  0.7605  2.3176  0.3535
 4413TIP3    H234731   5.497   2.285   5.246  1.0787  0.7787  0.3108
 4414TIP3   OH234732   0.915   0.961  14.435 -0.2117 -0.2885 -0.1891
 4414TIP3    H134733   0.895   0.914  14.354 -0.4927  1.2731 -1.0402
 4414TIP3    H234734   0.990   1.016  14.414 -0.4213  0.2933  0.5393
 4415TIP3   OH234735   4.904   0.033  10.281  0.4215 -0.3376 -0.4330
 4415TIP3    H134736   4.907   0.023  10.376 -1.3422 -0.8870 -0.4245
 4415TIP3    H234737   4.968  -0.031  10.249  1.0386 -0.1385  0.3684
 4416TIP3   OH234738   1.897   3.398  15.942 -0.1971  0.2121  0.2634
 4416TIP3    H134739   1.964   3.449  15.895 -0.8133  1.8386  1.1136
 4416TIP3    H234740   1.814   3.430  15.907 -0.5905 -0.3942  0.6396
 4417TIP3   OH234741   1.583   3.627  11.325  0.5917  0.4153 -0.1514
 4417TIP3    H134742   1.668   3.649  11.286  0.5163  0.4940 -0.2711
 4417TIP3    H234743   1.559   3.544  11.284  1.8618 -0.9855  1.8427
 4418TIP3   OH234744   2.859   5.452  11.154 -0.1466  0.3839  0.2156
 4418TIP3    H134745   2.880   5.359  11.159  0.5667  0.5133 -0.2539
 4418TIP3    H234746   2.844   5.468  11.061 -1.2808  0.5281  0.4156
 4419TIP3   OH234747   1.380   5.399  14.855  0.0711  0.0402 -0.5177
 4419TIP3    H134748   1.407   5.307  14.856 -0.6110 -0.1553  0.1245
 4419TIP3    H234749   1.309   5.404  14.919 -0.8013  0.7411 -1.5192
 4420TIP3   OH234750   1.578   1.965  14.485 -0.0701 -0.3781 -0.1460
 4420TIP3    H134751   1.645   1.979  14.418 -2.0611  0.1683 -2.0570
 4420TIP3    H234752   1.518   1.902  14.446 -1.3476  0.0699  1.0681
 4421TIP3   OH234753   2.479   0.886  11.944  0.4920  0.5945  0.5965
 4421TIP3    H134754   2.422   0.962  11.932 -0.6652 -0.4322 -0.5166
 4421TIP3    H234755   2.427   0.825  11.996  0.6611 -0.2521 -0.2152
 4422TIP3   OH234756   1.245   6.070  13.203 -0.0364 -0.3728  0.5505
 4422TIP3    H134757   1.167   6.019  13.185 -0.3374  0.7995 -1.6885
 4422TIP3    H234758   1.214   6.161  13.209  1.0728  0.0440  0.1966
 4423TIP3   OH234759   4.102   4.005  12.810  0.3769 -0.4749  0.5267
 4423TIP3    H134760   4.111   3.912  12.830  1.3341 -0.4069  0.4286
 4423TIP3    H234761   4.138   4.015  12.722  1.4976  0.2036  1.0520
 4424TIP3   OH234762   3.007   3.144   3.854 -0.3430 -0.7043 -0.0690
 4424TIP3    H134763   3.014   3.217   3.793  0.2677 -0.7273 -0.0254
 4424TIP3    H234764   3.093   3.139   3.896 -0.3216 -1.5769 -0.2175
 4425TIP3   OH234765   0.931   6.465  16.051 -0.2232  0.1018  0.4557
 4425TIP3    H134766   0.975   6.384  16.025  0.1683 -0.2490  2.1476
 4425TIP3    H234767   0.992   6.535  16.028 -0.6515 -0.0519 -1.2101
 4426TIP3   OH234768   2.812   1.619   4.466  0.6194  0.2162 -0.7600
 4426TIP3    H134769   2.902   1.634   4.440  0.5316  1.9135 -0.1154
 4426TIP3    H234770   2.779   1.705   4.491 -0.7127 -0.6196  0.4603
 4427TIP3   OH234771   5.937   1.837  12.722 -0.4695 -0.6363  0.0480
 4427TIP3    H134772   5.888   1.908  12.679  0.3119 -0.6364 -0.8651
 4427TIP3    H234773   5.951   1.773  12.652 -0.2010 -1.1803  0.5995
 4428TIP3   OH234774   5.220   2.087   1.656  0.3639  0.4670  0.1714
 4428TIP3    H134775   5.254   2.009   1.612 -2.1531  0.4593 -1.8541
 4428TIP3    H234776   5.268   2.160   1.616  1.7507  0.0895  1.1109
 4429TIP3   OH234777   1.957   6.672  15.231  0.1095  0.0207  1.0380
 4429TIP3    H134778   1.920   6.669  15.143  0.2462  0.2808  0.9713
 4429TIP3    H234779   1.930   6.589  15.271 -0.5607  0.2158  0.9959
 4430TIP3   OH234780   3.761   5.342   0.068 -0.0774  0.6375  0.0247
 4430TIP3    H134781   3.719   5.371   0.149 -1.0270  0.7880 -0.5166
 4430TIP3    H234782   3.803   5.259   0.090  0.8132  1.3443  1.0220
 4431TIP3   OH234783   6.058   6.535   5.398  0.0755  0.4099  0.2343
 4431TIP3    H134784   6.117   6.599   5.359 -0.3373 -0.3564 -1.7214
 4431TIP3    H234785   6.014   6.582   5.469  0.8660  1.8426 -0.2198
 4432TIP3   OH234786   4.267   1.641  11.637  0.2899  0.0217  0.3173
 4432TIP3    H134787   4.257   1.708  11.705 -1.0463 -0.5840  0.7195
 4432TIP3    H234788   4.349   1.597  11.659  0.0409  0.0575  1.3388
 4433TIP3   OH234789   2.862   2.970   1.352 -0.3658  0.3909  0.2974
 4433TIP3    H134790   2.818   3.002   1.274 -0.5957  1.0433  0.6906
 4433TIP3    H234791   2.875   2.876   1.336  1.3043  0.8796 -1.3252
 4434TIP3   OH234792   0.330   4.830   6.077 -0.7724 -0.4255  0.5518
 4434TIP3    H134793   0.423   4.826   6.097 -0.9447 -0.6364  1.3369
 4434TIP3    H234794   0.287   4.832   6.163 -1.4290  1.0315  0.1970
 4435TIP3   OH234795   1.721   2.586   1.570  0.0630  0.0010  0.2793
 4435TIP3    H134796   1.756   2.576   1.658 -0.7817 -1.5759  0.4479
 4435TIP3    H234797   1.626   2.593   1.583  0.0097  0.6963 -0.4331
 4436TIP3   OH234798   2.270   4.947  16.914  0.6985  0.4135 -0.1042
 4436TIP3    H134799   2.305   4.882  16.976  0.9422  0.8835  0.2611
 4436TIP3    H234800   2.337   4.952  16.845 -1.5720 -3.3111 -2.7244
 4437TIP3   OH234801   0.189   4.847  13.104  0.1003 -0.2881 -0.7157
 4437TIP3    H134802   0.130   4.841  13.029  0.1417  0.0545 -0.7799
 4437TIP3    H234803   0.265   4.795  13.079  1.0891  1.6340 -1.8540
 4438TIP3   OH234804   6.676   1.412   5.373 -0.5119  1.1638  0.2165
 4438TIP3    H134805   6.615   1.364   5.317 -1.0046  0.2095  1.5395
 4438TIP3    H234806   6.720   1.473   5.314 -2.0226  1.1576 -0.9385
 4439TIP3   OH234807   1.597   4.328   4.449 -0.3969  0.0196 -0.3750
 4439TIP3    H134808   1.692   4.316   4.440 -0.8248 -2.9374 -1.6328
 4439TIP3    H234809   1.576   4.286   4.533 -0.3030  2.7403  1.0409
 4440TIP3   OH234810   6.248   2.264  14.291  0.0715 -0.1224  0.4069
 4440TIP3    H134811   6.326   2.289  14.340  0.3214  0.0898 -0.0896
 4440TIP3    H234812   6.183   2.242  14.358  0.1950  0.8016  0.8429
 4441TIP3   OH234813   2.048   3.392  16.981  0.7012 -0.1999  0.1564
 4441TIP3    H134814   1.987   3.429  17.045  0.7050  1.2001 -0.6370
 4441TIP3    H234815   2.082   3.313  17.023  1.5700  1.3104  2.3695
 4442TIP3   OH234816   3.820   4.165  13.433 -0.0201 -0.8303 -0.1344
 4442TIP3    H134817   3.802   4.184  13.525  0.0662  1.0927 -0.4766
 4442TIP3    H234818   3.741   4.121  13.401  0.1369 -1.9104  0.9730
 4443TIP3   OH234819   5.721   5.263   0.377  0.3042  0.5667 -0.1566
 4443TIP3    H134820   5.735   5.326   0.448 -1.1924  1.9685 -1.0510
 4443TIP3    H234821   5.685   5.316   0.305 -0.9222 -1.2943 -0.9633
 4444TIP3   OH234822   2.041   2.612   0.484 -0.0047 -0.1555  0.7755
 4444TIP3    H134823   2.123   2.646   0.518  0.3697 -0.2259 -0.0402
 4444TIP3    H234824   1.973   2.666   0.525  0.3996 -0.5952  2.0337
 4445TIP3   OH234825   0.079   4.243   0.833 -0.0606 -0.1427  0.1495
 4445TIP3    H134826   0.056   4.309   0.899 -0.9556  0.1656 -0.4645
 4445TIP3    H234827   0.158   4.279   0.791 -1.1244  1.0486 -0.8718
 4446TIP3   OH234828   4.132   5.895   0.583 -0.4283  0.6330  0.1359
 4446TIP3    H134829   4.068   5.908   0.653  0.7386  1.5304  1.0488
 4446TIP3    H234830   4.214   5.876   0.628  0.7490  3.0172 -0.8836
 4447TIP3   OH234831   6.220   0.146   6.440 -0.1100  0.4390  0.1205
 4447TIP3    H134832   6.315   0.136   6.438  0.0714  1.9735  0.8160
 4447TIP3    H234833   6.192   0.089   6.511  0.0606 -1.6391 -1.4240
 4448TIP3   OH234834   4.970   6.434  11.341 -0.7284 -0.8562  0.1950
 4448TIP3    H134835   5.044   6.442  11.280  0.5015 -0.5450  1.7030
 4448TIP3    H234836   4.984   6.350  11.384 -1.0724 -0.6402  0.7186
 4449TIP3   OH234837   4.013   4.270   2.296  0.3735  0.2610 -0.3676
 4449TIP3    H134838   4.052   4.189   2.263 -0.4151 -1.1053  1.8988
 4449TIP3    H234839   3.970   4.310   2.221  0.7197 -1.4710 -1.4953
 4450TIP3   OH234840   0.828   6.471   1.629 -0.0293  0.1074 -0.7004
 4450TIP3    H134841   0.824   6.432   1.717  0.9730  3.5267  0.9527
 4450TIP3    H234842   0.737   6.492   1.608 -0.1098  0.7778  0.2658
 4451TIP3   OH234843   2.989   0.520   0.179  0.5498 -0.5273  0.5899
 4451TIP3    H134844   3.005   0.577   0.105  1.1143 -0.2635  0.9031
 4451TIP3    H234845   2.999   0.431   0.144  1.5002 -0.3930  0.4865
 4452TIP3   OH234846   4.114   4.582  14.854  0.7091 -0.0268  0.3735
 4452TIP3    H134847   4.023   4.587  14.825  1.1728 -1.3359 -1.4198
 4452TIP3    H234848   4.147   4.671  14.844 -0.1516  0.2869  0.2615
 4453TIP3   OH234849   1.134   2.946   0.706 -0.1696  0.2220  0.0461
 4453TIP3    H134850   1.041   2.934   0.688 -0.1324 -1.0650  0.6552
 4453TIP3    H234851   1.165   2.858   0.730  1.8210  0.0324 -2.9596
 4454TIP3   OH234852   2.060   5.757  14.981 -0.3928 -0.0543 -0.9066
 4454TIP3    H134853   1.998   5.742  14.909  0.1610 -0.0842 -1.3895
 4454TIP3    H234854   2.129   5.692  14.966  0.9439  1.5145 -1.7424
 4455TIP3   OH234855   5.779   6.814  16.966 -0.0131  0.7980 -0.3748
 4455TIP3    H134856   5.837   6.830  17.040  1.0017  0.8169 -1.1697
 4455TIP3    H234857   5.729   6.736  16.992  2.8646 -1.3848 -1.1348
 4456TIP3   OH234858   0.626   2.126   1.388 -0.0189 -0.0523  0.1193
 4456TIP3    H134859   0.569   2.185   1.340  0.8237  0.5862 -0.1111
 4456TIP3    H234860   0.566   2.068   1.435 -0.8466  0.1118 -0.7175
 4457TIP3   OH234861   4.794   4.233  13.663 -0.1798 -0.2119 -0.1580
 4457TIP3    H134862   4.770   4.163  13.724  0.0034 -0.2866 -0.1712
 4457TIP3    H234863   4.774   4.198  13.576 -0.6147 -0.0360 -0.1304
 4458TIP3   OH234864   6.175   0.895  11.942  0.1282 -0.5652 -0.1499
 4458TIP3    H134865   6.133   0.896  11.855  0.7409  0.9709 -0.4476
 4458TIP3    H234866   6.175   0.803  11.967  0.0648 -1.0572 -1.8497
 4459TIP3   OH234867   6.593   0.769  16.189 -0.3000 -0.5152  1.0753
 4459TIP3    H134868   6.588   0.695  16.248 -0.0574 -1.1185  0.3462
 4459TIP3    H234869   6.687   0.785  16.178 -0.2864 -1.7590 -0.8104
 4460TIP3   OH234870   4.532   5.403   3.705 -0.3062  0.3042 -0.0310
 4460TIP3    H134871   4.439   5.396   3.685  0.0004  0.9652 -1.7878
 4460TIP3    H234872   4.571   5.441   3.626  2.1082 -4.1012 -1.1444
 4461TIP3   OH234873   5.104   6.214  11.401  0.1749  0.0423  0.1640
 4461TIP3    H134874   5.093   6.165  11.482  0.8828  2.4874  1.7650
 4461TIP3    H234875   5.089   6.149  11.332 -0.5150 -2.0454  2.2222
 4462TIP3   OH234876   5.263   5.055  12.933 -0.6801 -0.2385  0.8622
 4462TIP3    H134877   5.181   5.040  12.886 -1.7033  0.8479  2.2822
 4462TIP3    H234878   5.237   5.095  13.015  1.1404 -1.6683  2.1821
 4463TIP3   OH234879   6.498   5.213  14.680  0.1290 -0.7251 -0.0318
 4463TIP3    H134880   6.593   5.218  14.683  0.0599  0.6647  0.0918
 4463TIP3    H234881   6.472   5.191  14.769  0.2777 -0.2280  0.1313
 4464TIP3   OH234882   2.065   6.640   0.252 -0.2699 -0.4715  0.3309
 4464TIP3    H134883   2.098   6.554   0.277 -0.8138 -1.1977 -1.3356
 4464TIP3    H234884   1.986   6.651   0.305  0.1521 -0.7132  1.0206
 4465TIP3   OH234885   1.504   1.128  13.594 -0.4966  0.6210 -0.2700
 4465TIP3    H134886   1.419   1.172  13.597  0.0547  1.6193  2.4550
 4465TIP3    H234887   1.568   1.197  13.613  0.6793 -0.6307  0.4504
 4466TIP3   OH234888   3.294   2.988   5.209  0.2107 -0.1737  0.1669
 4466TIP3    H134889   3.240   2.968   5.132 -0.8020 -0.4906  0.9384
 4466TIP3    H234890   3.372   3.030   5.174  0.9508 -2.6433 -1.2528
 4467TIP3   OH234891   0.481   3.511  16.554 -0.1674 -0.2694  0.7167
 4467TIP3    H134892   0.497   3.473  16.468 -1.7929  0.4965  0.0586
 4467TIP3    H234893   0.528   3.594  16.553  0.1339 -0.4408  0.7095
 4468TIP3   OH234894   4.085   1.097  12.220 -0.0895  0.1464 -0.5840
 4468TIP3    H134895   4.134   1.066  12.297  0.3124 -0.5775 -1.1259
 4468TIP3    H234896   4.004   1.134  12.256  0.2241  0.0623  0.2076
 4469TIP3   OH234897   5.105   0.950   4.505 -0.6489  0.3069 -0.6939
 4469TIP3    H134898   5.106   0.947   4.409 -0.2208  2.7375 -0.8133
 4469TIP3    H234899   5.019   0.986   4.526 -0.1965  1.1246 -0.2366
 4470TIP3   OH234900   2.549   4.982  16.337  0.6979  0.4562 -0.1896
 4470TIP3    H134901   2.519   4.991  16.427  1.2045 -0.3493  0.0603
 4470TIP3    H234902   2.636   4.944  16.345  0.8012  0.5171 -1.0188
 4471TIP3   OH234903   6.515   4.629   1.040  0.2200 -0.0178 -0.5533
 4471TIP3    H134904   6.559   4.565   0.984 -0.6955  0.9874 -2.4897
 4471TIP3    H234905   6.422   4.614   1.025 -0.0567  0.0262  1.0190
 4472TIP3   OH234906   3.920   0.600   6.798  0.3168 -0.4727  0.1458
 4472TIP3    H134907   3.956   0.525   6.845  0.9127 -0.5074 -0.3614
 4472TIP3    H234908   3.851   0.634   6.856  1.5915 -0.0160  1.4282
 4473TIP3   OH234909   3.572   6.134   0.056 -0.3884  0.4331  0.7261
 4473TIP3    H134910   3.636   6.070   0.088 -0.1099  0.8661  1.0200
 4473TIP3    H234911   3.496   6.122   0.113 -0.6858 -0.2706  0.2064
 4474TIP3   OH234912   3.346   2.585   4.092  0.4442 -0.1776 -0.2690
 4474TIP3    H134913   3.435   2.552   4.083  0.5108 -0.2451  0.6404
 4474TIP3    H234914   3.309   2.536   4.165 -0.1331  0.2971 -0.2399
 4475TIP3   OH234915   1.906   1.641   1.967 -0.4459  0.2343  0.7121
 4475TIP3    H134916   1.849   1.693   1.910 -1.3281 -1.2617  0.2193
 4475TIP3    H234917   1.994   1.670   1.945 -0.8376  0.3983 -0.6903
 4476TIP3   OH234918   4.696   0.668  10.521 -0.5829  0.0355  0.6380
 4476TIP3    H134919   4.688   0.631  10.433 -1.6023 -0.1438  0.8060
 4476TIP3    H234920   4.740   0.752  10.507 -2.7320  1.0523 -0.3024
 4477TIP3   OH234921   5.377   1.202  15.031  0.5402  0.1263  0.1541
 4477TIP3    H134922   5.408   1.292  15.044  1.4669 -0.1407 -0.1453
 4477TIP3    H234923   5.297   1.196  15.083 -1.2776  2.0762 -2.2991
 4478TIP3   OH234924   6.694   5.756   0.590 -0.4925  0.6122  0.0894
 4478TIP3    H134925   6.616   5.783   0.542 -1.2173 -0.2624  0.7581
 4478TIP3    H234926   6.741   5.700   0.528 -1.9299 -1.3405  0.7016
 4479TIP3   OH234927   1.964   3.385   5.054 -0.3863  0.5921  0.3135
 4479TIP3    H134928   2.054   3.369   5.081 -0.8428  0.2768  1.7200
 4479TIP3    H234929   1.922   3.299   5.060 -1.0592  0.9501  0.7915
 4480TIP3   OH234930   3.466   1.646   1.308 -0.0396 -0.8821 -0.0257
 4480TIP3    H134931   3.399   1.618   1.370 -0.6174  1.2578  0.3592
 4480TIP3    H234932   3.419   1.662   1.226  0.1811 -0.4786 -0.0783
 4481TIP3   OH234933   4.126   6.770  11.785  0.0864 -0.2445  0.3188
 4481TIP3    H134934   4.178   6.847  11.761  1.3543 -1.2119 -0.1631
 4481TIP3    H234935   4.185   6.718  11.840 -1.5040  0.1367  2.4136
 4482TIP3   OH234936   3.134   2.197   1.284  0.0588 -0.0465  0.4178
 4482TIP3    H134937   3.206   2.225   1.227 -0.9892  0.8599 -0.5034
 4482TIP3    H234938   3.055   2.215   1.233 -0.8978  0.5905  2.0786
 4483TIP3   OH234939   4.079   5.089  12.179  0.1479 -0.0360 -0.1688
 4483TIP3    H134940   4.132   5.117  12.254  0.2235 -0.7644  0.0478
 4483TIP3    H234941   4.126   5.124  12.103 -0.3715  1.4140  0.1625
 4484TIP3   OH234942   6.572   0.558  16.349  0.2924 -0.2504  0.4316
 4484TIP3    H134943   6.589   0.517  16.434 -0.8710 -0.6914  0.4631
 4484TIP3    H234944   6.645   0.531  16.294  0.1265 -1.4281  0.7827
 4485TIP3   OH234945   6.591   2.158   5.601 -0.1382  0.1220 -0.0428
 4485TIP3    H134946   6.684   2.138   5.604 -0.5703 -2.1484 -0.3814
 4485TIP3    H234947   6.548   2.077   5.631 -2.0379  0.3397 -2.0310
 4486TIP3   OH234948   5.186   4.060   4.045  0.0369 -0.0274 -0.0541
 4486TIP3    H134949   5.200   3.987   4.105 -0.1562 -0.0511 -0.0374
 4486TIP3    H234950   5.122   4.116   4.088  1.5229  1.0839  0.7335
 4487TIP3   OH234951   5.213   2.637  11.203 -0.1029 -0.2457 -0.7055
 4487TIP3    H134952   5.141   2.634  11.266  0.1320  1.5597 -0.3254
 4487TIP3    H234953   5.249   2.549  11.204 -2.0810 -1.0717 -0.6267
 4488TIP3   OH234954   0.271   0.910  14.872 -0.2388  0.3009 -0.3692
 4488TIP3    H134955   0.224   0.828  14.852 -0.1289  0.1862 -0.1656
 4488TIP3    H234956   0.221   0.948  14.945  0.1740  0.0123  0.0700
 4489TIP3   OH234957   6.622   1.019   1.144  0.0337 -0.2770  0.1148
 4489TIP3    H134958   6.590   1.109   1.153 -3.1132 -1.2651 -0.7764
 4489TIP3    H234959   6.640   0.991   1.234  0.0500  0.8522  0.4801
 4490TIP3   OH234960   1.877   5.477  17.282  0.0581 -0.2503  0.7174
 4490TIP3    H134961   1.810   5.545  17.279  1.3554  0.9696 -1.4831
 4490TIP3    H234962   1.837   5.402  17.237  0.1254  0.4439 -0.5183
 4491TIP3   OH234963   5.290   6.169  15.659 -0.7726  0.6510 -0.5777
 4491TIP3    H134964   5.226   6.098  15.660  0.8562 -0.8499 -0.2070
 4491TIP3    H234965   5.273   6.218  15.740 -0.3638 -0.7197  0.3428
 4492TIP3   OH234966   1.973   2.963   3.952  0.2638  0.9869 -0.3302
 4492TIP3    H134967   1.936   2.881   3.919  0.6597  1.0602 -0.9689
 4492TIP3    H234968   1.933   3.030   3.897 -0.6717  1.3032  0.7106
 4493TIP3   OH234969   0.153   4.140   5.684 -0.2912 -0.3828  0.2909
 4493TIP3    H134970   0.149   4.233   5.661 -1.4759 -0.2892  0.8184
 4493TIP3    H234971   0.216   4.136   5.756  1.7948 -0.3814 -1.4782
 4494TIP3   OH234972   5.780   2.908  16.242 -0.0688 -0.1080  0.2145
 4494TIP3    H134973   5.808   2.816  16.249 -0.8254 -0.4288 -0.7791
 4494TIP3    H234974   5.745   2.928  16.329 -1.5093 -1.3305 -0.0499
 4495TIP3   OH234975   2.320   4.752   6.048 -0.1655  0.1114  0.1302
 4495TIP3    H134976   2.241   4.792   6.011 -0.4015 -1.7139 -1.4363
 4495TIP3    H234977   2.392   4.807   6.015 -0.6092  0.3081 -0.5243
 4496TIP3   OH234978   6.180   0.411  13.294  0.3012 -0.0031 -0.2396
 4496TIP3    H134979   6.226   0.404  13.377  0.3491  2.1497 -0.0776
 4496TIP3    H234980   6.155   0.503  13.286  0.7321 -0.0549 -2.8342
 4497TIP3   OH234981   5.034   5.419   3.595 -0.0099  0.4628 -0.0346
 4497TIP3    H134982   5.129   5.429   3.590  0.0552  0.0233  0.3896
 4497TIP3    H234983   5.005   5.496   3.643  0.1830  0.3198  0.3118
 4498TIP3   OH234984   5.199   0.055  10.165  0.2389  0.5701 -0.8992
 4498TIP3    H134985   5.159  -0.032  10.171 -0.2914  0.7945 -1.0915
 4498TIP3    H234986   5.266   0.047  10.098  1.8076 -0.3033  0.7496
 4499TIP3   OH234987   3.771   5.609  10.625 -0.2261 -0.0648 -0.8177
 4499TIP3    H134988   3.726   5.631  10.706  1.2596  1.7270 -0.4645
 4499TIP3    H234989   3.783   5.514  10.629 -0.2000  0.0101  1.0224
 4500TIP3   OH234990   1.702   3.001   0.584 -0.1547 -0.1129 -0.3376
 4500TIP3    H134991   1.733   3.090   0.570  0.3708 -0.2187  0.1721
 4500TIP3    H234992   1.641   3.008   0.657  1.5875 -0.5414  1.1649
 4501TIP3   OH234993   1.400   1.185   3.515  0.5369  0.0847 -0.1870
 4501TIP3    H134994   1.368   1.095   3.506  0.6035 -0.0648  1.0041
 4501TIP3    H234995   1.331   1.239   3.477 -1.5848 -0.1784  3.0938
 4502TIP3   OH234996   1.771   6.033  10.886  0.0624 -0.4912  0.1404
 4502TIP3    H134997   1.859   6.054  10.917 -0.7826  1.2493  1.4515
 4502TIP3    H234998   1.735   6.117  10.858 -1.3822 -1.0918  0.1375
 4503TIP3   OH234999   4.179   6.460  15.039 -0.0380 -0.2939  0.1855
 4503TIP3    H135000   4.184   6.531  14.976  0.5729  0.5737  1.1909
 4503TIP3    H235001   4.162   6.382  14.987 -1.5088  0.6982 -0.8630
 4504TIP3   OH235002   2.999   5.368   4.670  0.3702 -0.2211 -0.0994
 4504TIP3    H135003   2.905   5.355   4.679  0.1003  0.5415 -1.6876
 4504TIP3    H235004   3.008   5.435   4.602  2.0980 -1.6037 -1.2935
 4505TIP3   OH235005   2.990   0.257   6.257  0.1134 -0.5445  0.1335
 4505TIP3    H135006   3.069   0.257   6.311  1.0700 -1.0738 -1.2508
 4505TIP3    H235007   2.972   0.350   6.242  1.1811 -0.4434 -0.5634
 4506TIP3   OH235008   5.745   4.836  15.769 -0.3968  0.1077  0.1777
 4506TIP3    H135009   5.801   4.802  15.838 -0.9779 -0.9485  0.1388
 4506TIP3    H235010   5.664   4.862  15.813 -0.1927  0.8717  0.1141
 4507TIP3   OH235011   5.857   4.008   4.413 -0.0859 -0.1549 -0.0614
 4507TIP3    H135012   5.929   3.944   4.409  0.6733  0.7563 -1.4742
 4507TIP3    H235013   5.813   3.999   4.328 -0.1416  0.9864 -0.1607
 4508TIP3   OH235014   4.936   3.457   5.412  0.1674  0.0609 -0.4505
 4508TIP3    H135015   4.910   3.449   5.320  0.5366 -0.2205 -0.5350
 4508TIP3    H235016   4.950   3.366   5.440 -0.8175  0.0910  0.1423
 4509TIP3   OH235017   6.585   6.523  10.936 -0.3781 -0.4811  0.0208
 4509TIP3    H135018   6.517   6.455  10.929 -0.7051 -0.6005  3.4644
 4509TIP3    H235019   6.663   6.481  10.900 -1.5228 -1.2220 -1.6972
 4510TIP3   OH235020   1.684   6.524  14.703  0.4300  0.1344 -0.1638
 4510TIP3    H135021   1.726   6.608  14.723 -0.1837  0.3121  0.4064
 4510TIP3    H235022   1.756   6.467  14.677  0.9419  0.6313  0.1465
 4511TIP3   OH235023   6.288   6.741  16.118 -0.0134  0.3714  0.4847
 4511TIP3    H135024   6.320   6.652  16.109 -0.2401  0.2476  0.8800
 4511TIP3    H235025   6.193   6.732  16.127 -0.2125  0.7652 -1.0832
 4512TIP3   OH235026   2.525   5.974  15.699  0.3226  0.1942  0.2293
 4512TIP3    H135027   2.498   6.066  15.690  1.5049  0.6064  0.8119
 4512TIP3    H235028   2.561   5.952  15.613 -0.3525  0.1315 -0.0461
 4513TIP3   OH235029   2.258   4.385   6.042 -0.0141  0.1717 -0.4682
 4513TIP3    H135030   2.194   4.440   5.996 -0.8640  1.8186  2.5851
 4513TIP3    H235031   2.207   4.311   6.075 -0.1294  0.8731  0.9438
 4514TIP3   OH235032   0.809   4.268  14.742  0.0458  1.0051 -0.0735
 4514TIP3    H135033   0.743   4.233  14.802 -1.1913 -2.4299 -3.2932
 4514TIP3    H235034   0.801   4.363  14.752 -1.9834  0.5778  3.1712
 4515TIP3   OH235035   1.849   6.303  12.098  0.3134 -0.0457  1.2790
 4515TIP3    H135036   1.904   6.241  12.146 -1.4610  0.0394  3.4866
 4515TIP3    H235037   1.839   6.377  12.157  0.3373  1.2624 -0.3389
 4516TIP3   OH235038   1.295   1.838  12.198  0.4952 -0.2128  0.0699
 4516TIP3    H135039   1.285   1.915  12.142  4.0191  1.8660  2.0821
 4516TIP3    H235040   1.318   1.767  12.138  1.6804  1.3718 -1.4086
 4517TIP3   OH235041   6.760   5.249   5.507 -0.4143  0.1735 -0.1708
 4517TIP3    H135042   6.732   5.161   5.480  1.4239 -0.3942 -0.3385
 4517TIP3    H235043   6.822   5.233   5.578 -0.2538  1.3588 -0.0404
 4518TIP3   OH235044   5.408   0.929  11.845 -0.3914 -0.3957  0.8163
 4518TIP3    H135045   5.447   0.842  11.860  0.8342 -0.0185 -0.0518
 4518TIP3    H235046   5.358   0.919  11.764 -1.7695 -0.7625  1.6965
 4519TIP3   OH235047   6.015   2.256   5.285 -0.3176  0.0625  0.0664
 4519TIP3    H135048   6.089   2.204   5.253  0.1056  0.4801  0.3628
 4519TIP3    H235049   5.951   2.253   5.213  0.7033  1.1500 -0.9040
 4520TIP3   OH235050   4.510   2.956   3.760  0.2983 -0.0384  0.4270
 4520TIP3    H135051   4.485   2.887   3.821  0.3040 -0.7683 -0.4043
 4520TIP3    H235052   4.551   2.911   3.687 -1.6717  0.6308 -1.1526
 4521TIP3   OH235053   5.821   4.692   0.631 -0.7173  0.5560 -0.6383
 4521TIP3    H135054   5.859   4.769   0.590 -1.0118  0.8013 -0.4532
 4521TIP3    H235055   5.879   4.620   0.607 -1.0792  0.6375 -1.7614
 4522TIP3   OH235056   0.275   3.017   4.143  0.1709  0.2828 -0.5738
 4522TIP3    H135057   0.342   3.065   4.095  1.9068 -0.7655  0.7636
 4522TIP3    H235058   0.309   3.009   4.232 -0.1078 -3.2747 -0.6891
 4523TIP3   OH235059   0.052   4.519   0.351  0.0834 -0.2966  0.1232
 4523TIP3    H135060   0.135   4.472   0.342  0.6546  0.7502 -0.1453
 4523TIP3    H235061   0.009   4.509   0.266 -0.1788 -1.0459  0.3415
 4524TIP3   OH235062   1.666   0.095   0.519  0.4584 -0.0034  0.1452
 4524TIP3    H135063   1.614   0.016   0.532 -0.1872  0.6369  1.6602
 4524TIP3    H235064   1.721   0.100   0.598 -0.0697  1.4547  0.4329
 4525TIP3   OH235065   6.550   0.789   2.510 -0.2805  0.4220 -0.0710
 4525TIP3    H135066   6.549   0.802   2.604 -0.8043 -0.1807  0.0082
 4525TIP3    H235067   6.457   0.781   2.486 -0.1893  1.2649 -0.7295
 4526TIP3   OH235068   2.688   4.510  16.752  0.2823  0.2890 -0.1589
 4526TIP3    H135069   2.640   4.469  16.680 -1.4077 -0.5021  1.3617
 4526TIP3    H235070   2.779   4.485  16.737 -0.1712 -0.6164 -1.5321
 4527TIP3   OH235071   4.077   3.760   6.096  0.3302  0.2515 -0.6214
 4527TIP3    H135072   3.997   3.738   6.144  0.8166 -1.0752 -0.3916
 4527TIP3    H235073   4.133   3.684   6.108  1.6616  1.2052 -0.7271
 4528TIP3   OH235074   0.837   1.833   2.132  0.1214  0.2437 -0.0682
 4528TIP3    H135075   0.926   1.799   2.123  0.5451  1.5028 -0.9406
 4528TIP3    H235076   0.849   1.923   2.162 -0.9301 -0.0658  1.3328
 4529TIP3   OH235077   2.749   3.975   4.969  0.0911  0.1445  0.0012
 4529TIP3    H135078   2.760   4.056   5.018 -2.2719  0.5895 -0.1412
 4529TIP3    H235079   2.705   3.916   5.031  2.2076 -1.2130  0.2648
 4530TIP3   OH235080   2.092   5.849   6.100 -0.4873  0.6926  0.1321
 4530TIP3    H135081   2.112   5.864   6.193 -1.6951 -0.1399  0.5341
 4530TIP3    H235082   2.032   5.775   6.100  0.3642 -0.0266 -1.3949
 4531TIP3   OH235083   3.055   6.794  15.576  0.0187 -0.3090 -0.1885
 4531TIP3    H135084   3.088   6.793  15.486  3.1865  2.1366  0.8529
 4531TIP3    H235085   3.027   6.884  15.591  1.5976 -0.1323  1.9518
 4532TIP3   OH235086   2.066   1.755  15.725  0.0040  0.2472  0.3871
 4532TIP3    H135087   2.049   1.840  15.685 -0.0994 -0.8277 -1.9391
 4532TIP3    H235088   2.141   1.721  15.677  0.7010 -0.5684  1.9951
 4533TIP3   OH235089   1.055   5.168  15.885 -0.1557 -0.2348  0.2465
 4533TIP3    H135090   1.045   5.096  15.947 -1.8739 -1.1321 -1.0454
 4533TIP3    H235091   1.116   5.135  15.819  1.1292  0.4707  1.0617
 4534TIP3   OH235092   4.490   6.026   1.827 -0.0226  0.2527 -0.4704
 4534TIP3    H135093   4.397   6.014   1.845 -0.0737 -0.2248 -1.0312
 4534TIP3    H235094   4.526   6.062   1.908 -0.7496  0.7116 -0.3442
 4535TIP3   OH235095   0.037   5.936  16.750 -0.7147 -0.3791  0.8495
 4535TIP3    H135096   0.122   5.924  16.710 -1.6352 -1.0041 -0.9656
 4535TIP3    H235097   0.047   6.014  16.805  0.1083  1.5534 -1.9295
 4536TIP3   OH235098   0.514   1.450  16.997  0.7379 -0.1130  0.1563
 4536TIP3    H135099   0.600   1.435  17.037  0.4366 -0.9855  0.5053
 4536TIP3    H235100   0.533   1.487  16.911  1.4604 -0.1418  0.3031
 4537TIP3   OH235101   5.712   0.058   2.751  0.0130 -0.2533 -0.0608
 4537TIP3    H135102   5.788   0.110   2.776  1.3379 -1.5527 -1.3052
 4537TIP3    H235103   5.639   0.120   2.755  1.0005  0.8271  1.8316
 4538TIP3   OH235104   1.700   6.771  12.747 -0.5392 -0.1278 -0.0541
 4538TIP3    H135105   1.775   6.813  12.704 -0.8242 -0.9035 -1.3194
 4538TIP3    H235106   1.639   6.842  12.764  0.4954  0.5277  1.0440
 4539TIP3   OH235107   6.792   0.789   4.496  0.1496 -0.2492 -0.2149
 4539TIP3    H135108   6.777   0.877   4.533  1.1172  0.3898 -1.3172
 4539TIP3    H235109   6.739   0.788   4.417  0.9975 -0.2649 -0.7796
 4540TIP3   OH235110   1.792   0.067   4.454 -0.3723 -0.6440 -0.1991
 4540TIP3    H135111   1.870   0.121   4.472 -1.2546  0.5908 -0.0192
 4540TIP3    H235112   1.741   0.072   4.535 -0.8835 -1.0202 -0.5020
 4541TIP3   OH235113   3.967   3.355   1.678  0.0941  0.8525 -0.5864
 4541TIP3    H135114   3.916   3.430   1.709 -1.7527 -0.0898 -1.2603
 4541TIP3    H235115   4.033   3.393   1.620 -0.2268  2.0552 -0.1679
 4542TIP3   OH235116   4.964   5.064   5.475  0.0909 -0.3992 -0.4548
 4542TIP3    H135117   4.934   5.139   5.423 -3.4419 -1.3603  0.0989
 4542TIP3    H235118   4.982   5.101   5.561  0.3195  0.1531 -0.7349
 4543TIP3   OH235119   2.844   4.503   4.178 -0.2005  0.3321  0.4061
 4543TIP3    H135120   2.924   4.466   4.141 -0.3227  0.4708 -0.0088
 4543TIP3    H235121   2.874   4.575   4.233 -0.0994  1.0666 -0.5964
 4544TIP3   OH235122   6.775   1.331  11.500  0.0340  0.1574 -0.4525
 4544TIP3    H135123   6.713   1.299  11.565  1.7722 -0.6982  0.8367
 4544TIP3    H235124   6.832   1.256  11.483  0.4220  0.7826 -1.9614
 4545TIP3   OH235125   3.808   6.341  16.914 -0.0930  0.5560 -0.5606
 4545TIP3    H135126   3.775   6.386  16.992  2.6857 -0.4139  1.2690
 4545TIP3    H235127   3.882   6.394  16.885  1.3685 -1.1925 -0.1316
 4546TIP3   OH235128   0.272   5.845  17.080  0.4005  0.1509  0.0790
 4546TIP3    H135129   0.368   5.850  17.088  0.6428  0.7646 -2.6956
 4546TIP3    H235130   0.240   5.902  17.151  1.9791 -1.8583  2.4989
 4547TIP3   OH235131   5.414   3.148  15.571  0.9571 -0.1082 -0.1114
 4547TIP3    H135132   5.362   3.139  15.491 -1.4993  1.4922  1.2619
 4547TIP3    H235133   5.457   3.063  15.581 -0.1227 -0.9257 -2.1218
 4548TIP3   OH235134   3.875   5.481  12.256  0.0051 -0.5343 -0.0657
 4548TIP3    H135135   3.893   5.503  12.165  0.4334 -0.3888  0.0546
 4548TIP3    H235136   3.956   5.501  12.302 -0.7139  0.8828  0.6161
 4549TIP3   OH235137   1.340   5.066  15.906 -0.1338  0.6129  0.2536
 4549TIP3    H135138   1.355   5.156  15.876  2.5195  0.0300 -0.3365
 4549TIP3    H235139   1.414   5.048  15.965 -0.7437 -1.1020  0.5092
 4550TIP3   OH235140   3.429   3.111  16.224 -0.2592 -0.1475  0.1792
 4550TIP3    H135141   3.353   3.137  16.276  0.0751 -1.2211  1.2026
 4550TIP3    H235142   3.504   3.149  16.270  0.1176 -1.8565  0.9868
 4551TIP3   OH235143   5.633   6.269   0.794 -0.0553 -0.4938 -0.1516
 4551TIP3    H135144   5.692   6.321   0.848 -1.5211 -0.4019  1.3905
 4551TIP3    H235145   5.589   6.333   0.738  1.0932 -0.5346 -1.1145
 4552TIP3   OH235146   5.872   4.711   1.313 -0.0593 -0.0318 -0.0423
 4552TIP3    H135147   5.920   4.632   1.289  0.8560  0.3552  0.4984
 4552TIP3    H235148   5.863   4.760   1.231  0.5371 -0.0710 -0.1333
 4553TIP3   OH235149   2.880   3.983  11.571 -0.6881  0.3443 -0.1309
 4553TIP3    H135150   2.889   3.905  11.516 -1.6622  0.9112 -1.1254
 4553TIP3    H235151   2.796   3.971  11.615 -0.3604  0.3551  0.4975
 4554TIP3   OH235152   3.760   5.187  16.484 -0.5262  0.1395 -0.0261
 4554TIP3    H135153   3.698   5.152  16.548 -0.8549  0.1152 -0.3536
 4554TIP3    H235154   3.706   5.209  16.408 -0.1372  0.1526 -0.3024
 4555TIP3   OH235155   0.550   3.231  16.045  0.1874 -0.4814  0.4942
 4555TIP3    H135156   0.624   3.186  16.084  1.4940  1.1605 -0.0315
 4555TIP3    H235157   0.512   3.282  16.117 -0.4672 -1.3556  0.7750
 4556TIP3   OH235158   6.362   4.861   3.385 -0.5638  0.6453  0.3697
 4556TIP3    H135159   6.366   4.931   3.319 -0.7764 -0.3124 -0.6815
 4556TIP3    H235160   6.418   4.892   3.456  0.5245  1.2285 -0.7152
 4557TIP3   OH235161   0.752   5.464   0.308  0.3951  0.2077  0.0798
 4557TIP3    H135162   0.785   5.552   0.327 -3.3223  2.0248 -1.6239
 4557TIP3    H235163   0.711   5.436   0.390 -0.9597  1.2718 -0.2171
 4558TIP3   OH235164   3.916   3.064  12.261 -0.5105  0.7818  0.0821
 4558TIP3    H135165   3.829   3.046  12.226  0.1096 -0.2743 -1.0010
 4558TIP3    H235166   3.907   3.057  12.356 -1.4732  0.0732 -0.0606
 4559TIP3   OH235167   2.688   4.981  16.954 -0.1490  0.4631  0.0037
 4559TIP3    H135168   2.738   4.957  17.032  1.7937 -0.6244 -1.5064
 4559TIP3    H235169   2.676   5.075  16.961  0.5562  0.4646  1.3156
 4560TIP3   OH235170   5.060   5.397  12.922  0.4741  0.3668 -0.2153
 4560TIP3    H135171   5.119   5.378  12.995 -1.1021 -0.4681  0.8800
 4560TIP3    H235172   5.011   5.474  12.950 -1.6727 -1.2392  0.5897
 4561TIP3   OH235173   1.978   0.154  12.140 -0.2155 -0.0621 -0.6191
 4561TIP3    H135174   2.065   0.129  12.171 -0.2590  1.1276  0.4991
 4561TIP3    H235175   1.978   0.128  12.048  2.1888  2.0052 -1.2810
 4562TIP3   OH235176   6.794   4.915   2.250  0.4009  0.4686 -0.3239
 4562TIP3    H135177   6.756   4.839   2.206 -0.0459  0.0470  0.7877
 4562TIP3    H235178   6.888   4.904   2.240  0.4097 -1.1615  1.3782
 4563TIP3   OH235179   4.186   6.277  12.678  0.4077 -0.0169  0.8005
 4563TIP3    H135180   4.278   6.293  12.700  0.8880  0.1255 -1.2337
 4563TIP3    H235181   4.153   6.224  12.751  1.9376  0.3948  1.8214
 4564TIP3   OH235182   6.740   0.855   3.641  0.0619  0.2619  0.0187
 4564TIP3    H135183   6.792   0.818   3.570  0.9072  0.6945  0.4037
 4564TIP3    H235184   6.691   0.927   3.600 -0.3179 -0.2213 -0.3699
 4565TIP3   OH235185   4.183   4.263  11.521  0.2648 -0.1585  0.2367
 4565TIP3    H135186   4.195   4.350  11.483  1.7315 -1.3054 -2.0831
 4565TIP3    H235187   4.094   4.238  11.496  0.2745  0.1838 -0.1452
 4566TIP3   OH235188   3.156   0.253   1.445 -0.2631  0.5888  0.2948
 4566TIP3    H135189   3.191   0.179   1.493  1.0481  0.7524 -0.3687
 4566TIP3    H235190   3.222   0.322   1.456 -0.3041  0.8658 -1.0813
 4567TIP3   OH235191   3.427   3.801   0.947 -0.0259  0.3996  0.1225
 4567TIP3    H135192   3.460   3.713   0.963 -0.7366 -0.0818 -1.0338
 4567TIP3    H235193   3.487   3.858   0.995  2.7588 -0.4270 -2.2054
 4568TIP3   OH235194   2.435   2.123  16.798  0.2282 -0.4894 -0.5777
 4568TIP3    H135195   2.530   2.109  16.804  0.1042 -1.2872 -0.3272
 4568TIP3    H235196   2.418   2.199  16.853  0.8745  0.3959 -1.5732
 4569TIP3   OH235197   3.913   4.783  12.467 -0.2691 -0.1906  0.2871
 4569TIP3    H135198   3.907   4.707  12.525  1.3809 -0.7669 -0.2887
 4569TIP3    H235199   3.904   4.746  12.379  0.6911  0.2662  0.0002
 4570TIP3   OH235200   2.291   3.681  13.031  0.1101 -0.8275 -0.1443
 4570TIP3    H135201   2.302   3.706  12.939  3.5484 -1.3790  0.0341
 4570TIP3    H235202   2.278   3.764  13.076  0.2549 -0.3784 -0.9131
 4571TIP3   OH235203   4.077   6.036  15.778  0.3916  0.6564 -0.3223
 4571TIP3    H135204   4.079   5.942  15.793 -0.4789  0.7108  0.1864
 4571TIP3    H235205   3.999   6.050  15.724  0.7903  1.0319 -0.8119
 4572TIP3   OH235206   1.235   6.742   1.347 -0.6364  0.5058  0.4421
 4572TIP3    H135207   1.153   6.693   1.335  0.1594 -0.6027 -0.5831
 4572TIP3    H235208   1.207   6.834   1.354 -1.9398  0.1691 -0.2106
 4573TIP3   OH235209   4.146   0.659  12.084  0.1735 -0.2622 -0.1463
 4573TIP3    H135210   4.177   0.568  12.083 -0.3346 -0.4412 -0.1216
 4573TIP3    H235211   4.053   0.651  12.104  0.2010  0.2876  0.1925
 4574TIP3   OH235212   6.457   3.105   3.496 -1.0414  0.1340 -0.3495
 4574TIP3    H135213   6.502   3.139   3.573  0.2790 -0.4121 -0.8762
 4574TIP3    H235214   6.523   3.106   3.427 -1.6250 -1.3427 -0.9475
 4575TIP3   OH235215   5.027   6.413   2.296  0.0723  0.5300  0.2846
 4575TIP3    H135216   5.026   6.485   2.233 -2.4382  1.6182  1.5079
 4575TIP3    H235217   5.052   6.455   2.379 -0.0548 -0.2584  0.7216
 4576TIP3   OH235218   1.474   2.747  15.860  0.1327 -0.4101 -0.1198
 4576TIP3    H135219   1.462   2.724  15.952 -0.4971 -1.9053 -0.5653
 4576TIP3    H235220   1.555   2.798  15.859  0.5716 -1.0564  1.1580
 4577TIP3   OH235221   1.052   5.985   3.592 -0.0172  0.3510 -0.3361
 4577TIP3    H135222   1.038   5.922   3.522 -0.1799  0.8386 -0.7437
 4577TIP3    H235223   1.147   5.997   3.595 -0.0788  1.0011 -1.0634
 4578TIP3   OH235224   2.191   0.045  13.925  0.0193 -0.1144  0.4425
 4578TIP3    H135225   2.197   0.062  13.831  1.8500 -2.3229  0.1266
 4578TIP3    H235226   2.122   0.104  13.955  1.7007  3.1037 -1.6639
 4579TIP3   OH235227   5.302   3.978   3.454 -0.4406 -0.0887 -0.0511
 4579TIP3    H135228   5.357   3.946   3.382  0.8312  1.1588  0.3586
 4579TIP3    H235229   5.261   3.898   3.489  1.2410 -1.0563 -0.2360
 4580TIP3   OH235230   0.327   1.244   0.279  0.5698  0.4819 -0.2517
 4580TIP3    H135231   0.266   1.256   0.352  1.1752  1.7534  0.0705
 4580TIP3    H235232   0.273   1.259   0.201 -0.0682 -0.8302 -0.0727
 4581TIP3   OH235233   0.767   1.685  14.758  0.5354 -0.1198 -0.7259
 4581TIP3    H135234   0.817   1.693  14.839 -0.1997 -0.4525 -0.2386
 4581TIP3    H235235   0.682   1.723  14.778 -0.6242 -2.7215 -0.4706
 4582TIP3   OH235236   4.332   1.340  15.161 -0.7304 -0.0827  0.1689
 4582TIP3    H135237   4.392   1.413  15.177  1.6252 -1.7901 -0.4633
 4582TIP3    H235238   4.345   1.281  15.235 -1.6592 -0.4374  0.0485
 4583TIP3   OH235239   3.277   1.516  13.432  0.2092  0.6106  0.1871
 4583TIP3    H135240   3.242   1.498  13.520  0.4504 -0.4281  0.0699
 4583TIP3    H235241   3.221   1.586  13.398 -0.4067  0.4410  0.8465
 4584TIP3   OH235242   4.893   0.396   0.134  0.0289  0.2762 -0.2083
 4584TIP3    H135243   4.978   0.440   0.141 -0.4495  1.3725 -1.1088
 4584TIP3    H235244   4.897   0.350   0.050 -0.2220  0.2156 -0.1877
 4585TIP3   OH235245   0.655   4.582   0.708 -0.1125 -0.0499  0.2773
 4585TIP3    H135246   0.568   4.594   0.747  0.5418  3.1299  0.9237
 4585TIP3    H235247   0.712   4.564   0.783  0.1355  0.0010  0.1007
 4586TIP3   OH235248   6.173   5.037   2.708  0.1373 -0.0661  0.0027
 4586TIP3    H135249   6.122   5.055   2.629 -0.6398 -0.4281  0.4168
 4586TIP3    H235250   6.208   5.123   2.734 -1.5703  0.4657  0.6034
 4587TIP3   OH235251   3.419   3.281   3.730 -0.0845  0.3241  0.0056
 4587TIP3    H135252   3.443   3.206   3.784 -0.0432  0.6452  0.4374
 4587TIP3    H235253   3.470   3.270   3.650  1.2658  0.8302  0.7836
 4588TIP3   OH235254   1.464   5.340   4.607  0.4669 -0.3696 -0.0554
 4588TIP3    H135255   1.425   5.408   4.662  0.3254  0.5146 -1.2151
 4588TIP3    H235256   1.390   5.285   4.581  0.3067  0.0304 -0.4739
 4589TIP3   OH235257   1.010   4.162  11.861 -0.2245  0.3461 -0.4528
 4589TIP3    H135258   0.999   4.255  11.883  0.2206  0.0884  0.8974
 4589TIP3    H235259   1.101   4.143  11.883 -0.7100 -0.7743  0.6431
 4590TIP3   OH235260   4.034   1.252  16.931 -0.3512 -0.0790  0.1599
 4590TIP3    H135261   4.101   1.281  16.869 -0.3503 -1.3037 -0.4266
 4590TIP3    H235262   4.080   1.189  16.988 -0.3087  1.1641  1.5130
 4591TIP3   OH235263   6.043   6.607  16.086  0.4756  0.1123  0.6674
 4591TIP3    H135264   5.995   6.540  16.134  0.4701 -0.4098 -0.0567
 4591TIP3    H235265   6.094   6.558  16.021 -1.2753  0.9626 -1.3802
 4592TIP3   OH235266   1.303   4.541  15.758 -0.3005  0.7241 -0.3704
 4592TIP3    H135267   1.309   4.606  15.828 -1.8104 -0.0003  0.4522
 4592TIP3    H235268   1.394   4.525  15.734  0.1259  2.7799 -0.2627
 4593TIP3   OH235269   5.140   1.241  14.788 -0.0025  0.0532 -0.2303
 4593TIP3    H135270   5.172   1.231  14.877 -1.7547 -0.3027  0.3817
 4593TIP3    H235271   5.143   1.153  14.750  0.9141  0.2350 -0.5938
 4594TIP3   OH235272   2.144   5.865   3.231 -0.0826  0.4551 -0.4052
 4594TIP3    H135273   2.234   5.893   3.248  0.3609 -1.3060  0.2843
 4594TIP3    H235274   2.153   5.797   3.165 -0.7338 -0.9015  0.8701
 4595TIP3   OH235275   5.809   2.472   1.560  0.2541 -0.1373  0.4624
 4595TIP3    H135276   5.855   2.469   1.476  0.7301 -1.2699  0.7474
 4595TIP3    H235277   5.735   2.530   1.545  1.0008  0.6091 -0.4028
 4596TIP3   OH235278   3.731   5.951  15.865  0.0062 -0.6536  0.4446
 4596TIP3    H135279   3.679   5.934  15.787 -2.6824  0.1248  1.9773
 4596TIP3    H235280   3.749   6.045  15.861 -0.6218 -0.5059  1.0303
 4597TIP3   OH235281   1.922   3.642   4.047  0.5279  0.1209  0.0617
 4597TIP3    H135282   1.885   3.603   4.126  0.8227  1.8620  1.0730
 4597TIP3    H235283   1.891   3.732   4.047  1.7649  0.5626 -1.0057
 4598TIP3   OH235284   6.337   3.820  12.857  0.6573  0.1566  0.5430
 4598TIP3    H135285   6.340   3.773  12.940 -0.4331  0.5409  0.8095
 4598TIP3    H235286   6.389   3.767  12.797  1.1279 -0.3197  1.3701
 4599TIP3   OH235287   3.676   6.789  14.907 -0.6067 -0.1354 -0.3428
 4599TIP3    H135288   3.734   6.760  14.977 -1.1849 -0.0448  0.1840
 4599TIP3    H235289   3.596   6.738  14.920 -1.2152  0.8634 -0.1081
 4600TIP3   OH235290   6.731   3.784  14.721 -0.3730  0.6663 -0.0337
 4600TIP3    H135291   6.811   3.836  14.718  0.6269 -0.8176  0.5894
 4600TIP3    H235292   6.740   3.731  14.800 -1.5638 -0.1789 -0.4515
 4601TIP3   OH235293   4.329   5.220  14.332  0.1929 -0.3565  0.2539
 4601TIP3    H135294   4.418   5.196  14.306 -0.1283 -1.8409  0.5114
 4601TIP3    H235295   4.324   5.198  14.425 -0.1501  0.6007  0.4673
 4602TIP3   OH235296   2.679   6.032  15.009  0.0029  0.5037 -0.0727
 4602TIP3    H135297   2.741   6.093  15.048  0.6431  0.7100 -1.4004
 4602TIP3    H235298   2.732   5.960  14.976 -0.5786  0.0904 -0.1256
 4603TIP3   OH235299   5.969   1.866   0.316 -0.2377  0.0722 -0.5425
 4603TIP3    H135300   5.913   1.909   0.380  1.4738 -0.6712  1.5370
 4603TIP3    H235301   6.043   1.925   0.304  1.2260 -1.3632  0.9632
 4604TIP3   OH235302   4.999   0.608   5.225  0.0064  0.0427 -0.8855
 4604TIP3    H135303   5.033   0.697   5.217 -0.5911  0.3060 -0.4842
 4604TIP3    H235304   5.022   0.582   5.314 -0.2659 -0.0243 -0.8368
 4605TIP3   OH235305   6.235   4.875   0.081  0.1352  0.4462 -0.7145
 4605TIP3    H135306   6.220   4.817   0.007  0.2343 -0.3773 -0.0896
 4605TIP3    H235307   6.296   4.941   0.048 -1.0115  0.9762 -1.8170
 4606TIP3   OH235308   1.882   6.464  14.492 -0.2036 -0.3761 -0.2004
 4606TIP3    H135309   1.908   6.551  14.461 -0.2538  0.2424  1.4648
 4606TIP3    H235310   1.834   6.426  14.418  0.3740  0.7429 -1.1761
 4607TIP3   OH235311   0.397   2.481  16.979 -0.1829  0.4233 -0.1136
 4607TIP3    H135312   0.369   2.498  16.889 -0.8539  2.8955  0.5214
 4607TIP3    H235313   0.409   2.568  17.017  0.9877 -0.5966  1.9202
 4608TIP3   OH235314   2.208   4.715   6.908  0.2313 -0.4714  0.1247
 4608TIP3    H135315   2.303   4.715   6.911  0.2556 -2.2977 -0.2566
 4608TIP3    H235316   2.184   4.806   6.889  1.9274 -0.2995 -1.2569
 4609TIP3   OH235317   2.035   3.774  16.873  0.0885  0.3626 -0.4314
 4609TIP3    H135318   1.981   3.851  16.893 -0.0619  0.6539 -1.8865
 4609TIP3    H235319   2.106   3.778  16.938  0.4619  2.1354 -0.8962
 4610TIP3   OH235320   0.656   5.411   6.099  0.3676  0.3016 -0.0216
 4610TIP3    H135321   0.746   5.437   6.118  0.8651 -1.8630  0.7577
 4610TIP3    H235322   0.611   5.419   6.183 -0.0600  0.9426 -0.3096
 4611TIP3   OH235323   4.857   2.201   0.080  0.0934 -0.5697  0.1765
 4611TIP3    H135324   4.896   2.165   0.159 -0.5600 -0.0220  0.7640
 4611TIP3    H235325   4.885   2.143   0.009  1.7084 -0.3490  0.6222
 4612TIP3   OH235326   1.440   0.418   2.125 -0.2572  0.5905 -0.0698
 4612TIP3    H135327   1.419   0.333   2.085  0.9369  0.3977 -0.2989
 4612TIP3    H235328   1.457   0.475   2.050  1.5387  0.3444  0.1358
 4613TIP3   OH235329   1.746   2.905  15.893 -0.4912 -0.3475 -1.2240
 4613TIP3    H135330   1.783   2.993  15.899 -0.7858 -0.2694 -0.5312
 4613TIP3    H235331   1.795   2.854  15.957 -0.9719 -0.4552 -0.9378
 4614TIP3   OH235332   2.428   0.113  11.981 -0.0672 -0.8015 -0.5700
 4614TIP3    H135333   2.364   0.063  12.031  0.6775  0.0889  1.3449
 4614TIP3    H235334   2.511   0.098  12.026  0.5407  0.4174 -1.2527
 4615TIP3   OH235335   1.538   2.708  16.615  0.2520 -0.4978 -0.1470
 4615TIP3    H135336   1.517   2.746  16.530  0.6844  0.2720  0.0832
 4615TIP3    H235337   1.630   2.732  16.629  0.2126 -0.7199  0.4878
 4616TIP3   OH235338   2.209   5.254   1.662 -0.1237 -0.1996  0.6001
 4616TIP3    H135339   2.137   5.273   1.601 -2.8676 -0.5418  3.5697
 4616TIP3    H235340   2.187   5.305   1.740  1.8307 -1.8908  2.2814
 4617TIP3   OH235341   4.464   3.980   3.684  0.8552 -0.4013 -0.1227
 4617TIP3    H135342   4.399   3.996   3.753 -0.1064 -1.0281 -0.8690
 4617TIP3    H235343   4.470   4.062   3.636  1.4802  0.0175  0.6573
 4618TIP3   OH235344   4.260   2.097   0.000 -0.0823 -0.5001  0.7396
 4618TIP3    H135345   4.308   2.098   0.083 -0.9049 -2.0192  1.2521
 4618TIP3    H235346   4.191   2.032   0.013 -1.1764  0.3671 -0.6080
 4619TIP3   OH235347   5.034   2.653  16.414 -0.3385 -0.5457  0.2745
 4619TIP3    H135348   5.012   2.680  16.325 -1.0976 -1.1686  0.2657
 4619TIP3    H235349   4.951   2.653  16.461  0.0528 -0.2381  0.9814
 4620TIP3   OH235350   4.798   1.093   3.289 -0.1403  0.2750 -0.1335
 4620TIP3    H135351   4.790   1.187   3.273  1.3095  0.5744  0.7879
 4620TIP3    H235352   4.776   1.052   3.206 -0.9034  1.4304 -0.5024
 4621TIP3   OH235353   2.789   6.090   4.459 -0.1943  0.7921  0.6712
 4621TIP3    H135354   2.799   6.183   4.480  1.5227  0.3511  1.8891
 4621TIP3    H235355   2.758   6.050   4.540  0.0417  0.1506  0.4492
 4622TIP3   OH235356   5.452   0.021   4.644 -0.4909 -0.1894 -0.0919
 4622TIP3    H135357   5.373   0.069   4.616 -1.1797 -1.6300 -0.6651
 4622TIP3    H235358   5.474   0.058   4.729 -0.7009  1.5170 -0.7558
 4623TIP3   OH235359   0.247   1.048  13.109 -0.3658  0.2988 -0.1906
 4623TIP3    H135360   0.226   1.135  13.074 -1.6175 -0.1196 -0.4851
 4623TIP3    H235361   0.178   0.991  13.076 -0.7374 -0.4068  1.6985
 4624TIP3   OH235362   2.988   5.052  16.064  0.6403 -0.0257  0.6012
 4624TIP3    H135363   2.914   5.109  16.044  1.3835  1.0711  0.9268
 4624TIP3    H235364   2.952   4.964  16.059 -0.1627  0.3857 -1.4906
 4625TIP3   OH235365   2.352   0.675  17.184  0.0315 -0.0135  0.7056
 4625TIP3    H135366   2.262   0.699  17.163  0.6521  2.0673  0.2782
 4625TIP3    H235367   2.362   0.586  17.152 -2.0474 -0.4934  1.3012
 4626TIP3   OH235368   3.600   0.858   1.387  0.1405  0.4513 -0.2905
 4626TIP3    H135369   3.612   0.918   1.460  0.3070 -1.1827  1.0722
 4626TIP3    H235370   3.591   0.772   1.429 -0.4763 -0.4115 -2.1610
 4627TIP3   OH235371   1.984   5.684   4.612  0.0631 -0.1614 -0.6210
 4627TIP3    H135372   2.047   5.618   4.582 -1.3293 -0.8670 -2.0272
 4627TIP3    H235373   1.966   5.659   4.703  1.3763 -0.2784 -0.3808
 4628TIP3   OH235374   5.932   4.783   2.243  0.5699 -0.4081 -0.0803
 4628TIP3    H135375   5.899   4.798   2.332 -0.8838 -0.8933 -0.5256
 4628TIP3    H235376   5.947   4.689   2.239 -0.0408 -0.4790 -0.5873
 4629TIP3   OH235377   6.232   4.691  12.996 -0.1410  0.2049  0.0183
 4629TIP3    H135378   6.325   4.677  12.978  0.4834  2.2431  1.5645
 4629TIP3    H235379   6.198   4.604  13.015  1.3567 -0.6060 -0.9322
 4630TIP3   OH235380   4.089   2.231  13.386 -0.3578  0.0896  0.7782
 4630TIP3    H135381   4.015   2.206  13.330  0.4085  1.9024 -1.1331
 4630TIP3    H235382   4.155   2.164  13.370 -0.7705 -0.3101  0.7573
 4631TIP3   OH235383   3.261   4.242   3.312  0.2898  0.4597  0.2275
 4631TIP3    H135384   3.245   4.196   3.394  0.1722 -2.3063 -1.2806
 4631TIP3    H235385   3.173   4.256   3.275  0.4430 -0.0666 -0.3419
 4632TIP3   OH235386   0.093   5.761  14.561  0.2476 -0.2145 -0.3839
 4632TIP3    H135387   0.038   5.690  14.526  0.2695 -0.1189 -0.6127
 4632TIP3    H235388   0.151   5.785  14.488  0.2518  0.0267 -0.3022
 4633TIP3   OH235389   1.577   2.284   4.137 -0.6560  0.6580 -0.2967
 4633TIP3    H135390   1.653   2.294   4.194 -0.9913  0.3609  0.1977
 4633TIP3    H235391   1.502   2.304   4.193 -1.1089 -1.2746 -0.1877
 4634TIP3   OH235392   4.676   0.251  11.684 -0.0818  0.1604 -0.6146
 4634TIP3    H135393   4.677   0.156  11.700  0.7386  0.5573  1.8799
 4634TIP3    H235394   4.705   0.260  11.594 -1.5124 -2.0424 -1.3408
 4635TIP3   OH235395   5.091   6.762  15.697  0.1112  0.0191  0.1744
 4635TIP3    H135396   5.099   6.681  15.748  0.8274  0.9344  1.5316
 4635TIP3    H235397   5.105   6.735  15.607  1.0551 -1.2643  0.6929
 4636TIP3   OH235398   2.065   5.823  15.461 -0.2474 -0.0192 -0.0588
 4636TIP3    H135399   2.021   5.759  15.406  0.5591  0.3781 -1.1753
 4636TIP3    H235400   2.055   5.906  15.414  0.5501  0.3028  0.3373
 4637TIP3   OH235401   2.195   6.314  12.471 -0.6900  0.0635  0.0917
 4637TIP3    H135402   2.143   6.394  12.466 -1.9883 -0.6289  1.9131
 4637TIP3    H235403   2.131   6.245  12.488  0.2082 -1.6561 -3.0381
 4638TIP3   OH235404   1.057   4.415   1.566  0.0702 -0.0881  0.2299
 4638TIP3    H135405   1.005   4.392   1.489 -0.0769  0.8968  0.0196
 4638TIP3    H235406   1.144   4.380   1.547 -0.0492 -0.1492 -0.2356
 4639TIP3   OH235407   0.759   3.021   4.968  0.3071 -0.1152  0.3152
 4639TIP3    H135408   0.819   3.079   4.922 -1.7920  0.9099 -1.1765
 4639TIP3    H235409   0.750   3.060   5.055 -0.3064  1.2213 -0.3462
 4640TIP3   OH235410   6.527   6.143  15.491  0.0302  0.4260  0.7225
 4640TIP3    H135411   6.552   6.086  15.564 -0.3036  1.7643  1.9221
 4640TIP3    H235412   6.522   6.230  15.531 -0.6427  1.0939 -0.8146
 4641TIP3   OH235413   3.901   1.899   4.667 -0.1281 -0.4142  0.5729
 4641TIP3    H135414   3.916   1.974   4.609 -0.3293 -0.7856  0.0411
 4641TIP3    H235415   3.809   1.907   4.693  0.2491  0.3625  1.7138
 4642TIP3   OH235416   6.505   5.332   2.008 -0.4788  0.0733  0.4154
 4642TIP3    H135417   6.436   5.280   1.967  0.2363 -0.7169  0.1911
 4642TIP3    H235418   6.574   5.337   1.941  0.6699 -1.1512  1.4763
 4643TIP3   OH235419   2.940   6.268  17.286 -0.0838 -0.1973 -0.3593
 4643TIP3    H135420   2.931   6.246  17.193  0.9848 -1.4288 -0.1891
 4643TIP3    H235421   2.852   6.295  17.313 -0.6333 -0.8268 -1.4776
 4644TIP3   OH235422   1.357   4.040   4.384 -0.0777 -0.5071  0.2246
 4644TIP3    H135423   1.281   3.984   4.369 -0.0694 -0.6502  0.7090
 4644TIP3    H235424   1.333   4.092   4.461 -0.1381  0.2428 -0.2922
 4645TIP3   OH235425   2.344   5.453  16.433 -0.2827 -0.5974  0.4254
 4645TIP3    H135426   2.311   5.535  16.469 -0.6864 -0.6523  0.1852
 4645TIP3    H235427   2.354   5.471  16.340  1.4115 -0.2426  0.6685
 4646TIP3   OH235428   4.232   3.539   3.923 -0.7020 -0.2991  0.1262
 4646TIP3    H135429   4.276   3.536   3.838  0.7223 -1.4231  0.8917
 4646TIP3    H235430   4.139   3.545   3.901 -0.3708 -0.9499 -1.5135
 4647TIP3   OH235431   1.957   6.452   4.035  0.1339 -0.4152 -0.5388
 4647TIP3    H135432   1.977   6.523   4.097 -1.0992  0.8800 -1.5850
 4647TIP3    H235433   1.943   6.497   3.951  0.3206 -2.0051 -1.4323
 4648TIP3   OH235434   4.668   4.049  12.121  0.4683 -0.8448  0.1474
 4648TIP3    H135435   4.721   4.129  12.133  0.8338 -0.4512 -3.4958
 4648TIP3    H235436   4.730   3.985  12.086 -0.6681 -1.5204 -0.6400
 4649TIP3   OH235437   2.262   5.983  16.036 -0.4942  0.1949  0.1210
 4649TIP3    H135438   2.206   5.906  16.023 -0.9274  0.4895  0.2456
 4649TIP3    H235439   2.230   6.047  15.972 -1.4411  0.9884  1.3592
 4650TIP3   OH235440   3.474   5.557  15.149  0.2683 -0.0657  0.0536
 4650TIP3    H135441   3.464   5.649  15.171  0.3640  0.1636 -0.8436
 4650TIP3    H235442   3.565   5.549  15.120  0.4655 -0.5869  0.7910
 4651TIP3   OH235443   4.546   4.006   4.482 -0.7762  0.1911  0.3518
 4651TIP3    H135444   4.581   4.092   4.505  0.8861  0.3144 -2.3392
 4651TIP3    H235445   4.462   4.024   4.441 -1.0445  0.4207  0.9978
 4652TIP3   OH235446   0.857   5.954  12.718 -0.4157  0.0216 -0.0242
 4652TIP3    H135447   0.867   5.998  12.802 -1.1148  0.1493 -0.0120
 4652TIP3    H235448   0.882   5.863  12.735  1.4536  0.4788 -0.1439
 4653TIP3   OH235449   4.322   1.653  15.500 -0.1969 -0.1075 -0.4885
 4653TIP3    H135450   4.299   1.571  15.456 -1.0013  1.1501 -2.4436
 4653TIP3    H235451   4.279   1.721  15.449 -0.5073  1.4699  1.7932
 4654TIP3   OH235452   5.347   1.825   0.278 -0.5171 -0.0115 -0.4531
 4654TIP3    H135453   5.320   1.803   0.368  0.7326  1.8056  0.3954
 4654TIP3    H235454   5.440   1.846   0.285 -0.4318  0.2426 -2.1623
 4655TIP3   OH235455   4.148   2.571   4.833 -0.7123  0.3476 -0.4010
 4655TIP3    H135456   4.112   2.499   4.885 -2.0200  1.5668  0.4031
 4655TIP3    H235457   4.081   2.588   4.767 -1.1328  1.8780  0.3977
 4656TIP3   OH235458   5.708   3.762   4.486  0.2027 -0.0754  0.0844
 4656TIP3    H135459   5.701   3.727   4.575  0.5982  0.5398  0.3646
 4656TIP3    H235460   5.664   3.847   4.490 -0.1445 -0.2314 -0.4143
 4657TIP3   OH235461   1.602   3.391  15.237  0.0628 -0.0466  0.3917
 4657TIP3    H135462   1.687   3.395  15.193  0.5805  2.0305  1.5021
 4657TIP3    H235463   1.567   3.480  15.230 -1.3079 -0.4870  1.3491
 4658TIP3   OH235464   3.063   4.665  12.329  0.6941  0.4034  0.5655
 4658TIP3    H135465   3.154   4.658  12.302  0.4665  1.8940 -0.6215
 4658TIP3    H235466   3.032   4.574  12.330  1.8912 -0.0244 -0.0364
 4659TIP3   OH235467   1.920   6.241  13.856 -0.5162  0.0341  0.1722
 4659TIP3    H135468   1.871   6.321  13.876 -0.4725  0.3017 -0.8063
 4659TIP3    H235469   1.977   6.264  13.784  0.0350 -0.6806  0.3746
 4660TIP3   OH235470   0.920   4.385  12.228  0.0325 -0.0081  0.2844
 4660TIP3    H135471   0.984   4.398  12.157 -0.7075 -1.5137 -0.6992
 4660TIP3    H235472   0.969   4.403  12.308  1.1914  0.6548 -0.5530
 4661TIP3   OH235473   4.842   2.200   3.038  0.1984 -0.7691 -0.2058
 4661TIP3    H135474   4.872   2.147   3.112 -0.9629 -2.7404 -1.1069
 4661TIP3    H235475   4.923   2.238   3.001  0.8921 -0.7312  1.3339
 4662TIP3   OH235476   4.114   5.344   0.092  0.1950  0.5657 -0.0484
 4662TIP3    H135477   4.183   5.334   0.158  0.5718  0.3515 -0.4740
 4662TIP3    H235478   4.100   5.438   0.086  0.0761  0.5771  0.4297
 4663TIP3   OH235479   5.969   0.378  14.158 -0.3405  0.3467 -0.5103
 4663TIP3    H135480   6.043   0.319  14.172 -1.0589 -0.4358  0.0466
 4663TIP3    H235481   5.993   0.457  14.205  0.5940  0.4723 -1.1874
 4664TIP3   OH235482   1.138   3.748  16.618 -0.0662 -0.4995 -0.0113
 4664TIP3    H135483   1.086   3.817  16.576  0.4106 -0.8190 -1.1445
 4664TIP3    H235484   1.073   3.690  16.657 -0.4785  0.4734  0.7826
 4665TIP3   OH235485   3.911   0.330   0.169 -0.4619 -0.7895 -0.1432
 4665TIP3    H135486   3.963   0.360   0.094  2.9878  0.8094  2.7225
 4665TIP3    H235487   3.931   0.237   0.176  0.4050 -0.6235 -0.3080
 4666TIP3   OH235488   0.011   6.224   4.418 -0.5164  0.3838  0.1536
 4666TIP3    H135489  -0.003   6.166   4.344 -1.1672  0.2096  0.4053
 4666TIP3    H235490   0.097   6.200   4.452  0.2624  1.2064 -1.1995
 4667TIP3   OH235491   3.706   1.232  13.279  0.3273  0.0478  0.1839
 4667TIP3    H135492   3.763   1.280  13.218  1.2622 -1.3954 -0.1116
 4667TIP3    H235493   3.700   1.144  13.241 -0.7824 -0.2708  1.0932
 4668TIP3   OH235494   2.719   6.641   0.657 -0.1816  0.3519 -0.4035
 4668TIP3    H135495   2.688   6.699   0.587  0.0043  1.5866  0.5166
 4668TIP3    H235496   2.802   6.606   0.624  0.1454  1.3002 -0.6162
 4669TIP3   OH235497   0.802   5.108   4.767 -0.1870 -0.0740 -0.3491
 4669TIP3    H135498   0.799   5.200   4.793 -0.6411 -0.5942  1.4578
 4669TIP3    H235499   0.771   5.060   4.843  0.6301 -1.7801 -1.0685
 4670TIP3   OH235500   1.721   5.281   3.162  0.0931 -0.2808 -0.4212
 4670TIP3    H135501   1.778   5.327   3.223  0.2702  1.2893 -1.7439
 4670TIP3    H235502   1.646   5.254   3.215  0.9336 -0.2595  0.7990
 4671TIP3   OH235503   4.379   4.547   5.369 -0.2467  0.2794 -0.0269
 4671TIP3    H135504   4.446   4.526   5.304  0.1795  1.9112 -0.1514
 4671TIP3    H235505   4.396   4.487   5.441  0.2672 -0.4775 -0.7635
 4672TIP3   OH235506   1.792   3.365  12.405 -0.6547  0.1627  0.2160
 4672TIP3    H135507   1.776   3.271  12.414 -1.1417  0.2034 -0.2006
 4672TIP3    H235508   1.705   3.403  12.392 -0.2615  0.4078 -1.9181
 4673TIP3   OH235509   5.680   0.645   6.773  0.1314  0.1045  0.1311
 4673TIP3    H135510   5.609   0.639   6.709  0.2026  2.0538 -0.1741
 4673TIP3    H235511   5.700   0.555   6.795 -0.1004 -0.6088 -2.3930
 4674TIP3   OH235512   5.690   5.339  16.873  0.1335 -0.3187 -0.3573
 4674TIP3    H135513   5.765   5.334  16.814  0.9584 -2.9724  0.8507
 4674TIP3    H235514   5.717   5.290  16.951 -1.3602  2.1221  1.7825
 4675TIP3   OH235515   3.060   5.184   5.787 -0.0943  0.4008 -0.7837
 4675TIP3    H135516   2.965   5.189   5.795 -0.2818 -0.7601 -2.0933
 4675TIP3    H235517   3.076   5.106   5.734  1.5850  0.6456 -0.6788
 4676TIP3   OH235518   5.996   4.748  11.833  0.0995 -0.1567 -0.1388
 4676TIP3    H135519   5.939   4.752  11.757  0.6239 -0.3249 -0.5383
 4676TIP3    H235520   5.970   4.667  11.878  0.7196 -0.7708 -0.8727
 4677TIP3   OH235521   5.701   2.290   0.453  0.4121 -0.3624 -0.3340
 4677TIP3    H135522   5.694   2.234   0.530  2.7428 -1.2854 -0.7222
 4677TIP3    H235523   5.637   2.254   0.391  0.5007 -1.3812  0.1540
 4678TIP3   OH235524   4.410   0.383  11.512  0.3785  0.3081  0.9370
 4678TIP3    H135525   4.425   0.326  11.587  1.0008 -0.9800 -0.1469
 4678TIP3    H235526   4.476   0.452  11.519  1.3944 -0.6473  0.7649
 4679TIP3   OH235527   0.544   1.651  17.190 -0.1576  0.4143  0.1972
 4679TIP3    H135528   0.544   1.572  17.137 -2.7447  1.1563 -0.9580
 4679TIP3    H235529   0.627   1.694  17.169 -0.4696 -0.0580 -2.1126
 4680TIP3   OH235530   6.181   2.717   1.615  0.2251 -0.0399 -0.0180
 4680TIP3    H135531   6.160   2.696   1.524  2.1603  1.6962 -0.8990
 4680TIP3    H235532   6.264   2.672   1.632 -0.3653 -0.7551  1.0590
 4681TIP3   OH235533   4.401   4.328  15.239 -0.3758 -0.1171 -0.1293
 4681TIP3    H135534   4.369   4.404  15.289  0.4816 -1.0616  1.9362
 4681TIP3    H235535   4.327   4.268  15.237 -0.9705  0.6490 -1.5330
 4682TIP3   OH235536   3.455   3.141   2.955  0.2615  1.1172 -0.0143
 4682TIP3    H135537   3.424   3.114   2.869  0.2736  1.1544 -0.0305
 4682TIP3    H235538   3.532   3.195   2.937  0.9283  0.1977  0.0749
 4683TIP3   OH235539   1.123   1.549  10.904  0.6087 -0.0817 -0.1829
 4683TIP3    H135540   1.044   1.594  10.876 -0.3094 -1.1276  0.6583
 4683TIP3    H235541   1.170   1.613  10.957 -0.1455  0.2466  0.0950
 4684TIP3   OH235542   4.183   1.191   4.744 -0.2260 -0.3620  0.4962
 4684TIP3    H135543   4.104   1.139   4.760 -1.1524  0.9202  0.2417
 4684TIP3    H235544   4.253   1.142   4.785 -0.9311 -2.2351 -0.4898
 4685TIP3   OH235545   0.917   3.107   4.062 -0.1535 -0.5972  0.3334
 4685TIP3    H135546   0.971   3.049   4.009 -2.3478 -1.1423 -1.4118
 4685TIP3    H235547   0.829   3.100   4.023 -0.7913  2.7466  1.0147
 4686TIP3   OH235548   3.073   0.691  12.950  0.9648  0.2484 -0.4950
 4686TIP3    H135549   3.165   0.714  12.938  0.6995  1.4057 -0.3251
 4686TIP3    H235550   3.074   0.620  13.014  1.6199  1.3383  0.7025
 4687TIP3   OH235551   2.474   0.917   5.644  0.7314 -0.3798  0.0034
 4687TIP3    H135552   2.524   0.993   5.672 -1.2342  0.7216  0.6511
 4687TIP3    H235553   2.533   0.868   5.588  2.1891  1.3692 -0.0173
 4688TIP3   OH235554   1.279   3.758  16.217 -0.4005  0.1356  0.6342
 4688TIP3    H135555   1.246   3.805  16.140  0.5622  0.1451  0.2136
 4688TIP3    H235556   1.201   3.730  16.264 -1.0460 -1.2233 -1.1782
 4689TIP3   OH235557   3.035   2.747   4.323  0.0499 -0.2171  0.1870
 4689TIP3    H135558   3.076   2.661   4.335  0.4554  0.1206  1.2884
 4689TIP3    H235559   3.015   2.751   4.230  1.6006 -0.8135 -0.1955
 4690TIP3   OH235560   4.569   3.751   2.431  0.4479 -0.2276  0.2576
 4690TIP3    H135561   4.577   3.806   2.353 -1.7169  3.0844  2.2396
 4690TIP3    H235562   4.477   3.724   2.432  0.9779 -2.1066  0.5085
 4691TIP3   OH235563   0.008   6.467   1.795 -0.1958 -0.4086 -0.1031
 4691TIP3    H135564   0.081   6.406   1.793  1.1437  1.1435 -0.3684
 4691TIP3    H235565   0.044   6.549   1.760 -1.9926  0.4604 -0.0139
 4692TIP3   OH235566   1.749   6.417   3.623 -0.5006  0.2450  0.5109
 4692TIP3    H135567   1.750   6.445   3.531  0.1036 -2.5530 -0.3923
 4692TIP3    H235568   1.800   6.485   3.668  1.1723  0.4884 -1.6135
 4693TIP3   OH235569   6.775   0.451  13.890 -0.4221  0.0964  0.0687
 4693TIP3    H135570   6.741   0.363  13.907 -0.5197 -0.5256 -3.0485
 4693TIP3    H235571   6.698   0.508  13.895 -0.6637 -0.2479  0.3200
 4694TIP3   OH235572   3.959   5.079  11.364 -0.0558 -0.4407  0.2670
 4694TIP3    H135573   4.023   5.010  11.384  2.2226  2.2781  3.0042
 4694TIP3    H235574   3.914   5.094  11.448 -3.5075 -1.4208 -1.3145
 4695TIP3   OH235575   0.761   3.274   6.999 -0.1006 -0.3174  0.5705
 4695TIP3    H135576   0.668   3.288   7.017 -0.9916 -3.3908 -1.4042
 4695TIP3    H235577   0.779   3.328   6.922  0.3534  2.0089  2.2433
 4696TIP3   OH235578   4.963   2.357  14.578 -0.2594 -0.0711 -0.0093
 4696TIP3    H135579   4.938   2.407  14.656 -0.5846  2.0845 -1.4522
 4696TIP3    H235580   4.880   2.338  14.535 -0.0237 -0.7154 -0.1938
 4697TIP3   OH235581   2.677   3.658  13.097 -0.1824  0.8608 -0.7971
 4697TIP3    H135582   2.772   3.651  13.100 -0.2800 -2.0729 -2.1348
 4697TIP3    H235583   2.656   3.665  13.004 -1.3236 -0.6923 -0.6965
 4698TIP3   OH235584   1.386   6.615  17.057  0.1555 -0.1738  0.4341
 4698TIP3    H135585   1.313   6.674  17.039  0.6547  0.3970  0.2632
 4698TIP3    H235586   1.459   6.652  17.008  0.7412 -0.3393  1.1754
 4699TIP3   OH235587   4.687   0.770  12.953  0.4885 -0.3708 -0.2657
 4699TIP3    H135588   4.692   0.850  13.007 -1.3652 -1.0233  0.9275
 4699TIP3    H235589   4.658   0.801  12.867  1.3125  0.4174 -0.2678
 4700TIP3   OH235590   3.004   4.128   5.797 -0.3679  0.6605  0.5762
 4700TIP3    H135591   3.080   4.071   5.805  0.2878  1.4211 -0.1337
 4700TIP3    H235592   2.998   4.172   5.882 -0.1327  0.4425  0.7043
 4701TIP3   OH235593   6.724   2.355  15.603 -0.1703 -0.6467  0.2976
 4701TIP3    H135594   6.698   2.388  15.689  2.0808  1.6415  0.1447
 4701TIP3    H235595   6.723   2.432  15.546  0.1681 -1.7965 -1.3125
 4702TIP3   OH235596   1.882   4.743   3.259 -0.1323  0.0701  0.4700
 4702TIP3    H135597   1.953   4.790   3.215  0.6287  0.0575  1.6614
 4702TIP3    H235598   1.852   4.803   3.327 -1.8378  0.4043 -0.5479
 4703TIP3   OH235599   2.124   2.240   1.296  1.0638 -0.3022  0.4975
 4703TIP3    H135600   2.088   2.201   1.216  0.5442 -2.7583  1.8788
 4703TIP3    H235601   2.219   2.236   1.284  0.9860  0.3462 -0.4339
 4704TIP3   OH235602   3.659   5.677   1.160 -0.1194 -0.0225 -0.1409
 4704TIP3    H135603   3.715   5.745   1.197 -1.7474  1.0378  0.4038
 4704TIP3    H235604   3.637   5.621   1.234 -0.4821  0.0607 -0.1852
 4705TIP3   OH235605   2.298   4.590   4.478 -0.6016  0.2310 -0.2223
 4705TIP3    H135606   2.205   4.603   4.463 -0.5970 -0.6570 -1.0780
 4705TIP3    H235607   2.302   4.517   4.541 -0.5152  1.3250  1.0698
 4706TIP3   OH235608   2.403   4.709   5.591 -0.0552 -0.2122  0.0041
 4706TIP3    H135609   2.460   4.642   5.551  0.1302 -0.9599  1.4781
 4706TIP3    H235610   2.343   4.659   5.646 -0.7649  0.7546  0.1136
 4707TIP3   OH235611   1.795   0.293  13.433  0.6851 -0.5528  0.2123
 4707TIP3    H135612   1.888   0.296  13.414  1.1163 -0.7955  2.1329
 4707TIP3    H235613   1.790   0.253  13.520 -1.2252 -0.8307  0.0001
 4708TIP3   OH235614   1.192   6.250   4.784  0.2440 -0.7593 -0.9648
 4708TIP3    H135615   1.181   6.157   4.804  1.0802 -0.4962  0.8372
 4708TIP3    H235616   1.225   6.251   4.694  0.9381 -2.2380 -0.7462
 4709TIP3   OH235617   5.257   5.590  12.612 -0.2758 -0.2236 -0.4925
 4709TIP3    H135618   5.247   5.506  12.657  0.9919 -0.2271 -0.2212
 4709TIP3    H235619   5.332   5.632  12.654  0.5274  0.0502 -2.1697
 4710TIP3   OH235620   4.288   5.506  14.415 -0.6010  0.9802  0.5826
 4710TIP3    H135621   4.315   5.596  14.398  1.4148  0.3208  0.1755
 4710TIP3    H235622   4.357   5.452  14.376 -2.1914 -0.7688  0.0936
 4711TIP3   OH235623   5.498   6.814  14.353  0.3349  0.0179 -0.2694
 4711TIP3    H135624   5.451   6.735  14.327 -0.2822  0.5425 -0.7733
 4711TIP3    H235625   5.434   6.865  14.402 -0.0159  1.2751 -1.9721
 4712TIP3   OH235626   1.020   1.486  15.160 -0.5466 -0.2599 -0.0907
 4712TIP3    H135627   1.001   1.497  15.067  1.9127  0.1879 -0.5718
 4712TIP3    H235628   0.980   1.403  15.183  0.6568 -1.4548 -2.0953
 4713TIP3   OH235629   2.784   6.209   3.116  0.1461  0.1907 -0.0652
 4713TIP3    H135630   2.819   6.126   3.084 -0.3959  0.6778 -1.9722
 4713TIP3    H235631   2.849   6.239   3.181  1.2586 -0.8350 -0.6854
 4714TIP3   OH235632   1.265   6.658   4.528  0.3133 -0.8447  0.0485
 4714TIP3    H135633   1.256   6.636   4.620  0.1052 -0.0246  0.2261
 4714TIP3    H235634   1.275   6.574   4.484 -1.2859 -1.3440  0.6176
 4715TIP3   OH235635   1.659   2.675   0.145 -0.0304 -0.6470 -0.6203
 4715TIP3    H135636   1.608   2.752   0.119  0.0850 -0.1464  0.6177
 4715TIP3    H235637   1.680   2.632   0.062 -1.3492 -0.1563 -1.2305
 4716TIP3   OH235638   5.133   3.853   0.798 -0.6317  0.2404  0.4853
 4716TIP3    H135639   5.051   3.834   0.752 -0.3040  0.1795 -0.0694
 4716TIP3    H235640   5.197   3.866   0.729 -0.0699 -0.1534  0.9310
 4717TIP3   OH235641   3.760   0.857   3.262 -0.1487 -0.0596  0.6147
 4717TIP3    H135642   3.730   0.767   3.274  2.4067 -0.9901  0.3775
 4717TIP3    H235643   3.688   0.901   3.217 -0.7460 -2.4331 -0.8360
 4718TIP3   OH235644   0.107   3.610   4.893  0.5782  0.1209  0.2274
 4718TIP3    H135645   0.169   3.562   4.837 -1.7199 -2.1852 -0.4533
 4718TIP3    H235646   0.131   3.702   4.882  1.8253 -0.4770 -2.5266
 4719TIP3   OH235647   5.828   3.041   5.593  0.4427 -1.1592 -0.0313
 4719TIP3    H135648   5.735   3.060   5.600  0.0516 -3.0484  0.2365
 4719TIP3    H235649   5.843   2.972   5.658  2.4051  0.4044  1.2537
 4720TIP3   OH235650   3.076   0.975   3.150  0.1967 -0.0369  0.1075
 4720TIP3    H135651   3.027   1.057   3.154  1.0639  0.6189 -1.6867
 4720TIP3    H235652   3.132   0.976   3.227 -0.9335  0.3069  0.9327
 4721TIP3   OH235653   3.252   1.526   0.881 -0.2184  0.2751  0.0085
 4721TIP3    H135654   3.306   1.450   0.859  0.1494  0.2366  1.0189
 4721TIP3    H235655   3.175   1.518   0.824  0.2559 -0.3396 -0.5576
 4722TIP3   OH235656   3.028   3.993   0.478 -0.0418  0.2096  0.1360
 4722TIP3    H135657   2.935   3.978   0.462  0.4742 -1.6513 -1.3229
 4722TIP3    H235658   3.052   3.928   0.544  0.8096 -1.2216 -1.5366
 4723TIP3   OH235659   6.668   3.132  17.285 -0.8891 -0.2382 -0.4444
 4723TIP3    H135660   6.625   3.106  17.203  0.7918 -0.3966 -1.2961
 4723TIP3    H235661   6.616   3.205  17.317 -1.6534 -0.2675 -1.5877
 4724TIP3   OH235662   3.540   1.094   4.395 -0.4899 -0.1567 -0.2925
 4724TIP3    H135663   3.635   1.098   4.382 -0.7941  0.9668 -2.4322
 4724TIP3    H235664   3.526   1.127   4.483  1.2412 -1.9391  0.6965
 4725TIP3   OH235665   1.608   5.190  11.185  0.5657  0.1713 -0.4942
 4725TIP3    H135666   1.678   5.129  11.161 -0.2538 -1.0364  0.1295
 4725TIP3    H235667   1.643   5.277  11.164  2.0588 -0.4540 -0.6245
 4726TIP3   OH235668   5.920   5.016   5.082  0.3016 -0.1308 -0.3064
 4726TIP3    H135669   5.957   5.094   5.121  0.2658 -0.5542  0.5862
 4726TIP3    H235670   5.826   5.034   5.078  0.1116 -0.7364  1.3128
 4727TIP3   OH235671   6.210   2.254  15.657 -0.3405 -0.8782 -0.2276
 4727TIP3    H135672   6.292   2.238  15.704  1.3014  2.3430 -1.8084
 4727TIP3    H235673   6.221   2.210  15.573 -1.6896 -3.3659  0.8675
 4728TIP3   OH235674   1.000   6.585   2.216 -0.3568 -0.1057 -0.0528
 4728TIP3    H135675   1.034   6.521   2.153  1.1925  0.7151 -0.0747
 4728TIP3    H235676   1.073   6.645   2.230 -1.8717  1.8257 -0.2509
 4729TIP3   OH235677   2.625   1.403   5.043 -0.6101  0.2111  0.1599
 4729TIP3    H135678   2.720   1.411   5.049 -0.5783 -0.4862  0.6079
 4729TIP3    H235679   2.607   1.404   4.949 -0.2413  1.2207  0.0978
 4730TIP3   OH235680   3.367   3.028   1.181 -0.3895 -0.4952 -0.0545
 4730TIP3    H135681   3.359   3.064   1.093  1.8063 -2.7091 -1.2103
 4730TIP3    H235682   3.449   2.980   1.181 -0.1092 -0.1976  3.3646
 4731TIP3   OH235683   2.147   5.450   6.022  0.0409  0.1105  0.1181
 4731TIP3    H135684   2.233   5.492   6.013 -0.2034  0.2027 -1.9905
 4731TIP3    H235685   2.153   5.400   6.103  0.8601  2.9923  1.9320
 4732TIP3   OH235686   4.344   5.579  12.521 -0.1820 -0.4184 -0.4522
 4732TIP3    H135687   4.440   5.580  12.516 -0.0132  0.6780  2.0553
 4732TIP3    H235688   4.324   5.506  12.579 -0.7821  0.1367  0.0526
 4733TIP3   OH235689   1.259   0.360   3.133  0.3034 -0.0524 -0.3753
 4733TIP3    H135690   1.255   0.430   3.068 -0.6570 -0.7407 -1.0578
 4733TIP3    H235691   1.312   0.397   3.204 -1.5751  1.9708  0.0244
 4734TIP3   OH235692   6.412   6.818  10.756 -0.6339  0.5932  0.6249
 4734TIP3    H135693   6.328   6.810  10.711 -1.7151  1.1454  2.4748
 4734TIP3    H235694   6.435   6.910  10.749  0.7143  0.1370 -1.3823
 4735TIP3   OH235695   4.369   2.639   4.544 -0.2350  0.5406 -0.0061
 4735TIP3    H135696   4.342   2.731   4.537 -0.7350  0.2722 -1.6624
 4735TIP3    H235697   4.454   2.636   4.499 -0.1160  0.2218  0.2344
 4736TIP3   OH235698   5.256   4.092   0.959 -0.1571 -0.6168 -0.3410
 4736TIP3    H135699   5.271   4.125   1.048  2.0755  0.6064 -1.1397
 4736TIP3    H235700   5.197   4.156   0.919 -0.0943 -0.4533 -0.1723
 4737TIP3   OH235701   0.564   4.650   5.849 -0.2402 -0.0392 -0.1351
 4737TIP3    H135702   0.624   4.584   5.883 -0.3294  0.6158  1.3196
 4737TIP3    H235703   0.620   4.724   5.826 -0.4430  0.4019  0.7966
 4738TIP3   OH235704   6.379   1.518  13.883 -0.0870  0.2134 -0.1187
 4738TIP3    H135705   6.397   1.424  13.891 -0.4986  0.1182 -0.2894
 4738TIP3    H235706   6.285   1.525  13.899 -0.0432  0.6074 -0.0384
 4739TIP3   OH235707   4.242   2.890  14.553  0.9100  0.0659 -0.6460
 4739TIP3    H135708   4.202   2.804  14.563  0.2318  0.4718  0.2097
 4739TIP3    H235709   4.234   2.910  14.460 -1.6201  0.4905 -0.3656
 4740TIP3   OH235710   3.847   1.800   0.755 -0.0492 -0.2290 -0.1472
 4740TIP3    H135711   3.890   1.813   0.840 -1.6977 -1.0578  0.8314
 4740TIP3    H235712   3.762   1.843   0.764  0.4265  1.1829 -1.9865
 4741TIP3   OH235713   4.317   2.533   0.399 -0.1207  0.3392 -0.1693
 4741TIP3    H135714   4.241   2.589   0.386 -0.4622 -0.3587 -1.2321
 4741TIP3    H235715   4.302   2.491   0.484  0.2403  2.0001  0.7359
 4742TIP3   OH235716   5.359   1.846   4.599  0.0071  0.5553 -0.1654
 4742TIP3    H135717   5.327   1.755   4.595  0.9282  0.1473  1.2856
 4742TIP3    H235718   5.303   1.894   4.538 -2.8020 -0.3030  1.6329
 4743TIP3   OH235719   2.270   4.350   4.599 -0.8398  0.1513 -0.0168
 4743TIP3    H135720   2.238   4.332   4.687 -1.4309  1.5361  0.0657
 4743TIP3    H235721   2.268   4.265   4.555 -1.0267 -0.4568  1.1507
 4744TIP3   OH235722   5.189   2.242  12.970 -0.0206 -0.1649  0.3143
 4744TIP3    H135723   5.141   2.213  13.047  0.0814 -0.3812  0.2946
 4744TIP3    H235724   5.212   2.333  12.989  0.6333 -0.4451  0.8395
 4745TIP3   OH235725   5.901   3.916  14.970  0.1087  0.6401  0.9363
 4745TIP3    H135726   5.818   3.869  14.983  0.3731 -0.4268 -1.1448
 4745TIP3    H235727   5.875   3.999  14.930  0.1506 -0.2987 -1.0704
 4746TIP3   OH235728   4.649   0.014  13.653 -0.4050 -0.1086  0.0475
 4746TIP3    H135729   4.597   0.003  13.732  0.8500 -0.3631  0.8455
 4746TIP3    H235730   4.634   0.105  13.627 -1.6268 -0.3139 -0.0185
 4747TIP3   OH235731   4.850   3.675  16.907 -0.3492 -0.3603  0.0074
 4747TIP3    H135732   4.844   3.638  16.819  0.7953  0.9015 -0.6247
 4747TIP3    H235733   4.943   3.669  16.930 -0.2851  1.2798  0.2465
 4748TIP3   OH235734   4.642   1.448  10.951 -0.1786 -0.3050 -0.0301
 4748TIP3    H135735   4.711   1.487  10.899  1.2929 -2.8155 -0.0388
 4748TIP3    H235736   4.563   1.457  10.897  0.2890  1.7914 -0.3940
 4749TIP3   OH235737   4.946   6.296  12.698 -0.3239 -0.2630 -0.3358
 4749TIP3    H135738   5.011   6.347  12.649  0.2386 -0.5075  0.1525
 4749TIP3    H235739   4.878   6.277  12.634 -1.2324  2.2879 -0.1863
 4750TIP3   OH235740   6.044   3.363  12.394  0.0511 -0.2434  0.1890
 4750TIP3    H135741   5.971   3.306  12.370 -0.4968  1.6236 -2.8777
 4750TIP3    H235742   6.003   3.447  12.416  1.2300  0.7030 -1.1615
 4751TIP3   OH235743   3.381   0.807  14.988 -0.4303 -0.2277 -0.3649
 4751TIP3    H135744   3.456   0.867  14.989  0.3626 -1.2024 -0.6938
 4751TIP3    H235745   3.314   0.853  14.937 -0.0957  0.7028  0.0350
 4752TIP3   OH235746   4.938   0.477   3.136  0.0073 -0.2320 -0.2680
 4752TIP3    H135747   4.960   0.531   3.212  0.3788 -0.7873  0.0173
 4752TIP3    H235748   4.866   0.422   3.165 -0.1631 -0.1111 -0.4614
 4753TIP3   OH235749   2.642   1.775  11.422  0.4488  0.0096  0.1406
 4753TIP3    H135750   2.582   1.780  11.347 -0.0570  3.1059  0.6888
 4753TIP3    H235751   2.710   1.713  11.395  1.1620  2.2844 -3.5480
 4754TIP3   OH235752   5.397   4.642  14.158  0.1549 -0.5690 -0.1729
 4754TIP3    H135753   5.360   4.731  14.155 -1.3211 -1.1742 -0.1023
 4754TIP3    H235754   5.345   4.592  14.096  0.2503 -1.6757  0.6334
 4755TIP3   OH235755   3.682   5.750   2.421  0.0702  0.6094  0.6867
 4755TIP3    H135756   3.719   5.801   2.492  2.7033  0.2918 -0.4057
 4755TIP3    H235757   3.693   5.659   2.448  1.5846  0.4723 -0.3517
 4756TIP3   OH235758   1.322   4.819  15.808  0.0687 -0.2733  0.2705
 4756TIP3    H135759   1.358   4.820  15.719 -1.6226  0.5562 -0.4437
 4756TIP3    H235760   1.337   4.908  15.840 -1.4431  0.1372 -0.1047
 4757TIP3   OH235761   6.799   2.342   3.534 -0.2753  0.0533  0.2296
 4757TIP3    H135762   6.839   2.355   3.448 -0.5894 -0.6873 -0.0330
 4757TIP3    H235763   6.791   2.430   3.570  0.7346  0.2921 -0.0990
 4758TIP3   OH235764   2.927   2.386  16.348 -0.4589 -0.2150  0.2228
 4758TIP3    H135765   2.876   2.394  16.267 -3.1989 -0.7561  1.8198
 4758TIP3    H235766   2.982   2.309  16.334  1.0208  1.1839 -2.0814
 4759TIP3   OH235767   1.970   6.726  16.311  0.9357 -0.8825 -0.0365
 4759TIP3    H135768   1.903   6.793  16.326 -0.1079 -1.3131 -2.6208
 4759TIP3    H235769   1.949   6.656  16.372 -0.5204 -0.6852 -0.3056
 4760TIP3   OH235770   5.481   4.639   5.561 -0.4030 -0.4406  0.0512
 4760TIP3    H135771   5.573   4.613   5.564 -0.0919  0.7488  1.1147
 4760TIP3    H235772   5.445   4.612   5.645 -0.5876  0.6560  0.3385
 4761TIP3   OH235773   3.785   0.047   3.697 -0.1438 -0.1839 -0.4508
 4761TIP3    H135774   3.848   0.061   3.768 -2.7710 -1.1143  2.2001
 4761TIP3    H235775   3.805  -0.041   3.665 -0.6943 -0.8914  1.0709
 4762TIP3   OH235776   6.155   5.744  13.628  0.1961 -0.1819 -0.5816
 4762TIP3    H135777   6.223   5.751  13.561 -0.6778 -0.2713 -1.4928
 4762TIP3    H235778   6.162   5.825  13.678 -0.9412  1.1294 -2.5072
 4763TIP3   OH235779   0.781   1.021   1.853 -0.5319 -0.0639  0.0320
 4763TIP3    H135780   0.687   1.027   1.872 -0.3910  1.6354  0.2435
 4763TIP3    H235781   0.801   1.102   1.806  0.0323 -2.1452 -3.4875
 4764TIP3   OH235782   0.532   3.431   0.462  0.6164  0.3593  0.1866
 4764TIP3    H135783   0.475   3.355   0.477  0.9498 -0.0369 -0.5212
 4764TIP3    H235784   0.476   3.494   0.418  0.2128  0.7072  1.1856
 4765TIP3   OH235785   3.920   0.000  17.183  0.1732  0.3839 -0.2201
 4765TIP3    H135786   3.825   0.013  17.182  0.0363 -0.5399 -1.3664
 4765TIP3    H235787   3.939  -0.043  17.099  1.6840  1.0827 -0.2665
 4766TIP3   OH235788   4.451   1.205  13.864 -0.2678 -0.4460 -0.4066
 4766TIP3    H135789   4.487   1.167  13.944 -0.1428  1.2313  0.3597
 4766TIP3    H235790   4.439   1.130  13.805  0.5316 -1.5729  0.8267
 4767TIP3   OH235791   2.886   2.786   6.440 -0.1113 -0.2186 -0.1647
 4767TIP3    H135792   2.796   2.774   6.409  0.2155  0.4092 -1.3890
 4767TIP3    H235793   2.933   2.711   6.404  0.5844  1.2778 -2.5047
 4768TIP3   OH235794   4.949   1.951   6.057  0.0340  0.5717  0.1513
 4768TIP3    H135795   4.894   1.940   5.980  0.6242 -1.2152 -0.0321
 4768TIP3    H235796   5.038   1.950   6.024  0.2703  0.4142  0.7777
 4769TIP3   OH235797   1.694   2.582  14.270 -0.1484 -0.3703 -0.2915
 4769TIP3    H135798   1.741   2.663  14.288  0.5864 -0.6541 -0.8885
 4769TIP3    H235799   1.755   2.513  14.292  0.1722 -0.7341 -2.1986
 4770TIP3   OH235800   2.308   3.607   1.809  0.2584  0.3546  0.1329
 4770TIP3    H135801   2.318   3.512   1.810  1.6745  0.4647 -1.0308
 4770TIP3    H235802   2.377   3.639   1.867  0.0424  0.6881  0.2113
 4771TIP3   OH235803   6.679   2.174   4.400  0.2153  0.2859  0.0429
 4771TIP3    H135804   6.605   2.114   4.394  0.1611  0.2027  1.4168
 4771TIP3    H235805   6.673   2.212   4.488  1.1320  1.1556 -0.2514
 4772TIP3   OH235806   6.472   5.895  10.865  0.6396  0.0991 -0.0084
 4772TIP3    H135807   6.432   5.979  10.842  0.8175  0.4106  0.8032
 4772TIP3    H235808   6.402   5.845  10.906  0.6624  0.0334 -0.0495
 4773TIP3   OH235809   6.554   2.972   4.386  0.4412 -0.2205 -0.2260
 4773TIP3    H135810   6.517   2.959   4.474 -1.0559 -1.2977 -0.9941
 4773TIP3    H235811   6.487   3.022   4.339  0.8442 -0.4202 -1.0193
 4774TIP3   OH235812   1.222   1.402   1.015 -0.0067  0.2634  0.2279
 4774TIP3    H135813   1.253   1.313   1.035  2.3486  1.0618  0.2848
 4774TIP3    H235814   1.274   1.459   1.072 -0.5602  1.7824 -0.7559
 4775TIP3   OH235815   0.739   3.343  16.886  0.2914  0.0247  0.0027
 4775TIP3    H135816   0.661   3.301  16.848  0.1492 -0.9686  1.3492
 4775TIP3    H235817   0.706   3.425  16.924  0.0711  0.0595 -0.2644
 4776TIP3   OH235818   3.689   3.309  14.395 -0.0671 -1.1046 -0.2776
 4776TIP3    H135819   3.601   3.280  14.370  0.3948 -0.2383 -3.0822
 4776TIP3    H235820   3.748   3.254  14.344  1.0666 -1.6751  1.5859
 4777TIP3   OH235821   4.331   6.685  15.413 -0.1837  0.1205  0.1834
 4777TIP3    H135822   4.302   6.770  15.380 -2.1989  0.1602  1.8846
 4777TIP3    H235823   4.412   6.703  15.460  0.7643  0.6472 -1.6168
 4778TIP3   OH235824   4.696   4.845  13.509  0.4208 -0.5024 -0.1126
 4778TIP3    H135825   4.716   4.902  13.435  0.7628  0.4882  0.7322
 4778TIP3    H235826   4.616   4.800  13.483  1.6131 -1.6484 -1.9107
 4779TIP3   OH235827   3.837   1.297   1.971  0.3188  0.0999  0.0446
 4779TIP3    H135828   3.903   1.232   1.993  0.1786  0.3315  1.1892
 4779TIP3    H235829   3.866   1.377   2.015  0.7489  0.9657 -1.7324
 4780TIP3   OH235830   4.714   2.935  10.888 -1.0707 -0.0529  0.3542
 4780TIP3    H135831   4.704   2.859  10.946 -1.7778  1.2657  2.0151
 4780TIP3    H235832   4.803   2.967  10.905 -0.5446 -0.8634 -0.8105
 4781TIP3   OH235833   3.549   1.903   4.009 -0.0063 -0.2257 -0.1066
 4781TIP3    H135834   3.496   1.978   3.982 -0.9406 -0.1754  1.7522
 4781TIP3    H235835   3.627   1.942   4.048  0.4780 -0.2629 -1.0347
 4782TIP3   OH235836   3.252   1.821  15.126 -0.0472 -0.5281  0.3320
 4782TIP3    H135837   3.175   1.803  15.179  0.2437 -0.1794  0.8744
 4782TIP3    H235838   3.275   1.912  15.145  1.3053 -1.0365  1.2378
 4783TIP3   OH235839   4.431   5.047  15.274 -0.4169  0.5564  0.3848
 4783TIP3    H135840   4.389   5.133  15.279 -0.4003  0.4768  2.3227
 4783TIP3    H235841   4.525   5.067  15.279 -0.4224  0.4266  1.1128
 4784TIP3   OH235842   1.825   3.446  17.138 -0.0067 -0.5424  0.2488
 4784TIP3    H135843   1.776   3.363  17.133 -3.9014  1.6787 -0.3899
 4784TIP3    H235844   1.816   3.474  17.229  0.3634 -0.2883  0.2086
 4785TIP3   OH235845   4.594   1.047  14.550 -0.5389 -0.1776  0.7616
 4785TIP3    H135846   4.545   1.078  14.626  1.5492 -0.9883  2.4996
 4785TIP3    H235847   4.530   0.997  14.499 -1.8447 -0.1230  2.3028
 4786TIP3   OH235848   1.481   6.174  15.263 -0.7284 -0.1483 -0.3221
 4786TIP3    H135849   1.568   6.186  15.300  0.3265 -0.7460 -2.5236
 4786TIP3    H235850   1.463   6.081  15.272 -1.1308 -0.0365  0.0747
 4787TIP3   OH235851   4.599   5.970   3.886  0.0830 -0.0409 -1.0011
 4787TIP3    H135852   4.505   5.980   3.875 -0.0001 -1.5383 -1.7769
 4787TIP3    H235853   4.617   5.880   3.858  1.4429 -0.4423  1.0531
 4788TIP3   OH235854   1.285   3.074  16.203  0.0118 -0.6069  0.5806
 4788TIP3    H135855   1.226   3.041  16.135  0.3707  0.3098 -0.1811
 4788TIP3    H235856   1.371   3.075  16.162  1.2097 -4.8981  2.6402
 4789TIP3   OH235857   5.849   3.332   5.592  0.1776 -0.3017 -0.0289
 4789TIP3    H135858   5.942   3.338   5.569  0.4578 -2.2929  0.4346
 4789TIP3    H235859   5.831   3.238   5.591 -1.6311  0.0221  0.6970
 4790TIP3   OH235860   2.244   6.032   2.953 -0.4002  0.4135 -0.6561
 4790TIP3    H135861   2.307   5.997   3.017 -2.3352  0.2943  1.2549
 4790TIP3    H235862   2.293   6.036   2.871  1.5578 -1.4236  0.3563
 4791TIP3   OH235863   2.579   1.660   6.069 -0.2455  0.2221  0.2449
 4791TIP3    H135864   2.556   1.720   5.998 -2.1329  0.2448  0.8615
 4791TIP3    H235865   2.653   1.609   6.034 -0.1693  1.2733 -1.1598
 4792TIP3   OH235866   6.278   5.360  11.172 -0.2254  0.1713 -0.2587
 4792TIP3    H135867   6.212   5.372  11.104  1.7168  2.1421 -1.8397
 4792TIP3    H235868   6.228   5.354  11.253 -2.4706 -0.6323 -1.6579
 4793TIP3   OH235869   4.813   0.973   5.293  0.3698 -0.2985 -0.4824
 4793TIP3    H135870   4.844   1.015   5.214 -2.4529 -0.1420 -1.5512
 4793TIP3    H235871   4.807   1.044   5.358 -0.7831  0.2576 -1.1897
 4794TIP3   OH235872   4.230   1.028  12.438  0.5226 -0.1639 -0.1337
 4794TIP3    H135873   4.205   1.039  12.530 -0.4699  2.6251 -0.6823
 4794TIP3    H235874   4.289   1.101  12.420  1.7638 -1.4478 -1.3710
 4795TIP3   OH235875   2.328   3.450  12.142 -0.6495  0.1152 -0.4673
 4795TIP3    H135876   2.423   3.437  12.145 -0.9547 -2.3280 -0.5929
 4795TIP3    H235877   2.310   3.477  12.052 -0.1934 -0.4591 -0.7319
 4796TIP3   OH235878   5.786   5.355  16.056 -0.6000  0.3477 -0.3202
 4796TIP3    H135879   5.787   5.267  16.018 -1.1442  0.4197 -0.5028
 4796TIP3    H235880   5.759   5.413  15.984 -0.9251  0.5728 -0.0217
 4797TIP3   OH235881   4.279   4.108   4.610  0.2771  0.3853 -0.3315
 4797TIP3    H135882   4.184   4.123   4.602 -0.0390 -0.7986  0.9959
 4797TIP3    H235883   4.305   4.077   4.524 -1.0776 -1.9779  0.0693
 4798TIP3   OH235884   1.224   0.236  15.145 -0.1892 -0.3330  0.0608
 4798TIP3    H135885   1.186   0.153  15.115 -0.7736  0.1495 -0.5576
 4798TIP3    H235886   1.171   0.303  15.102  0.0410  0.3660  0.8547
 4799TIP3   OH235887   1.167   5.959   1.941  0.8378 -0.7251  0.3808
 4799TIP3    H135888   1.152   6.001   1.856 -0.8803 -0.1228  0.9656
 4799TIP3    H235889   1.227   5.887   1.921  1.0538 -0.1302 -1.2202
 4800TIP3   OH235890   1.593   6.644   2.439 -0.6259 -0.1654 -0.0378
 4800TIP3    H135891   1.685   6.672   2.434 -1.3216  2.8859  2.4455
 4800TIP3    H235892   1.556   6.667   2.354  0.5381  0.0187 -0.4996
 4801TIP3   OH235893   3.003   2.219   3.916  0.3070  0.2972  0.4921
 4801TIP3    H135894   2.965   2.135   3.892  0.3111  0.4579 -0.0808
 4801TIP3    H235895   3.033   2.256   3.833  1.8203  0.1137  0.9312
 4802TIP3   OH235896   2.212   3.199  11.047 -0.0302 -0.7364  0.0622
 4802TIP3    H135897   2.223   3.261  11.119  1.4924 -0.3286 -0.4932
 4802TIP3    H235898   2.156   3.243  10.984 -2.6692 -1.6991  1.6668
 4803TIP3   OH235899   1.389   3.696   2.700 -0.3220  0.2510 -0.4920
 4803TIP3    H135900   1.297   3.676   2.682 -0.2904 -2.4722  1.9733
 4803TIP3    H235901   1.436   3.666   2.622 -1.4503  1.1865 -1.5394
 4804TIP3   OH235902   4.552   2.695  11.520  0.1776  0.3674 -0.1216
 4804TIP3    H135903   4.538   2.626  11.585  0.8768 -1.0069 -1.4041
 4804TIP3    H235904   4.540   2.651  11.436  0.0246  1.9626 -0.9428
 4805TIP3   OH235905   5.563   3.749   0.660 -0.0904 -0.0383 -0.3784
 4805TIP3    H135906   5.503   3.793   0.720  0.0599 -1.0993  0.5649
 4805TIP3    H235907   5.650   3.775   0.689 -0.0132 -0.6488 -0.0436
 4806TIP3   OH235908   3.149   1.183   4.944 -0.3992  0.1069 -0.0280
 4806TIP3    H135909   3.065   1.229   4.947 -1.1701 -1.3066  0.5995
 4806TIP3    H235910   3.129   1.101   4.899 -0.0642 -1.6350  2.8988
 4807TIP3   OH235911   4.489   4.430  12.835  0.7492 -0.0157  0.3543
 4807TIP3    H135912   4.427   4.471  12.774  0.5871 -0.0600  0.4899
 4807TIP3    H235913   4.436   4.367  12.883  0.6380  0.7711  1.2882
 4808TIP3   OH235914   4.632   1.195  14.933 -0.2651 -0.4666 -0.2090
 4808TIP3    H135915   4.668   1.223  14.849 -0.8414 -1.8188 -0.9139
 4808TIP3    H235916   4.706   1.153  14.978  0.0731  0.3614  0.0333
 4809TIP3   OH235917   1.076   1.327  13.019  0.1637 -0.1057  0.3675
 4809TIP3    H135918   1.155   1.351  12.970 -0.2259 -1.9401 -1.1926
 4809TIP3    H235919   1.014   1.299  12.952 -1.4678  0.3538  1.6754
 4810TIP3   OH235920   3.824   5.464   1.264  0.0660 -0.3816 -0.3078
 4810TIP3    H135921   3.809   5.507   1.348  1.1707 -0.4456 -0.0663
 4810TIP3    H235922   3.903   5.506   1.230 -0.2793 -0.4806 -1.2304
 4811TIP3   OH235923   4.901   2.192   1.588 -0.2597 -0.1075 -0.6177
 4811TIP3    H135924   4.923   2.156   1.674  0.5541  0.7418 -0.4638
 4811TIP3    H235925   4.886   2.116   1.533 -1.6505 -0.6636  0.4954
 4812TIP3   OH235926   4.169   5.658  16.496  0.2753 -0.0681 -0.1555
 4812TIP3    H135927   4.098   5.597  16.474  0.5548 -0.2629 -0.5098
 4812TIP3    H235928   4.171   5.657  16.592 -2.7074  2.8180  0.0307
 4813TIP3   OH235929   6.362   1.797   4.927  0.3006  0.0515 -0.1369
 4813TIP3    H135930   6.361   1.892   4.921  4.0634  0.1599 -0.1013
 4813TIP3    H235931   6.346   1.778   5.020  1.3459  0.7568  0.1983
 4814TIP3   OH235932   4.995   2.435   0.480 -0.2064 -0.7753  0.0854
 4814TIP3    H135933   4.929   2.383   0.525 -0.1157 -1.3839 -0.4899
 4814TIP3    H235934   5.068   2.440   0.542 -1.3598  1.1755  1.3412
 4815TIP3   OH235935   5.155   4.730  10.619  0.2496  0.2047  0.0294
 4815TIP3    H135936   5.194   4.643  10.616  0.1156  0.1354  0.1954
 4815TIP3    H235937   5.182   4.773  10.538  0.5275  0.0987  0.0673
 4816TIP3   OH235938   0.244   4.461  14.778 -0.2000  0.3163  0.8786
 4816TIP3    H135939   0.288   4.522  14.837 -2.4974  0.4266  2.5438
 4816TIP3    H235940   0.174   4.423  14.831 -2.6485  0.7920 -1.9067
 4817TIP3   OH235941   2.475   1.707   4.635 -0.3336 -0.2105  0.3083
 4817TIP3    H135942   2.443   1.675   4.551 -2.6475  0.4531  0.9139
 4817TIP3    H235943   2.447   1.641   4.698  0.3521 -0.1038  0.7301
 4818TIP3   OH235944   5.642   6.357  16.272 -0.3524 -0.0174 -0.3367
 4818TIP3    H135945   5.570   6.324  16.219 -0.3858 -1.6136  0.6596
 4818TIP3    H235946   5.718   6.353  16.215 -0.4341 -1.5124 -0.3452
 4819TIP3   OH235947   1.827   2.859  17.086  0.2017 -0.5378  0.3156
 4819TIP3    H135948   1.844   2.890  17.175 -3.2430  0.2868  0.7345
 4819TIP3    H235949   1.810   2.765  17.097 -0.4041 -0.4008  0.5412
 4820TIP3   OH235950   1.364   5.110   3.106  0.4568  0.3629 -0.3593
 4820TIP3    H135951   1.382   5.169   3.179 -0.3325  1.2123 -0.8437
 4820TIP3    H235952   1.358   5.023   3.147  0.7343  0.7336  0.4773
 4821TIP3   OH235953   6.697   0.204  15.344  0.4494 -0.2562  0.4259
 4821TIP3    H135954   6.627   0.196  15.280  2.1512 -1.6353 -1.3229
 4821TIP3    H235955   6.765   0.255  15.299  1.0711  0.0277  1.6578
 4822TIP3   OH235956   3.696   5.456   4.605 -0.1916  0.0474 -0.0583
 4822TIP3    H135957   3.787   5.430   4.612  0.3537  1.1290 -2.3612
 4822TIP3    H235958   3.663   5.455   4.694  1.9878 -0.6465  0.7652
 4823TIP3   OH235959   0.919   1.288  12.591 -0.5440  0.0224  0.4351
 4823TIP3    H135960   0.992   1.348  12.605  0.6352 -0.6302 -2.5009
 4823TIP3    H235961   0.856   1.339  12.540 -1.4567  0.1020  1.6383
 4824TIP3   OH235962   3.092   0.154   4.710  0.7354  0.5438 -0.0892
 4824TIP3    H135963   3.180   0.154   4.748  1.3605 -0.3799 -1.4834
 4824TIP3    H235964   3.051   0.075   4.745 -0.2302  1.9531  2.0496
 4825TIP3   OH235965   5.867   1.827   5.053  0.7365  0.3035  0.0391
 4825TIP3    H135966   5.820   1.895   5.004  0.3119 -1.1364 -1.5921
 4825TIP3    H235967   5.959   1.849   5.041  0.6338  0.0297 -1.3351
 4826TIP3   OH235968   0.188   2.879   5.762  0.4841 -0.1628 -0.4293
 4826TIP3    H135969   0.201   2.910   5.852 -1.0598 -0.3164 -0.1395
 4826TIP3    H235970   0.169   2.958   5.712 -1.0944 -0.3470 -0.1423
 4827TIP3   OH235971   0.077   1.940  13.554 -0.3913  1.0269  0.0133
 4827TIP3    H135972   0.044   1.998  13.485 -0.3046 -0.3880 -1.2471
 4827TIP3    H235973   0.007   1.876  13.567  1.2246 -1.2097 -1.7489
 4828TIP3   OH235974   3.948   6.176   5.293 -0.2257 -0.4047 -0.3303
 4828TIP3    H135975   3.991   6.180   5.208  1.0460  1.3027  0.3814
 4828TIP3    H235976   3.867   6.129   5.276 -0.7757  1.3530 -2.8146
 4829TIP3   OH235977   4.988   6.074  15.646 -1.0005 -0.4114 -0.0539
 4829TIP3    H135978   5.012   5.981  15.648 -2.1824 -0.7822 -1.5503
 4829TIP3    H235979   4.946   6.089  15.731  3.0867 -0.0857  2.0150
 4830TIP3   OH235980   2.249   6.691  15.776 -0.5371  0.2064 -0.6136
 4830TIP3    H135981   2.300   6.770  15.759  0.7482 -0.5288 -0.2721
 4830TIP3    H235982   2.277   6.629  15.709 -0.6618 -0.3459 -0.1625
 4831TIP3   OH235983   6.812   6.757  13.184  0.5637  0.1589 -0.2220
 4831TIP3    H135984   6.902   6.737  13.158 -0.4991 -1.1783 -3.0614
 4831TIP3    H235985   6.793   6.841  13.143  0.6407  0.6880  0.7916
 4832TIP3   OH235986   4.510   2.491  11.703 -0.3023  0.0944  0.0315
 4832TIP3    H135987   4.561   2.441  11.767  0.2727 -1.1949 -1.4100
 4832TIP3    H235988   4.418   2.472  11.725 -0.1233  0.1476  0.8413
 4833TIP3   OH235989   4.254   5.252   6.179 -0.1954 -0.4065 -0.3004
 4833TIP3    H135990   4.343   5.286   6.190 -0.6156  0.7287 -0.3810
 4833TIP3    H235991   4.214   5.261   6.266 -0.1043 -1.3171 -0.1534
 4834TIP3   OH235992   5.270   3.625   3.337 -0.5950 -0.1956 -0.5521
 4834TIP3    H135993   5.200   3.647   3.276 -1.4412 -1.5427 -0.0764
 4834TIP3    H235994   5.227   3.581   3.410  0.5756  0.1634  0.3878
 4835TIP3   OH235995   6.169   4.661   2.042 -0.1377  0.9193 -0.9130
 4835TIP3    H135996   6.103   4.625   1.982  0.0686 -1.5031  0.2839
 4835TIP3    H235997   6.211   4.585   2.081 -0.3533  2.4300  2.4323
 4836TIP3   OH235998   3.311   0.596   4.190 -0.2997  0.2357  0.4272
 4836TIP3    H135999   3.383   0.658   4.182 -0.4777  0.3648 -0.2495
 4836TIP3    H236000   3.232   0.650   4.193 -0.6496 -0.0043 -2.7694
 4837TIP3   OH236001   3.803   4.733  13.853  0.3155 -0.3368 -0.3725
 4837TIP3    H136002   3.818   4.722  13.759 -1.8014 -0.1941 -0.7508
 4837TIP3    H236003   3.728   4.792  13.859  0.0881 -0.7743  1.4013
 4838TIP3   OH236004   0.277   4.311  17.150 -0.7246  0.6105  0.0688
 4838TIP3    H136005   0.280   4.242  17.216 -0.3170 -1.0596 -1.6590
 4838TIP3    H236006   0.277   4.393  17.201 -0.0588 -0.6204  2.1092
 4839TIP3   OH236007   1.743   5.967   6.908 -0.1643  0.4263 -0.5411
 4839TIP3    H136008   1.829   5.925   6.901 -0.5052 -0.5584  1.0662
 4839TIP3    H236009   1.702   5.951   6.824  0.3416 -1.0874 -0.5217
 4840TIP3   OH236010   3.774   2.014   0.355  0.0110 -0.4231  0.4394
 4840TIP3    H136011   3.785   1.921   0.378  0.4252 -0.2800  0.8317
 4840TIP3    H236012   3.695   2.016   0.302 -1.0687 -0.7578  1.9792
 4841TIP3   OH236013   1.280   0.504   5.876  0.4156 -0.3977  0.0196
 4841TIP3    H136014   1.353   0.555   5.841  0.1656  1.8092  2.5677
 4841TIP3    H236015   1.204   0.531   5.824  0.9274 -0.7741 -0.9252
 4842TIP3   OH236016   2.710   3.140  15.042 -0.2977 -0.1716 -0.3230
 4842TIP3    H136017   2.798   3.133  15.080  0.9748  3.1708 -2.4258
 4842TIP3    H236018   2.652   3.115  15.113  2.2744 -0.1792  1.8733
 4843TIP3   OH236019   5.677   3.978  16.704  0.1999  0.3452  0.1142
 4843TIP3    H136020   5.611   3.937  16.761 -0.5499  3.2842  1.4516
 4843TIP3    H236021   5.627   4.024  16.637  0.6979  3.9543  2.0707
 4844TIP3   OH236022   4.201   3.150  15.331 -0.2910 -0.2005  0.0940
 4844TIP3    H136023   4.190   3.245  15.330 -1.1336 -0.2994 -1.2590
 4844TIP3    H236024   4.175   3.124  15.419 -3.4420  0.4506 -0.5869
 4845TIP3   OH236025   2.216   3.034   4.043 -0.4613 -0.6065  0.5140
 4845TIP3    H136026   2.250   2.960   4.094  1.2619 -1.5184 -1.8206
 4845TIP3    H236027   2.131   3.004   4.012  0.3643 -1.8161 -0.6830
 4846TIP3   OH236028   1.769   2.367   2.849 -0.4556 -0.2251 -0.1020
 4846TIP3    H136029   1.736   2.456   2.844 -0.5404 -0.3442 -2.2218
 4846TIP3    H236030   1.691   2.311   2.843 -0.3312 -0.4621  0.4090
 4847TIP3   OH236031   1.733   1.701   6.439  0.8783 -0.3096  0.3762
 4847TIP3    H136032   1.786   1.753   6.499  0.5026 -0.7338  1.0882
 4847TIP3    H236033   1.645   1.740   6.444  0.9198 -0.1373 -0.1569
 4848TIP3   OH236034   4.228   4.300  14.819 -0.0201  0.0448 -0.3546
 4848TIP3    H136035   4.253   4.306  14.911  1.3206  0.1410 -0.7085
 4848TIP3    H236036   4.242   4.388  14.784  1.5191 -0.4798 -1.1266
 4849TIP3   OH236037   6.437   0.028  17.244 -0.7575  0.1351  0.0346
 4849TIP3    H136038   6.470   0.117  17.257 -2.1281  1.1357 -2.7739
 4849TIP3    H236039   6.515  -0.026  17.235  0.1583  1.6889 -1.8864
 4850TIP3   OH236040   3.547   1.109   3.244  0.2440 -0.7523  0.0880
 4850TIP3    H136041   3.602   1.181   3.278  1.7138 -1.4345 -0.7872
 4850TIP3    H236042   3.592   1.081   3.165 -0.6378 -2.2681  0.1180
 4851TIP3   OH236043   5.601   2.548   0.414 -0.2087  0.7734 -0.3794
 4851TIP3    H136044   5.511   2.532   0.385 -0.8264  2.0237  0.8054
 4851TIP3    H236045   5.644   2.462   0.408 -1.7177 -0.0193 -0.1182
 4852TIP3   OH236046   6.085   6.263  15.516 -0.1335 -0.0015  0.0803
 4852TIP3    H136047   6.044   6.178  15.530 -0.1811  0.0044 -0.0185
 4852TIP3    H236048   6.011   6.324  15.512 -0.1585 -0.0725 -0.7014
 4853TIP3   OH236049   4.936   4.555   5.352  0.2213 -0.0725  0.0630
 4853TIP3    H136050   4.887   4.503   5.415 -2.9656  1.2205 -1.2616
 4853TIP3    H236051   4.975   4.625   5.404 -3.2206  1.5739  0.5677
 4854TIP3   OH236052   5.833   5.853   4.630  0.2983 -0.3084 -0.2093
 4854TIP3    H136053   5.814   5.837   4.537 -2.0705 -1.3330  0.4014
 4854TIP3    H236054   5.887   5.778   4.656  1.4123  0.2547 -0.8848
 4855TIP3   OH236055   2.082   3.046   4.579 -0.7209  0.1752  1.1466
 4855TIP3    H136056   2.095   3.105   4.653 -0.3569  0.0213  1.2044
 4855TIP3    H236057   2.163   3.052   4.529 -0.5323 -0.5878  1.3630
 4856TIP3   OH236058   5.328   2.621  13.487 -0.3977 -0.1445  0.3138
 4856TIP3    H136059   5.375   2.691  13.533 -0.3610 -0.9076  1.4386
 4856TIP3    H236060   5.252   2.665  13.448 -0.1243  0.6080  0.6157
 4857TIP3   OH236061   5.965   6.165   0.207 -0.0484 -0.1196 -0.4256
 4857TIP3    H136062   5.904   6.106   0.252  0.8499 -0.2438  0.6575
 4857TIP3    H236063   5.934   6.167   0.116 -1.8577  0.0839  0.1637
 4858TIP3   OH236064   2.450   4.980  16.068 -0.5251 -0.7590  0.2103
 4858TIP3    H136065   2.497   4.967  16.151 -3.0327 -1.6113  1.5659
 4858TIP3    H236066   2.462   4.898  16.021  2.7151  0.5066 -1.2660
 4859TIP3   OH236067   3.504   6.214   2.027  0.2204  0.8261 -0.1596
 4859TIP3    H136068   3.550   6.273   1.968  0.2738  0.7947 -0.1483
 4859TIP3    H236069   3.542   6.232   2.113  0.7937  0.2013 -0.2852
 4860TIP3   OH236070   0.550   5.270  16.041 -0.0599 -0.2975  0.5017
 4860TIP3    H136071   0.606   5.288  16.117  1.6599 -0.5340 -0.6796
 4860TIP3    H236072   0.516   5.182  16.057  0.1798 -0.2868  1.0853
 4861TIP3   OH236073   3.618   6.697   4.441  0.8763 -0.4474 -0.2929
 4861TIP3    H136074   3.651   6.614   4.405  0.0593 -0.5066 -0.9314
 4861TIP3    H236075   3.554   6.727   4.376  0.6488  0.3262  0.2855
 4862TIP3   OH236076   3.612   1.261  12.215  0.8180 -0.0165  0.0076
 4862TIP3    H136077   3.579   1.351  12.222  4.3568  1.3441 -0.0373
 4862TIP3    H236078   3.602   1.225  12.303  0.3663  0.7656  0.2810
 4863TIP3   OH236079   5.960   2.137   1.343 -0.4101  0.1560 -0.0480
 4863TIP3    H136080   5.979   2.058   1.292 -2.0739  0.1895 -0.7523
 4863TIP3    H236081   5.865   2.135   1.356 -0.3314  1.5053  0.8204
 4864TIP3   OH236082   0.410   3.292  15.618 -0.1046 -0.1671 -0.1343
 4864TIP3    H136083   0.478   3.294  15.686 -0.1012  0.9719 -0.1566
 4864TIP3    H236084   0.339   3.345  15.654 -1.5038 -2.3813  0.4055
 4865TIP3   OH236085   5.684   1.950   2.587 -0.0139 -0.1067  0.1138
 4865TIP3    H136086   5.630   1.958   2.508  1.0380 -0.7797 -0.6949
 4865TIP3    H236087   5.621   1.946   2.659 -0.9812  0.7239 -0.6701
 4866TIP3   OH236088   3.555   6.509   5.133  0.0540 -0.5712 -0.0090
 4866TIP3    H136089   3.614   6.579   5.104  1.3196 -1.4795  0.3090
 4866TIP3    H236090   3.546   6.453   5.056  0.3350 -0.9139  0.2049
 4867TIP3   OH236091   1.607   3.077   1.624  0.2837  0.1079 -0.1759
 4867TIP3    H136092   1.600   3.095   1.718  0.8463  0.8892 -0.2766
 4867TIP3    H236093   1.556   2.998   1.611 -0.6733  0.5782  0.6263
 4868TIP3   OH236094   4.239   0.150  12.374 -0.5300  0.1750  0.0970
 4868TIP3    H136095   4.152   0.111  12.372  0.2838 -1.7151  0.6434
 4868TIP3    H236096   4.264   0.149  12.466 -0.3498  1.6934  0.0798
 4869TIP3   OH236097   6.213   3.704  11.419 -0.6519 -0.4387 -0.0653
 4869TIP3    H136098   6.147   3.673  11.480  0.9489  0.1082  2.0140
 4869TIP3    H236099   6.253   3.624  11.384  0.2449 -0.7815  1.6800
 4870TIP3   OH236100   3.208   4.807   2.801  0.0844  0.1414 -0.0639
 4870TIP3    H136101   3.126   4.832   2.757 -0.3943  1.5692  1.5748
 4870TIP3    H236102   3.247   4.890   2.827  1.3542 -0.6066  0.4501
 4871TIP3   OH236103   4.168   2.740  15.338 -0.1344  0.0295 -0.4155
 4871TIP3    H136104   4.101   2.732  15.271  0.3692 -0.6591 -0.8438
 4871TIP3    H236105   4.120   2.734  15.421 -0.6862  0.3182 -0.7134
 4872TIP3   OH236106   0.633   1.273  15.423  0.0739  0.0059 -0.2964
 4872TIP3    H136107   0.576   1.320  15.363 -0.3519 -1.3764 -0.9835
 4872TIP3    H236108   0.576   1.207  15.464  0.4249  0.7061  1.3893
 4873TIP3   OH236109   1.588   1.743  11.409  0.3217 -0.8795  0.2367
 4873TIP3    H136110   1.576   1.742  11.314 -0.9201 -1.8405  0.3868
 4873TIP3    H236111   1.635   1.824  11.426  0.0721 -0.4197 -1.1495
 4874TIP3   OH236112   0.028   5.649  12.118  0.3290  0.7539  0.0991
 4874TIP3    H136113   0.072   5.713  12.063 -0.8019  1.5256  0.0801
 4874TIP3    H236114  -0.065   5.672  12.112 -0.4177 -2.5187 -2.0632
 4875TIP3   OH236115   5.652   0.632  13.787 -0.3517 -0.2353 -0.1618
 4875TIP3    H136116   5.680   0.574  13.857 -1.0079  0.3901  0.6311
 4875TIP3    H236117   5.733   0.672  13.755 -0.0953 -0.1709  0.5580
 4876TIP3   OH236118   1.088   5.369  12.154 -0.0822 -0.0945 -0.3422
 4876TIP3    H136119   1.162   5.431  12.157  0.2659 -0.3697 -2.6661
 4876TIP3    H236120   1.062   5.367  12.062 -2.8474 -0.2141  0.3932
 4877TIP3   OH236121   2.119   1.608   2.601 -0.0709  0.5143  0.1913
 4877TIP3    H136122   2.131   1.596   2.695 -0.3776  0.9532  0.2921
 4877TIP3    H236123   2.044   1.553   2.579 -0.3210  0.8086  0.3028
 4878TIP3   OH236124   4.212   0.688   4.114  0.0686 -0.5654  0.1119
 4878TIP3    H136125   4.250   0.721   4.033  0.0875  0.1814  0.4191
 4878TIP3    H236126   4.162   0.612   4.088  1.4822 -1.3516 -0.3522
 4879TIP3   OH236127   3.512   4.756  13.305 -0.2669  0.2586  0.0999
 4879TIP3    H136128   3.429   4.772  13.260 -2.7584 -1.9766  3.6814
 4879TIP3    H236129   3.520   4.661  13.309  1.8046  0.4350  0.9955
 4880TIP3   OH236130   0.641   5.256  16.868 -0.0403  0.4963 -0.0746
 4880TIP3    H136131   0.592   5.316  16.925 -0.6038  0.0425 -0.0805
 4880TIP3    H236132   0.679   5.192  16.928 -3.8167 -2.2884 -0.4871
 4881TIP3   OH236133   4.558   2.760   2.713  0.0289  0.0339  0.2952
 4881TIP3    H136134   4.579   2.745   2.805 -0.5538  0.6889  0.5367
 4881TIP3    H236135   4.533   2.852   2.709 -0.7047 -0.1914 -0.3762
 4882TIP3   OH236136   2.100   6.017  15.721 -0.2491  0.2531 -0.4247
 4882TIP3    H136137   2.142   5.936  15.693 -0.2429 -0.7157  2.2505
 4882TIP3    H236138   2.006   5.996  15.723 -0.2640  0.3651  0.1053
 4883TIP3   OH236139   6.369   5.560   3.578  0.2093 -0.3307  0.1316
 4883TIP3    H136140   6.399   5.540   3.490 -0.5288 -0.5767 -0.0687
 4883TIP3    H236141   6.326   5.645   3.570  0.3605 -0.2384  0.3038
 4884TIP3   OH236142   1.588   2.863   3.237  0.4995 -0.5835 -0.5436
 4884TIP3    H136143   1.544   2.859   3.321  0.6674  0.4524 -0.3932
 4884TIP3    H236144   1.527   2.824   3.175 -0.4117  0.3413 -0.2416
 4885TIP3   OH236145   4.949   1.478  15.218  0.1109 -0.2858 -0.3283
 4885TIP3    H136146   4.961   1.564  15.258  0.4618  0.2601 -1.5972
 4885TIP3    H236147   4.873   1.488  15.161 -2.1425 -1.8105  2.2493
 4886TIP3   OH236148   0.333   0.134   5.366  0.2288  0.0842 -0.3783
 4886TIP3    H136149   0.356   0.224   5.388 -0.7295  0.0496  0.8197
 4886TIP3    H236150   0.397   0.081   5.414  0.9666  0.1248 -1.3037
 4887TIP3   OH236151   1.606   4.639   5.379 -0.1359 -0.1003 -0.4444
 4887TIP3    H136152   1.597   4.690   5.298 -2.8413 -0.9822 -0.7432
 4887TIP3    H236153   1.645   4.556   5.351  1.5466  0.6558 -0.3972
 4888TIP3   OH236154   3.696   0.586  11.911  0.4800 -0.5393  0.1066
 4888TIP3    H136155   3.776   0.604  11.862 -0.5697  2.3781 -0.6749
 4888TIP3    H236156   3.625   0.608  11.850 -0.8852 -1.2694  1.4014
 4889TIP3   OH236157   6.643   4.236   3.197  0.1227 -0.1934 -0.3115
 4889TIP3    H136158   6.723   4.246   3.145 -0.3337  2.3069 -0.6282
 4889TIP3    H236159   6.599   4.321   3.188 -1.8968 -1.0823  0.9650
 4890TIP3   OH236160   5.937   1.311   0.745  0.0768  0.1573 -0.0765
 4890TIP3    H136161   5.978   1.225   0.751  0.9229  0.5560 -0.1425
 4890TIP3    H236162   5.908   1.330   0.834 -3.7868 -1.9740 -0.7584
 4891TIP3   OH236163   1.788   5.381  12.839  0.1821  0.6262  0.1131
 4891TIP3    H136164   1.835   5.323  12.899  2.0608  1.1556 -0.7859
 4891TIP3    H236165   1.700   5.345  12.833  0.7982 -1.0567  0.9813
 4892TIP3   OH236166   4.661   6.618  10.595 -0.6898 -0.0654  0.0860
 4892TIP3    H136167   4.669   6.546  10.657 -0.7536 -0.9959 -0.9770
 4892TIP3    H236168   4.750   6.652  10.588 -0.6948  0.0947  0.7413
 4893TIP3   OH236169   0.141   2.282  15.752  0.7254  0.1335  0.2709
 4893TIP3    H136170   0.184   2.367  15.743  1.9588 -0.5806 -0.9796
 4893TIP3    H236171   0.069   2.284  15.689  0.2923  0.5180  0.7751
 4894TIP3   OH236172   4.588   2.796  16.417  0.2953 -0.4532 -0.1363
 4894TIP3    H136173   4.537   2.734  16.469 -0.2652 -0.8335 -1.1238
 4894TIP3    H236174   4.654   2.830  16.477 -0.2159 -1.0427  0.7608
 4895TIP3   OH236175   2.957   3.251   4.575  0.3185  0.1152  0.1684
 4895TIP3    H136176   3.052   3.251   4.583  0.3183 -1.6755  0.4570
 4895TIP3    H236177   2.930   3.168   4.613 -1.0654 -1.0296 -3.0705
 4896TIP3   OH236178   2.471   1.128  16.475  0.2040  0.2590  0.1100
 4896TIP3    H136179   2.414   1.201  16.501  2.0016  1.6056  0.3415
 4896TIP3    H236180   2.488   1.143  16.382 -1.5275 -1.3421 -0.4932
 4897TIP3   OH236181   0.118   5.213   2.498 -0.2215 -0.1331 -0.1848
 4897TIP3    H136182   0.072   5.129   2.504 -0.5762  0.0633 -0.1713
 4897TIP3    H236183   0.057   5.271   2.453  0.0232  0.1191 -0.1895
 4898TIP3   OH236184   4.613   5.738  14.227 -0.1865 -0.1738  0.1657
 4898TIP3    H136185   4.549   5.678  14.266  0.1529 -0.5047  0.2206
 4898TIP3    H236186   4.688   5.682  14.207 -1.1991 -0.5068 -3.1155
 4899TIP3   OH236187   3.221   6.113   1.709  0.0263  0.5815 -1.0118
 4899TIP3    H136188   3.270   6.191   1.682  1.2237  0.4927  0.7898
 4899TIP3    H236189   3.260   6.041   1.658  3.1752  0.1917  1.7152
 4900TIP3   OH236190   1.849   3.197   4.753 -0.7492 -0.0530 -0.3495
 4900TIP3    H136191   1.806   3.257   4.691  1.7623  0.0146 -2.1161
 4900TIP3    H236192   1.941   3.222   4.749 -0.1322 -2.0260  1.2428
 4901TIP3   OH236193   2.362   0.426   0.204 -0.6868  0.5339  0.6955
 4901TIP3    H136194   2.294   0.389   0.260 -0.0078  0.9978  1.8454
 4901TIP3    H236195   2.410   0.487   0.260  0.6224  0.2931 -0.1167
 4902TIP3   OH236196   5.516   3.551   2.277 -0.2539 -0.1355  0.1421
 4902TIP3    H136197   5.575   3.614   2.319 -1.4778  0.3127  1.2389
 4902TIP3    H236198   5.432   3.597   2.273 -0.7153 -1.0505 -0.6969
 4903TIP3   OH236199   0.780   4.980   1.525  0.5847  0.5635 -0.3996
 4903TIP3    H136200   0.800   4.896   1.566  1.7448  0.4607 -1.1530
 4903TIP3    H236201   0.826   5.045   1.579 -0.9076  0.8168  0.6198
 4904TIP3   OH236202   4.526   0.508  11.096 -0.3856 -0.8255 -0.1806
 4904TIP3    H136203   4.468   0.498  11.171 -0.1209 -0.4875  0.0716
 4904TIP3    H236204   4.606   0.461  11.121  0.3848  0.8387  0.4916
 4905TIP3   OH236205   2.795   1.066   6.023 -0.1384  0.0811  0.3551
 4905TIP3    H136206   2.861   1.013   5.977  2.6303  2.0400  1.8836
 4905TIP3    H236207   2.795   1.149   5.975 -0.5697  0.5330  1.1455
 4906TIP3   OH236208   4.838   1.042   4.454 -0.1210 -0.0368  0.0706
 4906TIP3    H136209   4.869   1.105   4.388  0.0047 -1.9465 -1.7479
 4906TIP3    H236210   4.752   1.014   4.422 -0.7077  0.1108  1.5019
 4907TIP3   OH236211   6.018   5.090   2.426 -0.2127  0.3259  0.5900
 4907TIP3    H136212   5.980   5.165   2.471  2.0707  1.5025  0.6289
 4907TIP3    H236213   6.047   5.125   2.341 -3.6056 -1.6358 -1.4679
 4908TIP3   OH236214   2.985   0.609  16.206 -0.1895  0.0701  0.0750
 4908TIP3    H136215   2.958   0.688  16.252  0.3691  0.2167  0.1522
 4908TIP3    H236216   3.067   0.583  16.248  0.5702  0.4630 -1.1327
 4909TIP3   OH236217   2.855   5.060  15.210  0.2079  0.2575 -0.1145
 4909TIP3    H136218   2.886   5.148  15.231 -0.6626  0.6032 -0.3027
 4909TIP3    H236219   2.835   5.062  15.117  0.0624 -0.1019 -0.0932
 4910TIP3   OH236220   6.085   6.343  11.955  0.0797 -0.1226 -0.1047
 4910TIP3    H136221   6.114   6.319  12.043 -2.0342  0.6366  0.8390
 4910TIP3    H236222   6.157   6.394  11.918  1.5752 -1.6806  0.6337
 4911TIP3   OH236223   3.144   4.488  15.848  0.7676 -0.2188  0.4119
 4911TIP3    H136224   3.180   4.568  15.884  1.8437 -0.1037 -0.8540
 4911TIP3    H236225   3.063   4.514  15.805  0.8773  0.1053  0.4068
 4912TIP3   OH236226   6.483   0.864  11.984 -0.6902  0.0657 -0.6549
 4912TIP3    H136227   6.450   0.925  11.919  0.6780 -0.8419 -2.2224
 4912TIP3    H236228   6.499   0.918  12.062 -1.3379  1.3356 -1.3962
 4913TIP3   OH236229   5.375   0.046   1.912 -0.1669 -0.2496  0.2376
 4913TIP3    H136230   5.459   0.031   1.870 -0.2794  0.0115 -0.0935
 4913TIP3    H236231   5.336  -0.041   1.922 -0.7573 -0.2199 -1.5265
 4914TIP3   OH236232   1.433   2.757   1.024  0.5546 -0.2767  0.3367
 4914TIP3    H136233   1.348   2.785   0.992  1.1208  0.4407 -0.5695
 4914TIP3    H236234   1.419   2.668   1.056 -0.3772 -0.4209 -0.4550
 4915TIP3   OH236235   3.461   0.787  15.938  0.2448 -0.2989 -0.0047
 4915TIP3    H136236   3.377   0.743  15.923 -0.6192  1.4721 -0.5327
 4915TIP3    H236237   3.437   0.872  15.975  1.9137 -0.4970  1.5902
 4916TIP3   OH236238   4.184   0.943   5.458 -0.4117  0.2758 -0.1003
 4916TIP3    H136239   4.142   0.874   5.510 -2.1615  0.7085 -0.8951
 4916TIP3    H236240   4.196   0.904   5.372  0.0532  0.4371 -0.1074
 4917TIP3   OH236241   0.589   2.481  10.450 -0.4101  0.5408  0.6936
 4917TIP3    H136242   0.598   2.576  10.452 -5.0500  1.1664 -1.2155
 4917TIP3    H236243   0.621   2.455  10.363  1.3027  0.2582  1.3926
 4918TIP3   OH236244   0.067   2.539   3.081  0.4633 -0.1233 -0.6156
 4918TIP3    H136245   0.052   2.531   3.175 -0.0020 -3.6092 -0.9162
 4918TIP3    H236246   0.160   2.561   3.073  0.2548  1.2794  0.6669
 4919TIP3   OH236247   6.277   0.852  17.137 -0.0381 -0.9028  0.3785
 4919TIP3    H136248   6.318   0.780  17.185 -0.7010 -1.4554  0.1195
 4919TIP3    H236249   6.183   0.841  17.151 -0.0842  0.7775  1.5586
 4920TIP3   OH236250   4.948   2.653   5.709 -0.3058 -0.6595 -0.3298
 4920TIP3    H136251   4.941   2.575   5.653 -0.6983 -1.1258  0.3533
 4920TIP3    H236252   5.037   2.647   5.746 -0.3765 -0.8469 -0.1879
 4921TIP3   OH236253   5.040   0.465  14.384  0.0176 -0.0485 -0.3928
 4921TIP3    H136254   4.995   0.504  14.309 -1.5332 -1.6283 -0.3011
 4921TIP3    H236255   5.120   0.427  14.347 -0.4625 -0.3331 -1.1391
 4922TIP3   OH236256   0.325   2.298   4.160  0.6020  0.1445 -0.4041
 4922TIP3    H136257   0.245   2.314   4.211  1.7123 -0.5009  1.5693
 4922TIP3    H236258   0.340   2.380   4.113 -1.7633 -0.0428 -1.6110
 4923TIP3   OH236259   1.997   4.116   2.839 -0.3056 -0.2386 -0.1717
 4923TIP3    H136260   1.994   4.144   2.748  1.0032  0.7218  0.0705
 4923TIP3    H236261   1.922   4.160   2.880 -0.7133 -0.4332 -0.6932
 4924TIP3   OH236262   1.401   2.340  16.242  0.0044 -0.3911 -0.3465
 4924TIP3    H136263   1.430   2.385  16.322  0.4370 -1.5405  0.1544
 4924TIP3    H236264   1.367   2.257  16.273 -1.1016 -0.2757 -1.2424
 4925TIP3   OH236265   0.519   2.008  16.011 -0.5182 -0.3010 -0.0288
 4925TIP3    H136266   0.547   2.055  15.933  0.0398 -1.3481 -0.4699
 4925TIP3    H236267   0.581   2.034  16.079  0.3332 -1.0710 -0.4963
 4926TIP3   OH236268   0.873   5.478  16.510 -0.1163  0.2193 -0.6082
 4926TIP3    H136269   0.849   5.506  16.422  0.4309  0.6468 -0.6245
 4926TIP3    H236270   0.824   5.536  16.568 -0.9521 -0.4592 -0.6129
 4927TIP3   OH236271   6.322   3.676  13.082 -0.1225  0.3518  0.1187
 4927TIP3    H136272   6.367   3.604  13.125 -0.5400 -0.4217 -0.7317
 4927TIP3    H236273   6.230   3.666  13.107 -0.6948 -1.2472 -2.4829
 4928TIP3   OH236274   1.909   6.236  14.707 -0.4424 -0.4885 -0.0730
 4928TIP3    H136275   1.933   6.325  14.731  1.2149 -0.9482 -0.0049
 4928TIP3    H236276   1.868   6.245  14.621 -1.0827  0.4356  0.3202
 4929TIP3   OH236277   1.115   0.107  14.522 -0.7471  0.2203 -0.0968
 4929TIP3    H136278   1.078   0.142  14.603 -2.6710 -0.5879 -0.5767
 4929TIP3    H236279   1.207   0.092  14.541 -1.0839  0.4785  1.7869
 4930TIP3   OH236280   1.341   5.731  15.877  0.8481  0.2100  0.5208
 4930TIP3    H136281   1.403   5.688  15.818 -0.4025  0.8522 -1.3266
 4930TIP3    H236282   1.394   5.763  15.950  2.6293  0.4948 -0.8778
 4931TIP3   OH236283   1.282   2.621  15.394 -0.1365 -0.1825 -0.1660
 4931TIP3    H136284   1.217   2.678  15.354  0.3427 -1.1739 -2.4460
 4931TIP3    H236285   1.353   2.680  15.419 -0.8262  0.5738  0.0258
 4932TIP3   OH236286   6.209   0.425  14.919  0.5281  0.1553 -0.9089
 4932TIP3    H136287   6.192   0.392  14.830  0.1294 -0.2546 -0.6840
 4932TIP3    H236288   6.137   0.487  14.935 -1.1607 -2.0361  0.2840
 4933TIP3   OH236289   0.304   1.253  14.546  0.0915  0.1204  0.0561
 4933TIP3    H136290   0.217   1.237  14.510  0.6709  1.3692 -1.9304
 4933TIP3    H236291   0.287   1.287  14.634 -1.3353 -2.6082  0.9127
 4934TIP3   OH236292   1.541   3.349  15.493 -0.0868  0.2205 -0.4002
 4934TIP3    H136293   1.570   3.430  15.535  1.1694 -0.0378 -0.7179
 4934TIP3    H236294   1.568   3.360  15.401 -0.0105 -0.4990 -0.4656
 4935TIP3   OH236295   1.203   6.555  14.707 -0.0211 -0.2152  0.3397
 4935TIP3    H136296   1.182   6.620  14.775 -0.5112  1.9616 -1.8416
 4935TIP3    H236297   1.293   6.530  14.725  0.5520  1.9133  0.5796
 4936TIP3   OH236298   3.523   5.212  13.242 -0.0649  0.3553 -0.0201
 4936TIP3    H136299   3.430   5.229  13.228 -0.1125 -0.4641 -0.7713
 4936TIP3    H236300   3.561   5.213  13.155  0.3813 -0.6791  0.1470
 4937TIP3   OH236301   2.111   6.331   1.448  0.1129 -0.1105  0.3502
 4937TIP3    H136302   2.163   6.409   1.429  0.9436 -0.9393 -0.8171
 4937TIP3    H236303   2.057   6.319   1.370 -0.1366 -0.6098  0.6019
 4938TIP3   OH236304   1.619   2.431   5.482 -0.4698 -0.3669  0.3760
 4938TIP3    H136305   1.606   2.442   5.387  1.5917 -0.4314  0.0612
 4938TIP3    H236306   1.666   2.348   5.490  0.1051  0.0577  1.4037
 4939TIP3   OH236307   1.278   1.565   3.238  0.4440  0.2196 -0.0529
 4939TIP3    H136308   1.279   1.495   3.304 -0.2339  0.8538  0.6382
 4939TIP3    H236309   1.227   1.529   3.165  0.0079  0.0312  0.3441
 4940TIP3   OH236310   4.390   6.606   0.258  0.2992 -0.0783 -0.2249
 4940TIP3    H136311   4.470   6.658   0.259  1.7495 -2.2569  1.7448
 4940TIP3    H236312   4.415   6.525   0.213 -0.8743 -0.6516  0.1478
 4941TIP3   OH236313   6.157   1.140  16.250  0.0748  0.0805  0.5077
 4941TIP3    H136314   6.062   1.129  16.251  0.4613 -3.8730  0.1650
 4941TIP3    H236315   6.173   1.201  16.179 -2.1622  0.1867  0.0529
 4942TIP3   OH236316   0.311   2.090  13.610  0.3309  0.6166 -0.5840
 4942TIP3    H136317   0.366   2.048  13.543  0.1678  0.5276 -0.6614
 4942TIP3    H236318   0.226   2.047  13.601  1.0725 -1.4279  1.5864
 4943TIP3   OH236319   2.330   3.850  16.962  0.4747 -0.2562 -0.2910
 4943TIP3    H136320   2.300   3.760  16.976 -0.4894 -0.4975 -3.4732
 4943TIP3    H236321   2.420   3.850  16.994  0.6623 -2.5225 -0.7080
 4944TIP3   OH236322   6.588   4.422   0.885 -0.6811 -0.5304 -0.5484
 4944TIP3    H136323   6.620   4.332   0.885  2.5165  0.4692  2.1965
 4944TIP3    H236324   6.536   4.430   0.805 -0.3812 -4.5480 -1.2334
 4945TIP3   OH236325   4.418   0.172  17.015 -0.5129 -0.0432 -0.0090
 4945TIP3    H136326   4.355   0.100  17.016 -0.1399 -0.4760 -2.8625
 4945TIP3    H236327   4.395   0.222  16.937  2.0189  0.4010 -0.5013
 4946TIP3   OH236328   6.307   2.863   2.158 -0.3309  0.5736  0.2535
 4946TIP3    H136329   6.390   2.853   2.111 -0.2718 -0.0681  0.4926
 4946TIP3    H236330   6.259   2.782   2.140 -0.8285  0.8638  0.2698
 4947TIP3   OH236331   3.916   4.376  14.431 -0.6077  0.1272  0.0020
 4947TIP3    H136332   3.891   4.384  14.339 -2.2627 -0.9203  0.3398
 4947TIP3    H236333   3.844   4.417  14.479  0.0915  0.3836  0.8404
 4948TIP3   OH236334   2.211   4.649   4.169  0.3285  0.0055 -0.3297
 4948TIP3    H136335   2.173   4.567   4.202  1.0276  0.2247  1.0521
 4948TIP3    H236336   2.305   4.634   4.169  0.5332  1.1193  0.8575
 4949TIP3   OH236337   2.615   1.048   2.267 -0.3903 -0.1266  0.4728
 4949TIP3    H136338   2.584   0.959   2.286 -0.7891 -0.1288 -0.1630
 4949TIP3    H236339   2.559   1.078   2.195 -1.7334  1.4874  2.1489
 4950TIP3   OH236340   1.149   4.704  11.843 -0.2460  0.0859 -0.3047
 4950TIP3    H136341   1.223   4.664  11.889 -1.1996 -0.8095  0.4985
 4950TIP3    H236342   1.105   4.757  11.911  0.4091  1.6883 -1.1037
 4951TIP3   OH236343   4.072   6.226   1.234 -0.0434  0.2095  0.5298
 4951TIP3    H136344   4.087   6.169   1.310  1.3530 -0.2320 -0.0521
 4951TIP3    H236345   4.091   6.314   1.266  2.2288 -0.1665  0.2495
 4952TIP3   OH236346   6.352   3.947   3.929  0.0529  0.4511  0.2049
 4952TIP3    H136347   6.317   3.878   3.985 -1.8350  0.1505 -1.3043
 4952TIP3    H236348   6.424   3.905   3.880  0.1111  0.0631  0.6224
 4953TIP3   OH236349   2.468   4.551   6.108  0.9578 -0.2704  0.0179
 4953TIP3    H136350   2.398   4.486   6.105  0.2558  0.4557  0.4817
 4953TIP3    H236351   2.423   4.635   6.103  1.9733  0.1701 -2.2677
 4954TIP3   OH236352   6.816   2.546   3.932 -0.8985 -0.0103 -0.3751
 4954TIP3    H136353   6.801   2.619   3.993 -1.0402  0.3074 -0.7841
 4954TIP3    H236354   6.746   2.484   3.951  0.5616 -1.1114  1.5582
 4955TIP3   OH236355   6.264   3.485  16.798  0.0650 -0.4354  0.1353
 4955TIP3    H136356   6.318   3.479  16.720 -0.6990  1.1265 -0.5421
 4955TIP3    H236357   6.326   3.479  16.871  0.9756 -0.2616 -0.6234
 4956TIP3   OH236358   5.193   3.384  17.229  0.1825 -0.2137 -0.1382
 4956TIP3    H136359   5.211   3.348  17.316  0.2703 -0.0950 -0.1089
 4956TIP3    H236360   5.242   3.328  17.169 -0.6180 -0.8579 -0.1929
 4957TIP3   OH236361   2.137   2.417   6.047  0.9214  0.0707  0.3514
 4957TIP3    H136362   2.214   2.364   6.027  0.2461 -1.0401  0.6281
 4957TIP3    H236363   2.169   2.485   6.105  1.6732 -0.4525  0.5593
 4958TIP3   OH236364   0.672   4.576  14.447  0.4994  0.2289  0.2368
 4958TIP3    H136365   0.632   4.615  14.525 -0.0535  0.4809 -0.1668
 4958TIP3    H236366   0.617   4.606  14.375 -0.2992 -1.8133 -0.0186
 4959TIP3   OH236367   1.380   3.969  16.504  0.2557 -0.1492  0.2771
 4959TIP3    H136368   1.438   3.913  16.452  0.7157  0.0074  0.6237
 4959TIP3    H236369   1.292   3.950  16.470  0.5399 -0.1508 -0.4612
 4960TIP3   OH236370   0.102   5.013   5.953 -0.3878 -0.0355 -0.2971
 4960TIP3    H136371   0.055   4.982   6.030  1.0624 -3.9118 -0.8957
 4960TIP3    H236372   0.190   4.978   5.962  0.2023  0.6009 -3.0381
 4961TIP3   OH236373   1.841   2.734   3.098  0.2658  0.3972 -0.3497
 4961TIP3    H136374   1.794   2.668   3.150  0.0778 -0.0055 -1.0287
 4961TIP3    H236375   1.918   2.688   3.064  0.6016  0.7707 -0.1078
 4962TIP3   OH236376   2.539   5.695   1.986  0.4115 -0.4380  0.0937
 4962TIP3    H136377   2.531   5.744   2.068 -0.4828 -0.6309  0.1229
 4962TIP3    H236378   2.473   5.625   1.993 -1.3298  0.9784 -1.8020
 4963TIP3   OH236379   3.095   0.176  16.610 -0.0537 -0.4659 -0.0910
 4963TIP3    H136380   3.061   0.212  16.528  0.8426  0.2043 -0.1813
 4963TIP3    H236381   3.170   0.123  16.583  1.0084  0.7559  0.3969
 4964TIP3   OH236382   1.152   2.540   4.627  0.8244  0.2687 -0.2968
 4964TIP3    H136383   1.076   2.591   4.601  0.9881 -0.6232 -2.6218
 4964TIP3    H236384   1.187   2.586   4.704 -1.7623  0.9268  0.5173
 4965TIP3   OH236385   5.443   1.354  16.289 -0.4978 -0.6474  0.1623
 4965TIP3    H136386   5.510   1.287  16.302 -1.6642 -1.8987 -0.1148
 4965TIP3    H236387   5.460   1.389  16.201 -0.0556 -0.8021  0.1887
 4966TIP3   OH236388   2.265   3.616   1.161 -0.1757  0.0690  0.4692
 4966TIP3    H136389   2.179   3.620   1.119  0.2638 -0.6329 -0.5354
 4966TIP3    H236390   2.251   3.649   1.249 -1.0856  1.7605 -0.2940
 4967TIP3   OH236391   3.211   5.215  16.091  0.1550  0.4416 -0.1358
 4967TIP3    H136392   3.145   5.146  16.102  0.9605 -0.2181  0.6370
 4967TIP3    H236393   3.291   5.167  16.069  1.2129  0.9856  2.4495
 4968TIP3   OH236394   3.466   4.211   3.747 -0.1339 -0.3590 -0.1638
 4968TIP3    H136395   3.391   4.165   3.786  0.3115 -0.8621  0.1025
 4968TIP3    H236396   3.444   4.304   3.756  1.1352 -0.3098  3.7858
 4969TIP3   OH236397   3.135   5.929   4.885 -0.8138  0.5879 -0.4346
 4969TIP3    H136398   3.079   5.952   4.960 -1.4366 -0.3067 -0.6271
 4969TIP3    H236399   3.178   6.012   4.862 -0.1606  0.7606  1.2859
 4970TIP3   OH236400   4.034   6.384   2.867 -0.0437 -0.2188  0.4854
 4970TIP3    H136401   3.942   6.372   2.889 -0.1832  0.0210  0.0430
 4970TIP3    H236402   4.068   6.443   2.934 -0.9335  2.0806 -0.9936
 4971TIP3   OH236403   3.151   5.569  11.834 -0.2856  0.3865 -0.3051
 4971TIP3    H136404   3.096   5.491  11.827  0.4968  0.0298 -2.6713
 4971TIP3    H236405   3.239   5.535  11.851 -0.5312  0.9219  2.3007
 4972TIP3   OH236406   4.898   3.941   0.082  0.6134  0.0003 -0.0950
 4972TIP3    H136407   4.873   3.878   0.015  1.0015 -1.1746  0.8357
 4972TIP3    H236408   4.847   4.019   0.063 -1.5747 -1.3529  0.0603
 4973TIP3   OH236409   1.723   2.833  15.177  0.3242 -0.0866 -0.3205
 4973TIP3    H136410   1.633   2.845  15.146  0.4405  3.0619  0.3762
 4973TIP3    H236411   1.721   2.864  15.268  1.6545 -2.0320  0.3941
 4974TIP3   OH236412   5.465   3.763   1.892 -0.8117 -0.1709 -0.3353
 4974TIP3    H136413   5.446   3.764   1.798 -0.8596  0.2326 -0.3187
 4974TIP3    H236414   5.507   3.847   1.909 -1.7983  0.2111  0.2158
 4975TIP3   OH236415   1.195   4.812  12.545  0.2742  0.4529  0.1049
 4975TIP3    H136416   1.236   4.881  12.597  0.2187 -0.9269  2.0366
 4975TIP3    H236417   1.102   4.821  12.562 -0.0979  2.1107 -2.4591
 4976TIP3   OH236418   3.810   2.648  13.404 -0.3302  0.2745 -0.2852
 4976TIP3    H136419   3.861   2.600  13.469 -0.2069  1.1307  0.2558
 4976TIP3    H236420   3.734   2.593  13.387 -0.1436 -0.1548  0.2609
 4977TIP3   OH236421   4.292   3.272   4.040 -0.1030  0.0537 -0.4709
 4977TIP3    H136422   4.301   3.350   3.985 -0.5483  1.3274  1.2357
 4977TIP3    H236423   4.201   3.244   4.027 -0.3243  0.5832 -0.1014
 4978TIP3   OH236424   1.638   4.054   4.326  0.1258  0.0374  0.4756
 4978TIP3    H136425   1.546   4.080   4.334  0.1257 -0.1753  1.1417
 4978TIP3    H236426   1.661   4.020   4.412  1.1315  1.0729  0.6239
 4979TIP3   OH236427   1.432   2.021  13.705 -0.2515 -0.3908 -0.2464
 4979TIP3    H136428   1.401   1.963  13.774  3.1849  1.2305  2.8378
 4979TIP3    H236429   1.510   1.978  13.670 -1.0544 -0.4262 -2.0640
 4980TIP3   OH236430   4.764   1.331   5.844 -0.4241  0.4426  0.1603
 4980TIP3    H136431   4.675   1.321   5.812 -1.1614 -1.1886  2.6332
 4980TIP3    H236432   4.765   1.417   5.886 -0.7904  0.5305 -0.0105
 4981TIP3   OH236433   5.663   4.128   1.319  0.0856 -0.5686 -0.1871
 4981TIP3    H136434   5.616   4.147   1.238  1.0429 -1.7096 -1.0227
 4981TIP3    H236435   5.594   4.108   1.383 -0.5850 -2.0295 -1.3477
 4982TIP3   OH236436   6.514   0.144  15.107 -0.6738  0.5610 -0.1843
 4982TIP3    H136437   6.447   0.076  15.114 -2.6500  2.4753  0.0767
 4982TIP3    H236438   6.527   0.156  15.013 -2.1299  1.4834 -0.2969
 4983TIP3   OH236439   1.695   5.795  16.661  0.5561 -0.4900  0.2134
 4983TIP3    H136440   1.599   5.795  16.659  0.5206 -0.6614  1.5867
 4983TIP3    H236441   1.717   5.803  16.754  1.8746 -1.3114 -0.0167
 4984TIP3   OH236442   2.099   5.771   1.184  0.4644 -0.5667 -0.7269
 4984TIP3    H136443   2.117   5.679   1.164  0.7127 -1.2266  2.2860
 4984TIP3    H236444   2.021   5.768   1.239  0.3979  1.0638 -0.7123
 4985TIP3   OH236445   1.411   2.962  12.493 -0.0219  0.2174 -0.1155
 4985TIP3    H136446   1.332   2.911  12.513 -0.5063  1.1222  0.3126
 4985TIP3    H236447   1.483   2.901  12.509 -0.6831 -1.1802 -2.2681
 4986TIP3   OH236448   0.711   1.072   0.548 -0.0186  0.0057 -0.6948
 4986TIP3    H136449   0.766   1.137   0.592 -2.4188  0.9162  1.0329
 4986TIP3    H236450   0.751   0.988   0.570  1.4064  0.7225 -0.5062
 4987TIP3   OH236451   2.881   3.899  14.793  0.0421  0.1184  0.6925
 4987TIP3    H136452   2.790   3.925  14.776  0.1472 -0.4727 -0.8215
 4987TIP3    H236453   2.923   3.900  14.707  1.1736 -0.7515  1.2207
 4988TIP3   OH236454   2.269   1.047  11.451 -0.2267  1.1088 -0.0691
 4988TIP3    H136455   2.337   1.024  11.387 -1.4923  0.1704 -1.1089
 4988TIP3    H236456   2.291   0.995  11.528  0.9087  1.7119  0.0348
 4989TIP3   OH236457   2.728   4.272  14.718  0.5984  0.7106  0.2419
 4989TIP3    H136458   2.646   4.264  14.767  0.0257  0.9856 -0.6753
 4989TIP3    H236459   2.787   4.317  14.779  0.4534 -0.5680  1.3521
 4990TIP3   OH236460   1.436   0.347   2.726  0.3405  0.5879  0.1179
 4990TIP3    H136461   1.369   0.363   2.660  0.7659 -1.9305 -0.9659
 4990TIP3    H236462   1.519   0.348   2.678  0.8979  1.4987  1.0799
 4991TIP3   OH236463   3.038   2.579   1.078  0.3100  0.3071 -0.1693
 4991TIP3    H136464   2.970   2.532   1.030  0.0971 -1.1232  1.4739
 4991TIP3    H236465   3.117   2.568   1.025 -0.2382  0.0570 -0.9454
 4992TIP3   OH236466   0.589   1.845  11.288 -0.2649 -0.6946  0.1589
 4992TIP3    H136467   0.678   1.870  11.316  0.0491  0.0655 -1.4468
 4992TIP3    H236468   0.532   1.910  11.330  0.3073  1.1800 -1.8367
 4993TIP3   OH236469   0.015   6.261  12.871  0.2972 -0.0043  0.0251
 4993TIP3    H136470  -0.080   6.251  12.883  0.2127  0.2460 -0.4393
 4993TIP3    H236471   0.036   6.340  12.920 -0.0137  0.8910 -1.2602
 4994TIP3   OH236472   6.709   5.156  11.799 -0.6610 -0.2476  0.7042
 4994TIP3    H136473   6.644   5.182  11.735  2.8313 -0.0543 -2.9943
 4994TIP3    H236474   6.702   5.060  11.804 -0.5561 -0.3130 -0.4138
 4995TIP3   OH236475   5.971   5.617  13.793  0.1568 -0.0095 -0.5018
 4995TIP3    H136476   6.038   5.656  13.737  0.4710 -0.5248 -0.4833
 4995TIP3    H236477   5.977   5.665  13.876 -0.8479  1.3018 -1.1675
 4996TIP3   OH236478   6.018   3.867   3.380 -0.1067  0.1011  0.1291
 4996TIP3    H136479   6.103   3.836   3.412 -0.5540 -0.3596  0.8975
 4996TIP3    H236480   5.956   3.800   3.410 -0.8244  0.7689  0.1421
 4997TIP3   OH236481   1.011   3.895  13.169 -0.0097 -0.2676  0.3469
 4997TIP3    H136482   1.082   3.959  13.159  0.1428 -0.7680 -1.9605
 4997TIP3    H236483   1.009   3.877  13.263  0.0652  2.9866  1.0556
 4998TIP3   OH236484   0.743   2.501   4.821 -0.2220  0.8076 -0.3716
 4998TIP3    H136485   0.798   2.461   4.889  1.3276 -2.6523 -3.5106
 4998TIP3    H236486   0.665   2.446   4.816 -0.3629  1.0781 -1.3252
 4999TIP3   OH236487   1.588   2.129   1.268 -0.1818 -0.8121  0.4403
 4999TIP3    H136488   1.549   2.215   1.282  0.2697 -0.8193  1.9059
 4999TIP3    H236489   1.679   2.138   1.298  0.6523 -1.0799 -1.9239
 5000TIP3   OH236490   1.185   1.823  13.651  0.1089  0.1619 -0.7263
 5000TIP3    H136491   1.146   1.794  13.569  0.5643  0.3275 -1.0049
 5000TIP3    H236492   1.118   1.880  13.690 -1.3408 -2.2996  0.4766
 5001TIP3   OH236493   4.797   4.556  16.337  0.2842 -0.4745 -0.8731
 5001TIP3    H136494   4.723   4.600  16.379  0.5793  1.3673 -2.2275
 5001TIP3    H236495   4.777   4.463  16.345 -2.0976 -0.0176 -1.0322
 5002TIP3   OH236496   6.095   6.753   6.131  0.2106 -0.1415 -0.7496
 5002TIP3    H136497   6.054   6.806   6.199  1.7636  0.4566 -0.2600
 5002TIP3    H236498   6.093   6.808   6.053  2.4255  0.9456 -0.0789
 5003TIP3   OH236499   6.777   4.816  15.467  0.4041  1.0420 -0.3133
 5003TIP3    H136500   6.792   4.904  15.500  0.5067  1.4467 -1.4230
 5003TIP3    H236501   6.858   4.792  15.422  0.1404  0.6385 -0.5827
 5004TIP3   OH236502   1.448   0.419  14.948 -0.2096  0.0526  0.2477
 5004TIP3    H136503   1.471   0.340  14.900  0.7180  0.0106  0.7480
 5004TIP3    H236504   1.408   0.387  15.029 -0.4186  0.1037  0.1659
 5005TIP3   OH236505   3.287   3.172   4.644 -0.0052 -0.1051 -0.7595
 5005TIP3    H136506   3.253   3.104   4.586  1.1701  0.6562 -2.4041
 5005TIP3    H236507   3.341   3.227   4.587 -0.5882  1.9692  0.6095
 5006TIP3   OH236508   0.726   4.400   2.984  0.2958 -0.4998  0.1375
 5006TIP3    H136509   0.641   4.431   3.017  1.0648  0.6361  1.0527
 5006TIP3    H236510   0.721   4.304   2.994 -0.8698 -0.4436  0.2068
 5007TIP3   OH236511   6.606   3.655  15.249  0.1484  0.3981 -0.1459
 5007TIP3    H136512   6.603   3.684  15.340  0.4667 -0.4129  0.1339
 5007TIP3    H236513   6.515   3.647  15.222  0.0300 -0.5415  0.5006
 5008TIP3   OH236514   6.015   1.409   0.489  0.2265  0.4417  0.0140
 5008TIP3    H136515   6.097   1.361   0.478  0.8890  1.5915 -0.0423
 5008TIP3    H236516   5.987   1.387   0.578 -0.4250 -1.5050 -0.6315
 5009TIP3   OH236517   2.845   5.197  13.781 -0.1282  0.0910  0.1200
 5009TIP3    H136518   2.940   5.209  13.788 -0.1750  2.6266 -2.2523
 5009TIP3    H236519   2.809   5.236  13.861  0.7847  0.1021  0.5260
 5010TIP3   OH236520   1.685   5.458  14.104  0.2584  0.0861 -0.8800
 5010TIP3    H136521   1.773   5.475  14.138  0.7389 -2.8130 -0.5060
 5010TIP3    H236522   1.629   5.456  14.182  0.2902 -0.4166 -0.8658
 5011TIP3   OH236523   1.428   4.078  16.225 -0.2298 -0.3249  0.5985
 5011TIP3    H136524   1.463   4.000  16.268 -0.1037  0.4713  1.9730
 5011TIP3    H236525   1.500   4.109  16.170  0.3408 -0.1965  1.3945
 5012TIP3   OH236526   0.426   0.589  11.164 -0.5774  0.1543  0.1578
 5012TIP3    H136527   0.399   0.566  11.075  0.5914 -1.9376  0.2991
 5012TIP3    H236528   0.348   0.628  11.203 -1.9918 -1.5129 -0.8893
 5013TIP3   OH236529   1.986   0.416  15.441 -0.1366  0.2848  0.2161
 5013TIP3    H136530   2.066   0.363  15.432  0.0178  0.4389  0.6796
 5013TIP3    H236531   1.916   0.352  15.454  0.0174  0.1852  0.5489
 5014TIP3   OH236532   5.420   1.328   2.269  0.5300 -0.3297 -0.3190
 5014TIP3    H136533   5.501   1.352   2.224  0.9440  1.0510  1.1105
 5014TIP3    H236534   5.357   1.394   2.242  0.2185 -0.6921 -0.4780
 5015TIP3   OH236535   4.555   5.940  14.488  0.2780 -0.0126 -0.0199
 5015TIP3    H136536   4.601   5.901  14.414  1.6588  1.8476 -0.1593
 5015TIP3    H236537   4.563   6.035  14.475  1.6765  0.3755  3.1587
 5016TIP3   OH236538   5.634   0.711  16.984  0.6494  0.1966  0.1393
 5016TIP3    H136539   5.660   0.685  16.895  1.7227 -1.0857  0.8084
 5016TIP3    H236540   5.539   0.718  16.980  0.5151 -1.7187 -0.6428
 5017TIP3   OH236541   0.083   1.170   1.240 -0.0283  0.0555 -0.3223
 5017TIP3    H136542   0.016   1.236   1.224 -0.9375 -0.9663 -0.7496
 5017TIP3    H236543   0.067   1.140   1.330  1.7445  1.9458  0.6850
 5018TIP3   OH236544   4.817   5.731  10.930 -0.0137  0.2417 -0.4887
 5018TIP3    H136545   4.902   5.774  10.918  1.3766 -1.3204  2.9329
 5018TIP3    H236546   4.829   5.643  10.895 -0.3885  0.1873 -0.4790
 5019TIP3   OH236547   6.171   1.727   1.312 -0.3173 -0.2505  0.1094
 5019TIP3    H136548   6.164   1.775   1.395 -2.0779 -1.3164  0.6026
 5019TIP3    H236549   6.199   1.793   1.249  1.9951  0.3865  1.7173
 5020TIP3   OH236550   3.276   0.346   3.985 -0.0848 -0.1906 -0.1638
 5020TIP3    H136551   3.253   0.437   4.001 -1.0485 -0.5480  0.4921
 5020TIP3    H236552   3.358   0.333   4.034  0.2751  0.4363 -0.6023
 5021TIP3   OH236553   4.242   5.791  16.275  0.4554  0.6220 -0.8353
 5021TIP3    H136554   4.206   5.739  16.346  1.0625 -0.6605 -1.4531
 5021TIP3    H236555   4.167   5.837  16.237 -0.2420 -0.5952 -0.9401
 5022TIP3   OH236556   2.175   4.409  13.880  0.8790  0.2114  0.0373
 5022TIP3    H136557   2.160   4.422  13.973 -0.4893  0.7345 -0.2332
 5022TIP3    H236558   2.233   4.480  13.854  0.4809  0.6458  0.3133
 5023TIP3   OH236559   4.967   2.145   2.323  0.1596 -0.0494  0.3688
 5023TIP3    H136560   4.929   2.099   2.248  1.6937  0.2260 -0.5985
 5023TIP3    H236561   5.013   2.076   2.371  0.2556 -0.0009  0.3471
 5024TIP3   OH236562   4.511   5.281   4.421 -0.1932 -0.5711  0.3962
 5024TIP3    H136563   4.552   5.256   4.338  0.1296  0.3343  0.2874
 5024TIP3    H236564   4.450   5.350   4.398  2.8942  2.6499  1.4949
 5025TIP3   OH236565   1.876   6.469  14.027  0.3546  0.5705  0.3118
 5025TIP3    H136566   1.857   6.404  14.094  0.0701 -0.3435 -0.6317
 5025TIP3    H236567   1.932   6.533  14.070  1.3703 -0.7689  1.0308
 5026TIP3   OH236568   4.275   2.788  14.223 -0.0774  0.5311 -0.3154
 5026TIP3    H136569   4.218   2.859  14.252  0.0911  1.4177 -2.0917
 5026TIP3    H236570   4.343   2.831  14.172 -1.1737 -1.0355 -3.2731
 5027TIP3   OH236571   6.748   1.854  13.246  0.2344  0.7309 -0.7675
 5027TIP3    H136572   6.670   1.807  13.275  2.7905 -2.0797  2.0407
 5027TIP3    H236573   6.787   1.798  13.179  0.5849  1.4347 -1.1619
 5028TIP3   OH236574   2.345   4.224   5.072 -0.3323  0.8322 -0.4227
 5028TIP3    H136575   2.286   4.151   5.052  1.1961  0.1492 -2.6983
 5028TIP3    H236576   2.353   4.223   5.167 -0.7374 -1.6605 -0.3762
 5029TIP3   OH236577   1.029   0.745  10.608 -0.3637  0.1702  0.1048
 5029TIP3    H136578   0.999   0.681  10.544 -2.8967  0.7778  0.6096
 5029TIP3    H236579   1.120   0.722  10.626 -0.0955 -0.9384 -2.5548
 5030TIP3   OH236580   6.385   0.114   4.285  0.4152  0.5607  0.3589
 5030TIP3    H136581   6.382   0.100   4.380 -0.5791 -2.0007 -0.0122
 5030TIP3    H236582   6.309   0.067   4.251  0.7276  1.4899 -1.7100
 5031TIP3   OH236583   3.109   3.450  12.939  0.0554  0.3538  0.3574
 5031TIP3    H136584   3.069   3.364  12.924  0.9042 -0.1948  1.1637
 5031TIP3    H236585   3.067   3.508  12.875 -0.2068 -0.7616 -0.4949
 5032TIP3   OH236586   5.772   5.114  16.656  0.1598  0.7172 -0.3078
 5032TIP3    H136587   5.792   5.043  16.595  1.5482  1.5082 -0.8188
 5032TIP3    H236588   5.757   5.190  16.600 -1.0033  0.8986  0.2442
 5033TIP3   OH236589   2.499   2.312  16.562  0.2457 -0.4547  0.3360
 5033TIP3    H136590   2.577   2.257  16.565 -0.1222 -0.9178  2.7513
 5033TIP3    H236591   2.429   2.255  16.531  0.3103 -0.7729  0.7805
 5034TIP3   OH236592   0.391   0.567   4.070 -0.8986 -0.4647 -0.1891
 5034TIP3    H136593   0.411   0.634   4.136 -1.5116  0.3226 -0.7893
 5034TIP3    H236594   0.302   0.538   4.091 -0.8637 -0.6535 -0.2988
 5035TIP3   OH236595   0.287   0.208   3.522 -0.3235 -0.2000 -0.5935
 5035TIP3    H136596   0.320   0.275   3.582 -2.3366  1.5263 -1.3622
 5035TIP3    H236597   0.192   0.215   3.527 -0.5812 -2.7497 -1.0053
 5036TIP3   OH236598   2.963   0.177   4.483 -0.5911 -0.2095  0.2963
 5036TIP3    H136599   2.991   0.268   4.472  0.9356 -0.6873  0.1709
 5036TIP3    H236600   2.993   0.153   4.571  0.9265 -1.2655 -0.5019
 5037TIP3   OH236601   0.088   0.534  12.754 -0.5704  0.3940  0.0748
 5037TIP3    H136602   0.104   0.441  12.739 -2.4055  0.4158 -2.2367
 5037TIP3    H236603   0.173   0.576  12.739 -0.4197 -0.5907 -2.0278
 5038TIP3   OH236604   6.734   2.902   4.985  0.1593  0.2613 -0.1882
 5038TIP3    H136605   6.730   2.844   4.909  1.0193 -0.0984  0.0396
 5038TIP3    H236606   6.805   2.963   4.966 -0.0272  0.5593  0.0549
 5039TIP3   OH236607   0.294   2.537  13.370 -0.2310 -0.0838 -0.0790
 5039TIP3    H136608   0.217   2.552  13.425 -1.3088  3.9237 -2.4897
 5039TIP3    H236609   0.267   2.467  13.310 -0.8443 -0.8959  1.1240
 5040TIP3   OH236610   6.265   5.277   4.363  0.3234 -0.4108 -0.3698
 5040TIP3    H136611   6.260   5.204   4.302  1.0497 -0.4138 -0.4338
 5040TIP3    H236612   6.176   5.314   4.364 -0.3729 -2.0922  0.6615
 5041TIP3   OH236613   5.699   5.366   4.179 -0.1907  0.1579 -0.2455
 5041TIP3    H136614   5.763   5.436   4.189 -0.5736  0.6973 -1.4883
 5041TIP3    H236615   5.752   5.287   4.165  0.2210  0.3923  0.0048
 5042TIP3   OH236616   4.104   4.054  11.313  0.1427  0.2886 -0.4746
 5042TIP3    H136617   4.174   4.115  11.287  0.5875  0.1607  0.4122
 5042TIP3    H236618   4.025   4.090  11.274  0.9147 -0.2964 -2.6529
 5043TIP3   OH236619   5.330   2.780   5.284 -0.3556  0.1461  0.3709
 5043TIP3    H136620   5.282   2.706   5.247 -2.3784  1.6769 -0.1558
 5043TIP3    H236621   5.422   2.757   5.271 -0.9509 -1.7664 -0.7872
 5044TIP3   OH236622   6.022   2.976  11.386 -0.7328  0.0108 -0.2607
 5044TIP3    H136623   6.111   2.991  11.417 -0.5456 -0.4134 -0.5806
 5044TIP3    H236624   5.989   2.906  11.443  0.2393 -2.0519 -2.1232
 5045TIP3   OH236625   3.201   0.677  13.429 -0.2939  0.2140 -0.5255
 5045TIP3    H136626   3.289   0.695  13.460  0.1816 -1.8894 -0.5674
 5045TIP3    H236627   3.210   0.666  13.334 -0.3859 -1.0350 -0.4083
 5046TIP3   OH236628   5.054   1.545  14.252 -0.8565  0.3224 -0.5900
 5046TIP3    H136629   5.040   1.637  14.275 -1.3898  0.6313 -2.0489
 5046TIP3    H236630   4.969   1.516  14.218  0.4866  0.6137 -4.3975
 5047TIP3   OH236631   1.325   0.702   0.859 -0.1436  0.5483 -0.0493
 5047TIP3    H136632   1.238   0.716   0.820  0.3876  0.6165 -1.2282
 5047TIP3    H236633   1.320   0.616   0.899 -0.7043  0.4763 -0.2713
 5048TIP3   OH236634   0.748   0.946   3.740  0.3169 -0.1873 -0.6240
 5048TIP3    H136635   0.792   0.934   3.824  0.1025 -0.0966 -0.4955
 5048TIP3    H236636   0.730   1.040   3.736 -0.6472 -0.3440 -0.2723
 5049TIP3   OH236637   1.281   6.251   4.534  0.1774  0.0103  0.5426
 5049TIP3    H136638   1.320   6.328   4.493  0.9011 -1.0608 -0.8118
 5049TIP3    H236639   1.229   6.211   4.464  0.0859 -0.9246  1.1374
 5050TIP3   OH236640   6.167   0.508   4.139  0.3231  0.3099 -0.1271
 5050TIP3    H136641   6.253   0.519   4.180 -0.5925 -0.6673  2.1511
 5050TIP3    H236642   6.105   0.535   4.206 -1.1441  2.6022 -2.3137
 5051TIP3   OH236643   5.022   6.127  13.695  0.1889 -0.1861  0.6441
 5051TIP3    H136644   4.949   6.187  13.681  0.4479 -0.2831 -1.1814
 5051TIP3    H236645   5.069   6.163  13.770  1.0699  2.6180 -1.2074
 5052TIP3   OH236646   6.633   4.626   4.993 -0.0488  0.2948  0.4028
 5052TIP3    H136647   6.645   4.627   5.088  0.5067  0.4258  0.3325
 5052TIP3    H236648   6.568   4.557   4.978  1.1766 -0.9581  0.7320
 5053TIP3   OH236649   2.880   2.606  15.510  0.0626 -0.3714 -0.2492
 5053TIP3    H136650   2.818   2.533  15.504  0.6863 -0.8957 -0.3881
 5053TIP3    H236651   2.934   2.598  15.431  0.6234 -0.2136  0.1146
 5054TIP3   OH236652   4.967   3.338  12.909  0.3285 -0.1316  0.4644
 5054TIP3    H136653   4.901   3.338  12.840  0.5802 -1.1602  0.2066
 5054TIP3    H236654   4.928   3.389  12.980 -0.2671  0.2381 -0.1284
 5055TIP3   OH236655   3.731   1.579  15.226 -0.8068 -0.2829  0.4799
 5055TIP3    H136656   3.664   1.635  15.187 -0.1290  0.0665 -0.1951
 5055TIP3    H236657   3.702   1.490  15.206 -1.6210 -0.1709  1.1159
 5056TIP3   OH236658   4.663   1.528  16.828  0.0053 -0.6414 -0.5563
 5056TIP3    H136659   4.642   1.537  16.921 -1.6117  1.9654 -1.1195
 5056TIP3    H236660   4.756   1.507  16.826  0.2645  0.2024  1.6357
 5057TIP3   OH236661   6.660   3.548   4.976 -0.0834  0.1193 -0.8744
 5057TIP3    H136662   6.728   3.579   4.916 -0.1063 -0.8110 -1.3948
 5057TIP3    H236663   6.647   3.456   4.952  0.4327 -0.4754  1.0507
 5058TIP3   OH236664   6.049   0.285  11.586  0.1180 -0.3766  0.0016
 5058TIP3    H136665   5.971   0.276  11.641 -1.9401  1.5723 -2.4539
 5058TIP3    H236666   6.024   0.246  11.502  2.5083 -1.5224 -0.2259
 5059TIP3   OH236667   0.735   2.131  12.049 -0.0785 -0.6660 -0.2599
 5059TIP3    H136668   0.775   2.065  11.992  0.2918  0.1397 -0.9512
 5059TIP3    H236669   0.807   2.161  12.104  0.1983  0.5069 -1.2393
 5060TIP3   OH236670   5.356   5.670  16.797 -0.8347 -0.3740  0.5601
 5060TIP3    H136671   5.330   5.640  16.710 -3.7539  1.0570  0.8577
 5060TIP3    H236672   5.358   5.765  16.790 -0.3666 -0.2786  1.8786
 5061TIP3   OH236673   1.367   3.644   1.639 -0.1801  0.4891 -0.2302
 5061TIP3    H136674   1.400   3.734   1.647  0.1052  0.4229 -0.6569
 5061TIP3    H236675   1.400   3.600   1.717 -0.3451  0.7612 -0.0036
 5062TIP3   OH236676   1.540   5.250   4.288  0.1251  0.6515  0.1875
 5062TIP3    H136677   1.451   5.267   4.258  0.6528 -2.4211 -3.4579
 5062TIP3    H236678   1.529   5.184   4.358 -0.4376 -0.2875 -0.7688
 5063TIP3   OH236679   4.366   1.442  17.061  0.3713 -0.7049 -0.3182
 5063TIP3    H136680   4.284   1.394  17.046  0.4881 -0.7267 -0.8724
 5063TIP3    H236681   4.433   1.373  17.067  0.2641 -0.7279  0.7331
 5064TIP3   OH236682   5.652   6.594  10.209  0.0806  0.0950 -0.2853
 5064TIP3    H136683   5.595   6.520  10.229 -0.7128  1.0335  0.9572
 5064TIP3    H236684   5.714   6.597  10.281  0.0796  0.6692 -0.3065
 5065TIP3   OH236685   2.684   1.165  14.232  0.0142  0.2145  0.1944
 5065TIP3    H136686   2.725   1.143  14.149  0.5010  1.2613  0.1483
 5065TIP3    H236687   2.704   1.258  14.244 -1.6445  0.5285  0.5656
 5066TIP3   OH236688   1.774   1.824   6.194 -0.3337  0.3232 -0.4430
 5066TIP3    H136689   1.786   1.786   6.281  1.6658 -0.6968 -1.1359
 5066TIP3    H236690   1.773   1.919   6.209 -1.9413  0.1148  0.8987
 5067TIP3   OH236691   6.583   3.738  15.524 -0.7769  0.7015 -0.0544
 5067TIP3    H136692   6.522   3.669  15.552  1.3464 -1.1988  0.0206
 5067TIP3    H236693   6.651   3.739  15.591 -0.5484  2.6150 -0.2866
 5068TIP3   OH236694   6.285   6.076  10.807 -0.7029  0.2666  0.9481
 5068TIP3    H136695   6.269   6.169  10.790 -2.4179 -0.2386 -0.2474
 5068TIP3    H236696   6.200   6.034  10.798  0.2323 -1.5823  0.4748
 5069TIP3   OH236697   5.316   2.862   4.811 -0.1590  0.2554 -0.2922
 5069TIP3    H136698   5.331   2.787   4.869 -1.6956 -0.6775 -1.0668
 5069TIP3    H236699   5.234   2.900   4.842  0.4800  1.4807 -0.0719
 5070TIP3   OH236700   2.253   3.468   4.133 -0.4708  0.3474  0.2991
 5070TIP3    H136701   2.205   3.406   4.187  1.0827 -1.0199  0.1556
 5070TIP3    H236702   2.331   3.489   4.184  0.8877 -0.7741 -1.2812
 5071TIP3   OH236703   0.626   5.644   2.199  0.4895  0.0554  0.2566
 5071TIP3    H136704   0.631   5.553   2.170  0.2916  0.1071  0.0591
 5071TIP3    H236705   0.631   5.695   2.118 -1.2905  0.1697  0.1978
 5072TIP3   OH236706   5.179   5.392  11.553 -0.2037 -0.1937 -0.6065
 5072TIP3    H136707   5.218   5.311  11.520 -0.5786 -2.1850  3.5322
 5072TIP3    H236708   5.108   5.410  11.492 -0.5825 -3.4234 -1.2373
 5073TIP3   OH236709   6.702   6.676   5.534 -0.2597 -0.3599 -0.0226
 5073TIP3    H136710   6.690   6.593   5.581 -0.7617 -1.7002 -2.3905
 5073TIP3    H236711   6.794   6.677   5.509 -0.2521 -0.1921  0.0106
 5074TIP3   OH236712   5.243   3.121  11.291 -0.6303 -0.0407  0.1070
 5074TIP3    H136713   5.263   3.166  11.373 -3.4717  0.6790  0.4433
 5074TIP3    H236714   5.275   3.031  11.305  1.2847  0.7442  0.9814
 5075TIP3   OH236715   5.519   2.762   1.489  0.2772 -0.4301  0.4409
 5075TIP3    H136716   5.429   2.774   1.519  0.5536 -1.1740  1.5865
 5075TIP3    H236717   5.511   2.700   1.416 -0.1769 -0.1685  0.2621
 5076TIP3   OH236718   1.437   3.476   2.872 -0.4243  0.0071  0.0071
 5076TIP3    H136719   1.351   3.474   2.914 -1.0380 -3.2201 -1.2231
 5076TIP3    H236720   1.427   3.540   2.801 -1.5535  0.2726  0.3913
 5077TIP3   OH236721   5.972   2.666   0.680  0.6492 -0.2402  0.1051
 5077TIP3    H136722   6.004   2.693   0.594  0.4911  1.3119  0.5070
 5077TIP3    H236723   5.948   2.748   0.723  2.6402 -0.8234  2.3981
 5078TIP3   OH236724   0.687   1.158  13.615  0.3003  0.2147 -0.1681
 5078TIP3    H136725   0.727   1.156  13.528 -1.5757  0.7851 -1.0905
 5078TIP3    H236726   0.593   1.168  13.597 -0.0868  0.5313  1.9290
 5079TIP3   OH236727   6.189   6.528  14.728  0.2920  0.6575  0.0904
 5079TIP3    H136728   6.126   6.579  14.675 -1.1857  0.1730  1.3424
 5079TIP3    H236729   6.154   6.439  14.726  1.4474  0.2055  0.0795
 5080TIP3   OH236730   0.511   4.385   0.583 -0.2340 -0.0102 -0.4337
 5080TIP3    H136731   0.574   4.327   0.540  1.4186  0.7602  0.8751
 5080TIP3    H236732   0.532   4.472   0.551 -2.3770 -0.0168 -1.9933
 5081TIP3   OH236733   4.342   6.178   0.960 -0.2637  0.5427  0.2283
 5081TIP3    H136734   4.412   6.242   0.974  0.1851  0.3739 -1.1916
 5081TIP3    H236735   4.278   6.223   0.905  0.1799 -0.3000 -1.0047
 5082TIP3   OH236736   6.753   6.536  16.938  0.3946  0.0609  0.7960
 5082TIP3    H136737   6.732   6.452  16.980  0.7134 -0.1779  0.4811
 5082TIP3    H236738   6.690   6.544  16.867  1.2179 -0.5497 -0.0145
 5083TIP3   OH236739   6.217   5.600   4.514 -0.1109 -0.0524 -0.2733
 5083TIP3    H136740   6.191   5.649   4.592 -1.6563 -0.7788 -0.3044
 5083TIP3    H236741   6.256   5.520   4.547  0.6509  0.3325 -0.2370
 5084TIP3   OH236742   4.830   3.205  12.196  0.2694 -0.7627  0.2017
 5084TIP3    H136743   4.913   3.159  12.211 -0.3352 -2.0410 -0.2342
 5084TIP3    H236744   4.855   3.294  12.171  1.4789 -0.8749  1.0000
 5085TIP3   OH236745   2.128   4.420  13.133  0.1466 -0.3718 -0.0224
 5085TIP3    H136746   2.076   4.501  13.133  0.8614  0.0943  0.6169
 5085TIP3    H236747   2.064   4.351  13.153 -0.2300  0.1963  0.7856
 5086TIP3   OH236748   2.128   6.474  17.039 -0.1443 -0.6057  0.5857
 5086TIP3    H136749   2.093   6.411  17.102  1.5173 -1.2758  0.8477
 5086TIP3    H236750   2.115   6.559  17.081  1.0999 -1.0578  1.9101
 5087TIP3   OH236751   5.282   5.525  15.230 -0.1910  0.1986  0.1076
 5087TIP3    H136752   5.365   5.480  15.217 -0.7471 -0.8285  0.0218
 5087TIP3    H236753   5.224   5.488  15.163 -0.0951  2.5416 -1.3521
 5088TIP3   OH236754   6.033   3.400   0.882  0.1224 -0.3225 -0.0898
 5088TIP3    H136755   6.040   3.477   0.938 -0.0759  0.4380 -1.0860
 5088TIP3    H236756   6.007   3.329   0.941 -0.3085  0.5127  0.7364
 5089TIP3   OH236757   0.028   4.566  11.719 -0.2427  0.2285  0.4823
 5089TIP3    H136758   0.100   4.502  11.715  0.1451  0.6007  1.3198
 5089TIP3    H236759   0.071   4.648  11.742 -0.6856  0.9050 -1.0741
 5090TIP3   OH236760   1.966   5.176   0.615  0.6979 -0.5401  0.4942
 5090TIP3    H136761   1.981   5.085   0.590  0.0845 -0.8242  1.1546
 5090TIP3    H236762   2.010   5.185   0.700  0.9260 -0.1666  0.3374
 5091TIP3   OH236763   1.123   6.255   3.188  0.4586 -1.0962  0.3924
 5091TIP3    H136764   1.097   6.243   3.280 -1.1429 -0.9409 -0.0377
 5091TIP3    H236765   1.086   6.179   3.143 -0.8790  0.1238 -0.5571
 5092TIP3   OH236766   6.787   0.897  12.037 -0.2087 -0.4928 -0.0004
 5092TIP3    H136767   6.718   0.874  11.975 -2.1149  1.5983  1.2487
 5092TIP3    H236768   6.746   0.962  12.094  2.8482  0.8412  0.7281
 5093TIP3   OH236769   2.218   5.456   4.121 -0.3526  0.1658  0.3770
 5093TIP3    H136770   2.178   5.540   4.140 -0.1073  0.1513  0.9941
 5093TIP3    H236771   2.170   5.422   4.046 -1.1868  0.3561  0.8165
 5094TIP3   OH236772   2.773   4.666   5.039 -0.1974  0.0122  0.3873
 5094TIP3    H136773   2.714   4.627   4.975  0.1087  0.0162  0.0991
 5094TIP3    H236774   2.716   4.697   5.110 -0.5344  0.0087  0.1160
 5095TIP3   OH236775   6.068   1.576  13.618 -0.2753  0.2544 -0.2531
 5095TIP3    H136776   5.988   1.531  13.644  0.3352  0.3759  1.8777
 5095TIP3    H236777   6.126   1.505  13.587 -0.3740 -0.0857  0.3372
 5096TIP3   OH236778   4.237   4.603  11.689 -0.3068 -0.1106  0.0017
 5096TIP3    H136779   4.282   4.533  11.737 -0.2766  0.2130  0.4448
 5096TIP3    H236780   4.308   4.660  11.659 -0.5495  1.5170  2.4499
 5097TIP3   OH236781   6.615   0.395  11.087 -0.1440  0.0326  0.5125
 5097TIP3    H136782   6.558   0.424  11.158  0.7201  0.4424  1.0411
 5097TIP3    H236783   6.596   0.301  11.078  0.9370 -0.4067  2.4179
 5098TIP3   OH236784   1.826   0.540   3.402 -0.0017 -1.0014  0.7691
 5098TIP3    H136785   1.763   0.468   3.407  0.0067 -1.0289  0.4489
 5098TIP3    H236786   1.895   0.515   3.463  0.3972 -1.6506  0.0581
 5099TIP3   OH236787   1.573   0.853   2.328  0.8040  0.1283  0.5855
 5099TIP3    H136788   1.554   0.768   2.367  0.8627  1.0318  2.6533
 5099TIP3    H236789   1.578   0.836   2.234 -5.0551 -1.1267  0.3181
 5100TIP3   OH236790   4.980   0.112   6.210 -0.2569  0.0424 -0.4172
 5100TIP3    H136791   4.997   0.018   6.204  0.4581  0.1105  0.3873
 5100TIP3    H236792   4.886   0.119   6.226 -0.1937 -0.5636  0.2340
 5101TIP3   OH236793   0.808   5.385  10.811 -0.2384 -0.3098  0.2335
 5101TIP3    H136794   0.726   5.422  10.843 -0.7514 -0.9118 -0.3738
 5101TIP3    H236795   0.858   5.364  10.890 -0.2049  1.0579  0.5997
 5102TIP3   OH236796   4.892   4.060  10.993 -0.4871  0.5428 -0.1607
 5102TIP3    H136797   4.894   3.973  10.954 -0.4842  1.0031 -1.2168
 5102TIP3    H236798   4.952   4.112  10.939 -1.3542  1.4792 -0.2470
 5103TIP3   OH236799   2.621   6.369   4.696  0.7168 -0.0530  0.2205
 5103TIP3    H136800   2.712   6.352   4.718  0.8767  0.6758  0.1350
 5103TIP3    H236801   2.625   6.416   4.612  0.1915 -1.3839 -0.5697
 5104TIP3   OH236802   5.156   1.052  12.202  0.0029  0.1621  0.4389
 5104TIP3    H136803   5.102   1.099  12.265 -1.0375 -1.8496  1.0686
 5104TIP3    H236804   5.210   0.993  12.255  1.1575  0.4944 -0.3476
 5105TIP3   OH236805   3.969   5.542  11.978  0.6149 -0.4240 -0.2342
 5105TIP3    H136806   4.062   5.556  11.964  0.3295  1.3300 -0.4639
 5105TIP3    H236807   3.943   5.483  11.908  0.9216  1.5958 -2.0978
 5106TIP3   OH236808   2.123   1.644   6.114  0.2733 -0.2635 -0.1788
 5106TIP3    H136809   2.059   1.643   6.186  1.7793 -0.8866  1.1919
 5106TIP3    H236810   2.206   1.661   6.158  1.3312 -1.4419 -1.7033
 5107TIP3   OH236811   2.185   4.574  14.123 -0.2720 -0.2378 -0.4205
 5107TIP3    H136812   2.163   4.667  14.134  0.5122 -0.2761  1.7548
 5107TIP3    H236813   2.268   4.574  14.075  0.9461  0.2836  1.6409
 5108TIP3   OH236814   4.729   2.254  14.092  0.3645  0.1806  0.2773
 5108TIP3    H136815   4.807   2.213  14.131  0.2236 -0.8417 -0.4972
 5108TIP3    H236816   4.749   2.347  14.092  1.1082  0.0289  1.1556
 5109TIP3   OH236817   6.561   1.510   4.717 -0.0823  0.3183  0.2500
 5109TIP3    H136818   6.612   1.437   4.683 -0.8843  0.9290 -2.3472
 5109TIP3    H236819   6.617   1.586   4.706 -0.5602  0.6042 -0.2284
 5110TIP3   OH236820   6.584   3.247   2.321  0.1050  0.1649  0.4128
 5110TIP3    H136821   6.614   3.198   2.245  0.8062  1.4365 -0.1484
 5110TIP3    H236822   6.496   3.213   2.339  0.4953 -1.1115 -0.1046
 5111TIP3   OH236823   0.910   6.794  16.382 -0.0571  0.2326 -0.2866
 5111TIP3    H136824   0.888   6.819  16.292 -0.4861 -1.4240 -0.6568
 5111TIP3    H236825   0.987   6.737  16.373  0.8529  1.3068  0.5351
 5112TIP3   OH236826   2.308   5.594  12.118 -0.0282 -0.8573 -0.6281
 5112TIP3    H136827   2.314   5.553  12.205  1.2209  0.5799 -0.0260
 5112TIP3    H236828   2.356   5.535  12.061  0.5047 -1.0041 -0.0388
 5113TIP3   OH236829   0.738   0.585   5.301  0.2998 -0.8324  0.2505
 5113TIP3    H136830   0.735   0.534   5.381  1.4589 -0.1312  0.7518
 5113TIP3    H236831   0.792   0.534   5.241 -0.5597 -1.3524 -0.0923
 5114TIP3   OH236832   3.213   6.258  13.783 -0.0374 -0.3686  0.1813
 5114TIP3    H136833   3.212   6.337  13.730 -2.3194 -0.6903 -0.2818
 5114TIP3    H236834   3.249   6.286  13.867 -0.8616  1.1567  0.0330
 5115TIP3   OH236835   2.300   1.628  16.580 -0.3658  0.2200 -0.1377
 5115TIP3    H136836   2.330   1.687  16.510  2.1793  1.1847  1.7049
 5115TIP3    H236837   2.241   1.682  16.633 -0.0523  0.3513  0.0773
 5116TIP3   OH236838   4.386   4.803   0.292 -0.2050  0.2553  0.0231
 5116TIP3    H136839   4.371   4.882   0.239 -0.4807  0.2898  0.1528
 5116TIP3    H236840   4.312   4.800   0.353 -1.4436 -1.3747 -1.5173
 5117TIP3   OH236841   3.625   5.513  12.369 -0.0489  0.0653 -0.0327
 5117TIP3    H136842   3.596   5.602  12.388 -0.4382  0.0793 -0.6650
 5117TIP3    H236843   3.710   5.524  12.326  0.8816  0.0251  1.7824
 5118TIP3   OH236844   1.663   1.047   3.790  0.4785  0.2485 -0.1736
 5118TIP3    H136845   1.569   1.058   3.808  0.2834  0.5404 -1.2846
 5118TIP3    H236846   1.681   1.109   3.719  1.4333 -0.0596 -0.2085
 5119TIP3   OH236847   2.747   0.106   6.192 -0.3045  0.4532  0.1341
 5119TIP3    H136848   2.679   0.170   6.211 -0.5646  0.3449 -0.4097
 5119TIP3    H236849   2.826   0.157   6.176 -0.0545  0.5354  1.6279
 5120TIP3   OH236850   2.763   3.892   4.532 -0.0334 -0.1116 -0.1766
 5120TIP3    H136851   2.830   3.830   4.560 -0.1158  0.4799  1.4048
 5120TIP3    H236852   2.793   3.977   4.564 -0.2524  0.5709 -1.7354
 5121TIP3   OH236853   0.308   2.840  16.481 -0.3193  0.6342 -0.0768
 5121TIP3    H136854   0.333   2.927  16.512  1.9960 -0.1299  0.2936
 5121TIP3    H236855   0.353   2.830  16.397 -0.3893 -0.2781 -0.0174
 5122TIP3   OH236856   6.331   1.191  11.908 -0.0430 -0.1202  0.3904
 5122TIP3    H136857   6.382   1.193  11.989  0.6559  1.3546 -0.0597
 5122TIP3    H236858   6.371   1.122  11.855  1.2611  0.7591  0.2050
 5123TIP3   OH236859   2.106   0.855   3.444 -0.5520  0.1502  0.4305
 5123TIP3    H136860   2.016   0.826   3.430 -0.8196  1.0027  0.3700
 5123TIP3    H236861   2.159   0.793   3.395 -1.1379 -0.1001  0.1130
 5124TIP3   OH236862   2.052   2.127  15.969 -0.1079  0.6457  0.2280
 5124TIP3    H136863   1.959   2.137  15.987 -0.0110  0.9198  0.5782
 5124TIP3    H236864   2.074   2.039  15.999 -0.1642  0.7326  0.5194
 5125TIP3   OH236865   5.238   3.522  14.714 -0.4670  0.0347  0.4682
 5125TIP3    H136866   5.273   3.603  14.751 -0.7555  0.5358 -0.3284
 5125TIP3    H236867   5.159   3.504  14.765 -0.2080  0.0566  0.8813
 5126TIP3   OH236868   3.666   1.768  11.169 -0.0329  0.0576 -0.5701
 5126TIP3    H136869   3.718   1.780  11.248 -1.2997  2.6917 -0.1040
 5126TIP3    H236870   3.639   1.676  11.172  2.5453 -0.7273  0.4000
 5127TIP3   OH236871   1.095   6.704  16.124 -0.5920  0.1146  0.3630
 5127TIP3    H136872   1.165   6.736  16.067 -0.3030 -1.3941 -0.1592
 5127TIP3    H236873   1.133   6.628  16.169 -2.0889 -1.1427 -0.4348
 5128TIP3   OH236874   1.865   5.195  13.025 -0.3151 -0.2457 -0.0868
 5128TIP3    H136875   1.887   5.115  13.073  0.2455  0.2551  0.5146
 5128TIP3    H236876   1.825   5.252  13.090  0.4501  0.4406 -0.2017
 5129TIP3   OH236877   5.079   5.380   0.932  0.1901  0.0195 -0.0213
 5129TIP3    H136878   5.145   5.393   1.000 -1.0981  2.0503  0.8943
 5129TIP3    H236879   5.119   5.418   0.853  0.4802  0.3988  0.3061
 5130TIP3   OH236880   4.774   0.545  10.760 -0.2892 -0.3476  0.1842
 5130TIP3    H136881   4.752   0.620  10.704 -0.8566 -0.2152  0.5876
 5130TIP3    H236882   4.867   0.555  10.777 -0.9420  1.9487  2.7179
 5131TIP3   OH236883   6.511   5.210   2.478  0.1194  0.4769 -0.3616
 5131TIP3    H136884   6.450   5.163   2.420 -1.2832  0.5302  1.0391
 5131TIP3    H236885   6.509   5.161   2.559  3.1079 -0.3730 -0.7448
 5132TIP3   OH236886   1.202   3.433  15.494  0.0811 -0.1913 -0.2819
 5132TIP3    H136887   1.237   3.446  15.405 -2.3905 -1.1614 -1.4414
 5132TIP3    H236888   1.251   3.358  15.528  0.4596 -0.3483 -1.1582
 5133TIP3   OH236889   3.110   6.485  16.867  0.2663  0.0411  0.5425
 5133TIP3    H136890   3.112   6.505  16.774  0.3343  0.2864  0.5934
 5133TIP3    H236891   3.188   6.430  16.881 -1.3192 -2.4264 -0.0812
 5134TIP3   OH236892   1.384   0.838  12.796  0.0379 -0.1504  0.7143
 5134TIP3    H136893   1.373   0.760  12.851 -0.0195  0.2489  1.2802
 5134TIP3    H236894   1.425   0.903  12.854 -1.4726  0.7969  0.7364
 5135TIP3   OH236895   0.893   1.527  14.427  0.4461  0.1382  0.3298
 5135TIP3    H136896   0.886   1.524  14.332  1.7417  0.5563  0.2021
 5135TIP3    H236897   0.941   1.448  14.451 -0.5749 -0.3706  0.7142
 5136TIP3   OH236898   2.954   6.805   0.815 -0.2038  0.2044 -0.0201
 5136TIP3    H136899   2.980   6.846   0.897 -0.7824  0.7164 -0.0840
 5136TIP3    H236900   3.026   6.746   0.793  1.0017  1.7277 -0.2899
 5137TIP3   OH236901   4.188   4.383  12.691  0.2439  0.4393  0.6467
 5137TIP3    H136902   4.181   4.451  12.623  0.7105  0.1692  0.3316
 5137TIP3    H236903   4.200   4.302  12.642 -2.3161 -0.1699  0.9419
 5138TIP3   OH236904   1.015   2.475  10.983 -0.9115 -0.4586 -0.2469
 5138TIP3    H136905   1.093   2.485  10.928 -0.1132  0.7804  1.0619
 5138TIP3    H236906   1.050   2.456  11.070 -2.0246  1.1349  0.5695
 5139TIP3   OH236907   1.990   4.561   6.893  0.1011 -0.0770 -0.5218
 5139TIP3    H136908   2.012   4.471   6.868  0.5294 -0.5875  1.5765
 5139TIP3    H236909   2.074   4.598   6.922 -0.2276  0.7251 -0.6007
 5140TIP3   OH236910   0.835   5.441   5.866 -0.2585 -0.0996 -0.0523
 5140TIP3    H136911   0.860   5.505   5.933  0.3273  0.5382 -0.8798
 5140TIP3    H236912   0.747   5.413   5.892 -0.0069  0.1012  1.0215
 5141TIP3   OH236913   4.859   2.051  11.029 -0.0094  0.1078 -0.0052
 5141TIP3    H136914   4.825   2.006  10.951  0.7169 -0.1631 -0.1688
 5141TIP3    H236915   4.952   2.065  11.010  0.0683  0.4586  0.6199
 5142TIP3   OH236916   1.940   6.263   5.799 -0.3579 -0.0092  0.7567
 5142TIP3    H136917   2.022   6.298   5.766 -0.1931 -2.9275 -2.2083
 5142TIP3    H236918   1.961   6.229   5.886  0.5097  3.0138  1.7836
 5143TIP3   OH236919   0.949   3.144  12.693  0.5712  0.4413  0.0488
 5143TIP3    H136920   0.979   3.225  12.651  2.1393  0.2518  0.7491
 5143TIP3    H236921   0.866   3.123  12.650  1.3120  1.1518 -1.7489
 5144TIP3   OH236922   5.874   6.251  12.302 -0.1187 -0.5223 -0.1284
 5144TIP3    H136923   5.835   6.188  12.363  0.5562 -1.0080 -0.1992
 5144TIP3    H236924   5.904   6.197  12.229  1.5087 -0.2583  0.3366
 5145TIP3   OH236925   0.229   1.200  13.703 -0.2520 -0.0798  0.1258
 5145TIP3    H136926   0.279   1.280  13.721  1.8304 -1.2482 -0.3183
 5145TIP3    H236927   0.281   1.154  13.636 -0.6771 -2.4836  1.3899
 5146TIP3   OH236928   0.239   6.179   0.645  0.0160 -0.1510 -0.2329
 5146TIP3    H136929   0.255   6.178   0.551 -3.7855 -0.4573 -0.9331
 5146TIP3    H236930   0.170   6.244   0.658  1.0696  0.5207  2.4794
 5147TIP3   OH236931   0.779   2.093  16.099  0.1614  0.2450  0.1322
 5147TIP3    H136932   0.813   2.151  16.031 -0.4824  2.1826  1.4330
 5147TIP3    H236933   0.812   2.006  16.075  0.5773  1.0225 -2.2104
 5148TIP3   OH236934   1.067   0.421  15.585  0.2926  0.2544 -0.8475
 5148TIP3    H136935   0.985   0.393  15.545 -0.5431  0.7790  0.4552
 5148TIP3    H236936   1.043   0.498  15.637  1.5194  0.1435 -0.0917
 5149TIP3   OH236937   0.916   0.520  12.406 -0.3406  0.2538  0.2959
 5149TIP3    H136938   0.986   0.586  12.410  0.6067 -0.6452 -1.0000
 5149TIP3    H236939   0.951   0.446  12.455 -0.6087  0.0048  0.1082
 5150TIP3   OH236940   5.329   2.710   9.987  0.2228 -0.5302  0.2632
 5150TIP3    H136941   5.355   2.791   9.944  0.7222 -0.9295 -0.1929
 5150TIP3    H236942   5.251   2.734  10.038  1.1333  0.5378  1.1826
 5151TIP3   OH236943   2.926   0.431  11.828  0.7937 -0.2735 -0.0921
 5151TIP3    H136944   2.922   0.511  11.776  0.8916 -0.3251 -0.1807
 5151TIP3    H236945   2.923   0.360  11.763  0.7267 -0.3415 -0.0142
 5152TIP3   OH236946   4.366   2.898   4.198  0.1826 -0.3017  0.6352
 5152TIP3    H136947   4.357   2.906   4.293 -0.0548  1.9807  0.4472
 5152TIP3    H236948   4.442   2.952   4.177 -0.1999 -0.2215 -0.5596
 5153TIP3   OH236949   4.022   2.959   5.547 -0.2013  0.2113  0.0566
 5153TIP3    H136950   4.111   2.993   5.564 -0.1214  0.8872 -1.6727
 5153TIP3    H236951   3.984   3.021   5.486 -1.6748 -0.4210  0.3147
 5154TIP3   OH236952   0.339   0.176  11.952  0.3924 -0.2991 -0.2179
 5154TIP3    H136953   0.311   0.200  11.864 -1.3465  0.2992  0.4790
 5154TIP3    H236954   0.402   0.243  11.977 -1.7402  1.5532  0.3287
 5155TIP3   OH236955   5.400   0.346   2.982  0.0243 -0.1306  0.6095
 5155TIP3    H136956   5.384   0.263   2.938  0.1056  0.0910  0.1568
 5155TIP3    H236957   5.482   0.333   3.029 -0.5507 -0.6827  1.4840
 5156TIP3   OH236958   4.345   4.942  11.935  0.3193 -0.0286 -0.1644
 5156TIP3    H136959   4.365   5.034  11.916 -2.0261  0.9965  1.9050
 5156TIP3    H236960   4.423   4.909  11.980  0.9047  1.1982 -0.2451
 5157TIP3   OH236961   4.737   2.162   6.238 -0.6557  0.2608  0.0186
 5157TIP3    H136962   4.759   2.255   6.234  0.4606 -0.0142 -0.5923
 5157TIP3    H236963   4.646   2.159   6.267 -0.3710  1.5039  1.0750
 5158TIP3   OH236964   4.560   5.283   4.145  0.1578 -0.1987 -0.1397
 5158TIP3    H136965   4.618   5.320   4.078 -0.3748  0.2082 -0.3750
 5158TIP3    H236966   4.472   5.295   4.110 -0.4389  3.7771  2.4243
 5159TIP3   OH236967   1.308   1.334   5.328 -0.1413  0.0264 -0.8590
 5159TIP3    H136968   1.402   1.318   5.322  0.3391  2.6909 -1.0207
 5159TIP3    H236969   1.272   1.296   5.248  0.7897 -1.0483 -0.7748
 5160TIP3   OH236970   5.867   4.197   1.984 -0.4599 -0.4508  0.2683
 5160TIP3    H136971   5.789   4.237   2.022  2.1440  1.6947  3.6563
 5160TIP3    H236972   5.891   4.128   2.046  0.4825 -0.8818 -0.5642
 5161TIP3   OH236973   5.342   2.160  13.558 -0.2578 -0.0972 -0.3479
 5161TIP3    H136974   5.354   2.121  13.471 -0.4701 -1.4479  0.2053
 5161TIP3    H236975   5.430   2.174  13.591 -0.1228 -2.5849  0.4936
 5162TIP3   OH236976   6.178   2.941  12.620  0.1789 -0.4168 -0.0920
 5162TIP3    H136977   6.087   2.970  12.631 -0.0632 -1.3439  0.3651
 5162TIP3    H236978   6.230   3.018  12.642 -0.4766 -0.0956  0.3627
 5163TIP3   OH236979   4.233   5.740  13.608 -0.0917  0.0015 -0.5973
 5163TIP3    H136980   4.255   5.661  13.657  0.4095  0.1969 -0.4981
 5163TIP3    H236981   4.318   5.780  13.588 -0.3581  0.9152  0.0173
 5164TIP3   OH236982   0.169   1.962  11.076 -0.1928 -0.3811  0.0658
 5164TIP3    H136983   0.262   1.967  11.095 -0.0597  1.0741 -0.8614
 5164TIP3    H236984   0.160   1.888  11.016  0.8056  1.2954 -2.2176
 5165TIP3   OH236985   2.485   0.313  16.457  0.3087 -0.3033 -0.3648
 5165TIP3    H136986   2.570   0.322  16.414 -0.0088 -0.9842 -1.1742
 5165TIP3    H236987   2.493   0.362  16.538  1.4143 -0.2093 -0.5239
 5166TIP3   OH236988   6.690   4.050   2.029 -0.1192  0.3804 -1.1786
 5166TIP3    H136989   6.711   4.119   2.092 -0.2447 -0.0646 -0.6517
 5166TIP3    H236990   6.691   4.095   1.944 -0.4745  1.0876 -0.8119
 5167TIP3   OH236991   2.437   3.717  16.258 -0.1607  0.5412 -0.7227
 5167TIP3    H136992   2.519   3.719  16.209 -0.6721  1.3102 -1.5626
 5167TIP3    H236993   2.384   3.786  16.218 -0.8355  0.7268  0.4759
 5168TIP3   OH236994   2.293   2.923  12.088  0.1065  0.4172  0.2590
 5168TIP3    H136995   2.353   2.881  12.150 -0.1245 -0.8347 -0.3561
 5168TIP3    H236996   2.346   2.940  12.011  0.2665  1.5233  0.6054
 5169TIP3   OH236997   0.143   0.025  12.810  0.0265 -0.1119 -0.5364
 5169TIP3    H136998   0.142  -0.064  12.775 -0.4720 -0.3158 -0.0159
 5169TIP3    H236999   0.173   0.015  12.901 -0.2710  0.2168 -0.4001
 5170TIP3   OH237000   6.145   2.864   3.574  0.0133  0.2408 -0.6515
 5170TIP3    H137001   6.191   2.795   3.526  3.1153  1.6133  0.2276
 5170TIP3    H237002   6.064   2.822   3.604  1.6204 -2.9032 -0.4847
 5171TIP3   OH237003   5.714   3.280   0.252 -0.1450 -0.0804  0.0598
 5171TIP3    H137004   5.699   3.289   0.158  0.0652  3.4774  0.2673
 5171TIP3    H237005   5.628   3.298   0.292  0.0145 -0.4380  0.5687
 5172TIP3   OH237006   4.720   4.951  12.083  0.0950  0.5966  0.0005
 5172TIP3    H137007   4.725   5.034  12.035  2.2376  0.3945 -0.1540
 5172TIP3    H237008   4.721   4.977  12.175 -0.3857  0.7947 -0.0485
 5173TIP3   OH237009   6.699   5.418  13.337  0.1092 -0.1885 -0.3716
 5173TIP3    H137010   6.625   5.475  13.315  1.3576  1.8536  0.6227
 5173TIP3    H237011   6.761   5.430  13.265  1.2858  1.3442  0.8801
 5174TIP3   OH237012   0.076   0.777   4.116 -0.0972 -0.2803 -0.2063
 5174TIP3    H137013   0.132   0.853   4.130 -0.3739 -0.0727 -0.2329
 5174TIP3    H237014   0.082   0.761   4.022  1.4236 -1.4172  0.0562
 5175TIP3   OH237015   2.808   6.541   4.277 -0.2351  0.0060  0.3783
 5175TIP3    H137016   2.791   6.630   4.307 -0.4719  0.1976 -0.3236
 5175TIP3    H237017   2.756   6.532   4.198 -1.1382 -1.1507  1.0889
 5176TIP3   OH237018   4.278   4.681   3.899 -0.6102  0.1108  0.4982
 5176TIP3    H137019   4.273   4.676   3.995 -1.0983  2.3661  0.6098
 5176TIP3    H237020   4.370   4.668   3.879 -0.8890 -3.2766  1.0446
 5177TIP3   OH237021   4.524   2.620   1.890  0.4750 -0.0163 -0.0366
 5177TIP3    H137022   4.511   2.666   1.973  0.6727  0.1128 -0.0758
 5177TIP3    H237023   4.522   2.690   1.824 -2.1587 -0.3586 -0.4002
 5178TIP3   OH237024   5.122   1.053   4.232  0.1726 -0.2439  0.1996
 5178TIP3    H137025   5.039   1.033   4.189  1.7404 -0.7298 -2.7343
 5178TIP3    H237026   5.119   1.148   4.245 -0.5945 -0.1727 -0.4153
 5179TIP3   OH237027   0.144   1.425  13.528 -0.2548  0.5530  0.3892
 5179TIP3    H137028   0.166   1.399  13.439  0.3964 -0.0418  0.7116
 5179TIP3    H237029   0.210   1.382  13.582 -2.1663 -1.1760  1.3961
 5180TIP3   OH237030   6.196   3.195   0.838 -0.2589 -0.5177 -0.4263
 5180TIP3    H137031   6.167   3.284   0.858 -1.0427 -0.7783 -0.3942
 5180TIP3    H237032   6.164   3.179   0.749 -3.1125 -1.9924  0.7865
 5181TIP3   OH237033   3.924   6.035   1.823  0.0970 -0.1700 -0.0397
 5181TIP3    H137034   3.927   6.106   1.759 -0.2365  0.0075  0.1371
 5181TIP3    H237035   3.888   5.961   1.776 -0.9058  0.1873  0.1480
 5182TIP3   OH237036   1.026   4.658   6.269  0.2541  0.3058  0.0952
 5182TIP3    H137037   0.977   4.576   6.262 -1.4477  1.3443 -0.4437
 5182TIP3    H237038   0.980   4.707   6.337  1.1452  0.9032  0.2747
 5183TIP3   OH237039   4.576   2.086   4.255  0.0552  0.3881  0.1627
 5183TIP3    H137040   4.550   2.028   4.183 -2.8066  0.1572  1.3046
 5183TIP3    H237041   4.501   2.085   4.315  2.7217 -0.1931  3.6790
 5184TIP3   OH237042   6.795   6.067   2.412 -0.0538  0.0292  0.4568
 5184TIP3    H137043   6.777   6.090   2.321 -0.2435 -2.5958 -0.2032
 5184TIP3    H237044   6.869   6.007   2.408 -2.0882 -2.6935  1.7065
 5185TIP3   OH237045   2.596   0.296   1.776 -0.6590  0.1258 -0.1263
 5185TIP3    H137046   2.561   0.291   1.687  0.6702 -1.1580 -0.5973
 5185TIP3    H237047   2.667   0.360   1.771 -0.1741 -0.4047 -0.1470
 5186TIP3   OH237048   1.036   1.033   3.057  0.0741 -0.0982 -0.4766
 5186TIP3    H137049   1.040   1.032   3.153 -1.1334  1.7758 -0.3792
 5186TIP3    H237050   1.127   1.019   3.030  0.3539 -1.1414  0.9173
 5187TIP3   OH237051   3.948   0.190  15.467  0.1527  0.0146 -0.0946
 5187TIP3    H137052   3.871   0.231  15.427  0.2672  0.5365  0.2264
 5187TIP3    H237053   3.962   0.239  15.548  0.3311 -0.6111  0.2525
 5188TIP3   OH237054   3.344   2.645   2.512 -0.1683 -0.0681 -0.2577
 5188TIP3    H137055   3.401   2.571   2.494 -0.2558 -0.5546  1.3902
 5188TIP3    H237056   3.363   2.708   2.442 -1.3677 -2.3452 -2.6867
 5189TIP3   OH237057   3.333   1.242  11.718 -0.7503 -0.1076  0.3755
 5189TIP3    H137058   3.309   1.170  11.659 -0.2689  2.1051 -2.6317
 5189TIP3    H237059   3.255   1.297  11.721 -0.8618 -0.3347  2.0840
 5190TIP3   OH237060   3.070   2.569  15.317 -0.7617 -0.3013  0.1591
 5190TIP3    H137061   3.059   2.541  15.226 -0.0605  0.4552 -0.1723
 5190TIP3    H237062   3.149   2.523  15.347  1.1998  2.2761 -0.8220
 5191TIP3   OH237063   2.509   0.262  13.107  0.3341 -0.6331  0.5732
 5191TIP3    H137064   2.465   0.181  13.135  0.3064 -1.3413 -1.4591
 5191TIP3    H237065   2.493   0.267  13.013  1.6695  0.9335  0.4087
 5192TIP3   OH237066   3.404   2.105  11.670 -0.3650 -0.1421  0.1322
 5192TIP3    H137067   3.496   2.079  11.678 -0.9104 -1.8636  1.2243
 5192TIP3    H237068   3.405   2.181  11.612  1.8151  0.2764  0.6731
 5193TIP3   OH237069   0.523   3.468  12.929 -0.1474 -0.3780 -0.0286
 5193TIP3    H137070   0.573   3.399  12.885 -1.0954 -1.7572  1.0103
 5193TIP3    H237071   0.563   3.549  12.898  1.3822 -1.3913 -0.8212
 5194TIP3   OH237072   0.413   1.165  14.021 -0.3240 -0.1740 -0.0458
 5194TIP3    H137073   0.360   1.090  13.993 -0.6518  0.4298 -1.1026
 5194TIP3    H237074   0.372   1.195  14.101 -0.6097 -0.6912  0.0068
 5195TIP3   OH237075   4.399   3.522   1.013  0.0157 -0.3565  0.3256
 5195TIP3    H137076   4.442   3.440   0.991 -1.4840 -1.2335  0.6348
 5195TIP3    H237077   4.471   3.579   1.041  0.9660 -1.8017  0.8982
 5196TIP3   OH237078   2.540   2.407   2.906 -0.1459 -0.4751  0.3252
 5196TIP3    H137079   2.451   2.373   2.920  0.5285 -1.7150  1.7304
 5196TIP3    H237080   2.527   2.498   2.880 -1.7825 -0.2476  1.8432
 5197TIP3   OH237081   3.142   1.002   2.249  0.3532 -0.5788  0.3813
 5197TIP3    H137082   3.070   0.959   2.297 -1.3980  2.3393  0.4993
 5197TIP3    H237083   3.152   1.086   2.293  0.8299  0.8826 -2.4595
 5198TIP3   OH237084   3.334   5.993  13.767  0.7076  0.1256 -0.5144
 5198TIP3    H137085   3.354   5.952  13.683  2.0884 -0.1061 -0.0925
 5198TIP3    H237086   3.304   6.081  13.744  0.2003 -0.2469 -1.2910
 5199TIP3   OH237087   0.209   3.641  13.276  0.4915  0.0143 -0.6054
 5199TIP3    H137088   0.262   3.633  13.197  3.4462  0.1886  1.2925
 5199TIP3    H237089   0.220   3.733  13.302 -0.8367  0.0745 -0.2223
 5200TIP3   OH237090   5.206   0.834   3.631 -0.6877  0.1200  0.2475
 5200TIP3    H137091   5.200   0.766   3.698 -0.1535  0.0780  0.2544
 5200TIP3    H237092   5.115   0.857   3.612 -0.8039  1.0870  1.9556
 5201TIP3   OH237093   0.916   4.747   3.906  0.2562 -0.1613  0.8335
 5201TIP3    H137094   0.838   4.694   3.888 -1.2425  1.2163  3.0889
 5201TIP3    H237095   0.980   4.685   3.940 -0.7944 -0.8786  1.5233
 5202TIP3   OH237096   2.519   6.129   4.837 -0.6031 -0.0025 -0.3419
 5202TIP3    H137097   2.609   6.147   4.810 -0.4408  1.7738  1.2428
 5202TIP3    H237098   2.470   6.120   4.756  0.7109  0.6057 -1.2128
 5203TIP3   OH237099   2.448   0.693  16.369 -0.1610 -0.9963 -0.2786
 5203TIP3    H137100   2.404   0.751  16.307  0.3516  1.1325  1.2933
 5203TIP3    H237101   2.379   0.662  16.427 -0.3825 -1.7577 -0.9328
 5204TIP3   OH237102   4.209   6.168   6.249 -0.5855  0.0756  0.0967
 5204TIP3    H137103   4.230   6.142   6.339  0.9621 -1.7675 -0.7579
 5204TIP3    H237104   4.144   6.103   6.220 -0.4317  0.1504 -0.4151
 5205TIP3   OH237105   3.028   4.100  12.505 -0.2821  0.8844  0.5545
 5205TIP3    H137106   3.046   4.042  12.580 -1.1023 -0.7841 -0.4940
 5205TIP3    H237107   3.068   4.183  12.529  0.0723  0.1752  2.5527
 5206TIP3   OH237108   1.612   4.541   1.540  0.1104  0.6437  0.2046
 5206TIP3    H137109   1.581   4.506   1.457  1.0643  0.3925 -0.0505
 5206TIP3    H237110   1.705   4.560   1.525  0.0995  1.3298  0.9722
 5207TIP3   OH237111   4.739   4.740   0.626  0.0783  0.0015 -0.5028
 5207TIP3    H137112   4.708   4.782   0.706 -0.0718  0.7368 -0.9506
 5207TIP3    H237113   4.833   4.760   0.623 -0.0349  0.4858 -0.8285
 5208TIP3   OH237114   2.497   5.834  12.146 -0.2495  0.3709 -0.8496
 5208TIP3    H137115   2.469   5.910  12.196  0.0789 -0.4766  0.6245
 5208TIP3    H237116   2.443   5.762  12.178  1.0787 -0.5060 -0.5471
 5209TIP3   OH237117   5.047   5.798   4.598 -0.3220  0.0052 -0.5982
 5209TIP3    H137118   4.958   5.832   4.609 -0.4784 -0.5493 -0.1025
 5209TIP3    H237119   5.049   5.764   4.509  0.1248  2.1665 -1.4250
 5210TIP3   OH237120   5.758   0.313  13.807 -0.4937  0.0790  0.2677
 5210TIP3    H137121   5.841   0.353  13.834 -0.9770  0.9968  0.4017
 5210TIP3    H237122   5.755   0.229  13.854  0.1243  0.2662  0.6438
 5211TIP3   OH237123   3.128   5.149  14.138 -0.2008 -0.0275 -0.1627
 5211TIP3    H137124   3.207   5.108  14.103 -0.0391 -0.0501  0.2316
 5211TIP3    H237125   3.109   5.102  14.219  1.0780  1.9040  1.3120
 5212TIP3   OH237126   3.193   4.545  14.653 -0.2180 -0.2086 -0.0820
 5212TIP3    H137127   3.270   4.522  14.601 -0.6652 -0.9324 -0.4361
 5212TIP3    H237128   3.218   4.625  14.699  0.8113 -0.5385 -0.0560
 5213TIP3   OH237129   2.867   5.629  15.220 -0.2951  0.0214 -0.1045
 5213TIP3    H137130   2.848   5.723  15.220  2.1625  0.5927  2.8889
 5213TIP3    H237131   2.950   5.621  15.173 -0.4577 -0.6794 -0.2861
 5214TIP3   OH237132   5.887   6.688  14.281  0.4906 -0.6537 -0.1048
 5214TIP3    H137133   5.869   6.782  14.290  0.6659 -0.3545 -2.5238
 5214TIP3    H237134   5.828   6.659  14.210 -0.5578 -2.6783  1.5449
 5215TIP3   OH237135   6.594   5.578   5.316 -0.2251 -0.4775 -0.2009
 5215TIP3    H137136   6.643   5.499   5.292 -1.6691 -1.5531  0.3035
 5215TIP3    H237137   6.580   5.570   5.410 -0.0779  0.5558 -0.0871
 5216TIP3   OH237138   2.944   2.603  16.693  0.1943  0.3161  0.6664
 5216TIP3    H137139   2.974   2.631  16.780  2.4402  1.1004 -0.3204
 5216TIP3    H237140   3.007   2.642  16.633  0.9467 -3.4423 -1.0895
 5217TIP3   OH237141   4.156   2.435   3.441 -0.0581 -0.3326 -0.2950
 5217TIP3    H137142   4.101   2.504   3.478  0.4392  0.3781 -0.8585
 5217TIP3    H237143   4.143   2.442   3.347  1.7097  0.4751 -0.5096
 5218TIP3   OH237144   0.024   1.196  14.457  0.1162  0.7326 -0.0790
 5218TIP3    H137145  -0.015   1.283  14.464  1.6956  1.2864  2.4315
 5218TIP3    H237146  -0.034   1.140  14.508  0.9156  0.9871  1.1369
 5219TIP3   OH237147   1.801   6.758  13.330  0.0625  0.3806  0.6379
 5219TIP3    H137148   1.775   6.749  13.238  0.4848  1.8678  0.3703
 5219TIP3    H237149   1.892   6.784  13.327  0.2445 -0.1378  1.5106
 5220TIP3   OH237150   0.770   4.729   4.817  0.0503  0.4787  0.3402
 5220TIP3    H137151   0.784   4.795   4.749  0.2734 -0.1814 -0.2685
 5220TIP3    H237152   0.742   4.651   4.769 -0.6265  0.2519  1.0865
 5221TIP3   OH237153   3.607   4.327  16.450 -0.7344 -0.1850  0.0168
 5221TIP3    H137154   3.612   4.312  16.545 -1.2125 -0.3081  0.0278
 5221TIP3    H237155   3.687   4.289  16.415  0.3241  1.4492  0.5721
 5222TIP3   OH237156   4.738   2.114   5.050  0.2611  0.2467  0.1014
 5222TIP3    H137157   4.730   2.112   4.955  0.2527 -1.0936  0.1157
 5222TIP3    H237158   4.675   2.048   5.080  1.4915 -0.5598  0.9374
 5223TIP3   OH237159   5.698   2.769   0.284  0.3381 -0.2681  0.2372
 5223TIP3    H137160   5.669   2.694   0.336 -0.3641  0.1558  0.4624
 5223TIP3    H237161   5.659   2.845   0.327  2.0218  0.3511  0.7059
 5224TIP3   OH237162   2.698   1.033   6.945  0.8488  0.2307  0.4520
 5224TIP3    H137163   2.729   1.086   6.871  1.6738 -2.6276 -1.3650
 5224TIP3    H237164   2.629   1.085   6.985 -0.6615  1.2594 -3.2830
 5225TIP3   OH237165   0.789   3.871  15.994  0.2117  0.3726 -0.7515
 5225TIP3    H137166   0.841   3.883  15.915 -0.8687  0.2302 -1.4826
 5225TIP3    H237167   0.728   3.944  15.994  0.8265  0.9133  0.4526
 5226TIP3   OH237168   2.356   2.551  10.513  0.3917  0.4539 -0.1244
 5226TIP3    H137169   2.405   2.580  10.590 -0.5477  1.5695  0.0819
 5226TIP3    H237170   2.387   2.608  10.442 -1.1329  1.7058  0.1789
 5227TIP3   OH237171   5.707   6.333  16.781  0.3683 -0.0838  0.1125
 5227TIP3    H137172   5.624   6.380  16.777  1.3188  1.6037 -0.0252
 5227TIP3    H237173   5.747   6.346  16.695  1.2647  0.0101  0.5307
 5228TIP3   OH237174   0.050   1.540  17.244 -0.4168  0.2514  0.1211
 5228TIP3    H137175   0.123   1.558  17.185 -0.7849 -2.3946 -1.1934
 5228TIP3    H237176  -0.020   1.598  17.215  0.4740  1.3182  0.0810
 5229TIP3   OH237177   2.304   0.463  16.170  0.1507 -0.1433 -0.6955
 5229TIP3    H137178   2.357   0.396  16.127 -0.1143 -0.1140 -1.0688
 5229TIP3    H237179   2.267   0.418  16.247  2.8404  0.5674  1.0807
 5230TIP3   OH237180   3.947   0.361   3.004  0.3909 -0.0325 -0.5814
 5230TIP3    H137181   3.871   0.329   2.956 -0.8219  1.1681  0.5148
 5230TIP3    H237182   4.004   0.399   2.937 -0.6850  0.4610 -1.2193
 5231TIP3   OH237183   1.263   5.150  11.546 -0.1959  0.3953  0.3029
 5231TIP3    H137184   1.357   5.141  11.533 -0.3057 -0.0036 -0.2387
 5231TIP3    H237185   1.235   5.066  11.583 -0.0534  1.1629  2.1933
 5232TIP3   OH237186   0.226   2.596   2.271 -0.3551 -0.0540 -0.3432
 5232TIP3    H137187   0.227   2.655   2.195 -0.3730  0.2189 -0.1340
 5232TIP3    H237188   0.143   2.548   2.263 -0.7824  0.6238 -0.0033
 5233TIP3   OH237189   1.813   4.289   2.940  0.5035  0.0547 -0.5475
 5233TIP3    H137190   1.738   4.231   2.946  1.0744 -0.9585 -2.5696
 5233TIP3    H237191   1.779   4.369   2.900  0.1849  0.2463  0.0949
 5234TIP3   OH237192   6.631   4.378  11.843  0.4086 -0.1934  0.7384
 5234TIP3    H137193   6.612   4.396  11.935 -1.7994  1.9867 -0.0820
 5234TIP3    H237194   6.711   4.427  11.825 -0.2746  1.0602  1.0080
 5235TIP3   OH237195   0.307   0.362   0.781 -0.4344 -0.9082  0.1721
 5235TIP3    H137196   0.379   0.396   0.834 -1.3147 -0.5163  1.1389
 5235TIP3    H237197   0.296   0.271   0.811 -0.6282 -0.8294  0.3442
 5236TIP3   OH237198   4.228   2.476  14.529  0.0132  0.3712 -0.2013
 5236TIP3    H137199   4.170   2.404  14.552 -0.1863 -0.0510 -1.9573
 5236TIP3    H237200   4.313   2.451  14.565 -0.5498  0.3049  1.0996
 5237TIP3   OH237201   1.705   5.765  14.718 -0.7478  0.0366 -0.0228
 5237TIP3    H137202   1.618   5.782  14.682 -0.3920  1.4118 -0.2717
 5237TIP3    H237203   1.700   5.677  14.755 -2.2812  0.1583  0.0605
 5238TIP3   OH237204   6.404   3.234   5.511 -0.2922  0.0123 -0.1180
 5238TIP3    H137205   6.464   3.226   5.585 -0.1193 -2.7647 -0.4859
 5238TIP3    H237206   6.461   3.237   5.434 -0.5361 -0.0551 -0.3026
 5239TIP3   OH237207   3.668   6.244   6.490  0.6626  0.1789  0.3586
 5239TIP3    H137208   3.753   6.207   6.466  0.8308  1.4256 -1.0257
 5239TIP3    H237209   3.623   6.173   6.535  1.2127 -1.5482 -1.7407
 5240TIP3   OH237210   3.082   0.773  15.412 -0.0944  0.0115  0.2855
 5240TIP3    H137211   3.150   0.836  15.433 -0.9553  0.3250  2.2889
 5240TIP3    H237212   3.009   0.796  15.470 -2.2600  0.2534 -2.4344
 5241TIP3   OH237213   1.495   3.145   6.209  0.2223  0.5933  0.3618
 5241TIP3    H137214   1.459   3.105   6.130  0.1019 -0.1187  0.7637
 5241TIP3    H237215   1.435   3.217   6.229 -0.2130  0.2626  0.2648
 5242TIP3   OH237216   2.510   3.390   4.137  0.1069 -0.0175 -0.5842
 5242TIP3    H137217   2.582   3.431   4.089 -0.2017  1.4276  0.1429
 5242TIP3    H237218   2.471   3.329   4.075  1.4305 -0.1961 -1.2584
 5243TIP3   OH237219   5.762   0.522   3.654  0.1489 -0.5122  0.1261
 5243TIP3    H137220   5.809   0.521   3.570  0.2960 -0.9811  0.2114
 5243TIP3    H237221   5.674   0.551   3.631 -0.3073 -2.3178 -0.4722
 5244TIP3   OH237222   6.126   2.131  14.479 -0.1165  0.0343 -0.6556
 5244TIP3    H137223   6.097   2.189  14.549  1.0142 -0.5939  0.3385
 5244TIP3    H237224   6.074   2.051  14.491  0.9991 -0.5683  0.2850
 5245TIP3   OH237225   4.988   4.723  16.439 -0.0117  0.2083 -0.0634
 5245TIP3    H137226   4.920   4.667  16.401  0.5389 -0.5323  0.0384
 5245TIP3    H237227   5.070   4.679  16.417  0.4034  0.7636  0.3689
 5246TIP3   OH237228   0.707   6.638   3.683 -0.4830  0.2876 -0.3851
 5246TIP3    H137229   0.793   6.634   3.640  0.0320  0.5242  0.5992
 5246TIP3    H237230   0.687   6.731   3.688 -0.3279  0.2881  0.2897
 5247TIP3   OH237231   0.384   6.138  11.441  0.1067 -0.4921 -0.0855
 5247TIP3    H137232   0.355   6.204  11.378 -0.3065 -1.8350 -1.3315
 5247TIP3    H237233   0.329   6.062  11.423 -1.2677 -0.3280  3.1323
 5248TIP3   OH237234   0.730   4.926  11.623 -0.2772 -0.4031 -0.0367
 5248TIP3    H137235   0.719   4.871  11.545 -0.0536  0.0991 -0.4195
 5248TIP3    H237236   0.825   4.937  11.631 -0.3355  0.1822 -0.1391
 5249TIP3   OH237237   0.110   0.311   2.110  0.2189  0.8413 -0.7711
 5249TIP3    H137238   0.150   0.239   2.159  1.1323  1.1713 -1.0181
 5249TIP3    H237239   0.089   0.376   2.177 -1.5115 -0.0375 -0.4156
 5250TIP3   OH237240   4.176   0.021   2.137 -0.2036  0.6727 -0.3632
 5250TIP3    H137241   4.175   0.105   2.182 -0.9616  0.5831 -0.2057
 5250TIP3    H237242   4.138  -0.040   2.200 -0.0732  0.3024 -0.6436
 5251TIP3   OH237243   0.797   0.876   3.005 -0.5046 -0.2186 -0.1740
 5251TIP3    H137244   0.776   0.875   3.098 -0.2251 -0.1463 -0.1099
 5251TIP3    H237245   0.878   0.928   2.999 -1.5921  1.4601 -0.6812
 5252TIP3   OH237246   1.675   1.229   4.073  0.1596  0.1605 -0.3772
 5252TIP3    H137247   1.729   1.261   4.145 -1.0707 -0.9108  1.0517
 5252TIP3    H237248   1.678   1.134   4.080  0.5256  0.0215 -2.1351
 5253TIP3   OH237249   6.478   6.602  15.885 -0.4993  0.1753 -0.6933
 5253TIP3    H137250   6.385   6.607  15.909 -0.1482  0.0216  0.7482
 5253TIP3    H237251   6.523   6.585  15.968  0.8623  0.7731 -1.2989
 5254TIP3   OH237252   3.386   2.924   5.566 -0.4727 -0.0608 -0.2858
 5254TIP3    H137253   3.427   2.997   5.520  2.3234 -1.6366 -0.3973
 5254TIP3    H237254   3.315   2.896   5.507  1.6766 -0.6826 -2.6812
 5255TIP3   OH237255   1.268   2.342  12.089  0.6392  0.5639 -0.5621
 5255TIP3    H137256   1.198   2.355  12.024  0.2242 -1.2446 -0.4958
 5255TIP3    H237257   1.245   2.402  12.160 -1.5873 -0.9247  0.0195
 5256TIP3   OH237258   3.176   4.686   1.211  0.3269  0.2157  0.4059
 5256TIP3    H137259   3.245   4.648   1.156 -0.6123  0.1000 -0.7145
 5256TIP3    H237260   3.177   4.632   1.290  0.6942 -0.5644 -0.1175
 5257TIP3   OH237261   0.855   5.585   3.765  0.1468  0.0506  0.0213
 5257TIP3    H137262   0.800   5.521   3.720 -0.2893 -0.4384  1.2254
 5257TIP3    H237263   0.868   5.655   3.701  0.5961 -1.2130 -1.2775
 5258TIP3   OH237264   0.119   1.306   2.183 -0.4336  0.1490  0.3215
 5258TIP3    H137265   0.198   1.270   2.142 -0.6446  0.9357 -0.7820
 5258TIP3    H237266   0.107   1.251   2.260 -1.0922 -2.6070 -1.6331
 5259TIP3   OH237267   5.187   0.818   0.060 -0.1035  0.5430 -0.5621
 5259TIP3    H137268   5.228   0.789  -0.022  1.7272 -0.8590  0.8063
 5259TIP3    H237269   5.243   0.890   0.091  0.7423 -0.6439  0.7444
 5260TIP3   OH237270   1.945   3.556  15.125 -0.1705 -0.0962 -0.4299
 5260TIP3    H137271   1.926   3.464  15.106 -1.8475  0.1114  0.1423
 5260TIP3    H237272   2.039   3.564  15.110  0.0729 -1.9936 -0.1332
 5261TIP3   OH237273   3.323   2.538  13.075  0.1597 -0.1206 -0.3307
 5261TIP3    H137274   3.290   2.491  13.152  0.3630  2.3153  1.2923
 5261TIP3    H237275   3.383   2.476  13.034 -0.6810 -1.8198  0.9197
 5262TIP3   OH237276   5.781   3.510  12.362  0.7012 -0.0790  0.4554
 5262TIP3    H137277   5.769   3.515  12.267  0.2516 -2.0938  0.3701
 5262TIP3    H237278   5.696   3.535  12.398  0.9143  0.8271  0.3239
 5263TIP3   OH237279   3.606   4.449   0.839  0.0306 -0.3360  0.1649
 5263TIP3    H137280   3.583   4.357   0.849  0.1371 -0.3988 -0.1591
 5263TIP3    H237281   3.534   4.496   0.881 -0.4059 -0.5457 -0.3372
 5264TIP3   OH237282   2.413   3.631   6.014  0.6611  0.1869 -0.3810
 5264TIP3    H137283   2.456   3.606   5.932  0.9627  0.0481 -0.1811
 5264TIP3    H237284   2.336   3.574   6.018  0.0351  0.9661 -1.1170
 5265TIP3   OH237285   2.882   6.601   1.012  0.3664 -0.2025 -0.1073
 5265TIP3    H137286   2.893   6.679   0.958  0.5046  0.3786  0.7496
 5265TIP3    H237287   2.803   6.559   0.978  0.8283 -0.1996 -1.1853
 5266TIP3   OH237288   0.907   2.615  16.176  0.0326 -0.1162  0.5471
 5266TIP3    H137289   0.977   2.605  16.240  1.0599 -2.7434 -0.8942
 5266TIP3    H237290   0.949   2.655  16.100 -0.3932 -0.2085  0.2585
 5267TIP3   OH237291   3.827   5.301  14.112  0.0619 -0.3150 -0.3755
 5267TIP3    H137292   3.738   5.280  14.139  0.3951  1.1608  2.1261
 5267TIP3    H237293   3.881   5.276  14.188  1.6488 -0.2790 -1.4670
 5268TIP3   OH237294   0.494   3.405  12.572 -0.2747  0.3371 -0.0036
 5268TIP3    H137295   0.480   3.332  12.512 -1.4666  1.2193 -0.8246
 5268TIP3    H237296   0.573   3.382  12.620  0.2055 -0.7904 -1.3064
 5269TIP3   OH237297   4.449   0.856  16.504  0.2107 -0.5056  0.1052
 5269TIP3    H137298   4.414   0.936  16.544 -1.4051 -1.0920 -0.1147
 5269TIP3    H237299   4.430   0.788  16.568 -1.0820 -1.2110 -1.0254
 5270TIP3   OH237300   2.640   2.427  15.409  0.2765 -0.4018 -0.1438
 5270TIP3    H137301   2.663   2.501  15.353 -0.1873 -0.2476 -0.1364
 5270TIP3    H237302   2.544   2.424  15.407  0.2311 -0.1731  0.9224
 5271TIP3   OH237303   0.246   3.277  13.162  0.5760  0.0192 -0.2138
 5271TIP3    H137304   0.154   3.303  13.173  0.3598 -1.2542  1.2908
 5271TIP3    H237305   0.243   3.181  13.159  1.6570  0.0233 -2.3524
 5272TIP3   OH237306   3.296   6.292   3.700 -0.5087  0.2690 -0.3063
 5272TIP3    H137307   3.364   6.354   3.726  0.2464 -0.5812 -0.2241
 5272TIP3    H237308   3.339   6.237   3.634 -2.4667  2.6389 -3.7063
 5273TIP3   OH237309   2.808   6.813  16.241  0.8822  0.1136 -0.0108
 5273TIP3    H137310   2.794   6.724  16.208 -0.7526  0.4576 -0.2741
 5273TIP3    H237311   2.849   6.801  16.326 -0.3490 -0.9316  0.4465
 5274TIP3   OH237312   3.030   1.426  16.790 -0.2681 -0.1933 -0.5116
 5274TIP3    H137313   2.991   1.444  16.705 -0.3951  0.2244 -0.3699
 5274TIP3    H237314   2.959   1.388  16.841  0.2237 -1.9008 -1.0806
 5275TIP3   OH237315   3.453   5.702   0.473  0.6448  0.1646 -0.1378
 5275TIP3    H137316   3.420   5.644   0.404  0.1312 -1.6660  1.6261
 5275TIP3    H237317   3.375   5.738   0.513  0.9389  0.8629 -0.1882
 5276TIP3   OH237318   2.504   3.256   2.096 -0.8348 -0.0804 -0.1946
 5276TIP3    H137319   2.597   3.247   2.073 -1.2972 -1.6228 -1.5759
 5276TIP3    H237320   2.492   3.195   2.169 -1.0209 -0.8231 -0.8355
 5277TIP3   OH237321   2.020   4.016   0.035  0.1698 -0.1538  0.3007
 5277TIP3    H137322   2.096   3.957   0.039  0.3041 -0.0366 -0.5016
 5277TIP3    H237323   1.957   3.970  -0.020  0.2967  0.4809 -0.3710
 5278TIP3   OH237324   1.355   3.821  12.658  0.2991  0.6773 -0.6275
 5278TIP3    H137325   1.363   3.903  12.608 -1.4402  2.0955  1.3045
 5278TIP3    H237326   1.443   3.804  12.691  0.5365  2.1796 -0.4518
 5279TIP3   OH237327   4.069   5.227   0.670 -0.5193 -0.1176 -0.1509
 5279TIP3    H137328   4.023   5.255   0.591 -0.7156 -0.6826 -0.2396
 5279TIP3    H237329   3.999   5.208   0.733 -0.3550  0.8143  0.3313
 5280TIP3   OH237330   1.470   3.092   5.676 -0.5273 -0.7941 -0.1818
 5280TIP3    H137331   1.443   3.129   5.592 -2.6638 -1.0656  0.3768
 5280TIP3    H237332   1.395   3.040   5.705  0.8113 -2.0560  1.1157
 5281TIP3   OH237333   3.089   2.665   1.703 -0.8577 -0.1104 -0.6030
 5281TIP3    H137334   3.086   2.575   1.737 -0.8009  0.4218  0.8475
 5281TIP3    H237335   3.175   2.672   1.661 -0.5579 -0.5006 -0.0652
 5282TIP3   OH237336   2.330   1.741   6.313  0.2786  0.1207  0.6674
 5282TIP3    H137337   2.403   1.705   6.363 -0.6363 -2.6881  0.0354
 5282TIP3    H237338   2.257   1.745   6.374 -0.4625 -2.0319 -0.0409
 5283TIP3   OH237339   4.664   4.910   5.005 -0.0806  0.7414  0.4914
 5283TIP3    H137340   4.589   4.950   4.960  0.4372  0.8296 -0.3123
 5283TIP3    H237341   4.655   4.939   5.096 -0.6578  1.2965  0.2671
 5284TIP3   OH237342   4.530   2.752  13.668  0.9841  0.7663  0.1672
 5284TIP3    H137343   4.441   2.743  13.703  0.4638  1.0957 -1.0374
 5284TIP3    H237344   4.576   2.675  13.699 -0.0174  0.0792 -0.0262
 5285TIP3   OH237345   3.108   0.551   3.329 -0.2400  0.1982 -0.4903
 5285TIP3    H137346   3.055   0.498   3.389 -0.7626 -0.4955 -1.5551
 5285TIP3    H237347   3.083   0.641   3.348 -1.2932 -0.0865 -0.5153
 5286TIP3   OH237348   0.268   3.265   2.887  0.2389  0.0399 -0.2598
 5286TIP3    H137349   0.288   3.193   2.828  0.9354 -0.2015  0.2606
 5286TIP3    H237350   0.185   3.240   2.929 -1.0805  0.9507 -2.2756
 5287TIP3   OH237351   3.507   4.893   1.517  0.6821 -0.2631  0.2191
 5287TIP3    H137352   3.539   4.833   1.450 -1.0331  0.9781 -1.8056
 5287TIP3    H237353   3.421   4.860   1.540  0.6464  0.1541  0.6900
 5288TIP3   OH237354   3.844   2.621   2.791  0.4154  0.0645  0.0515
 5288TIP3    H137355   3.810   2.566   2.720  0.1702 -0.0690  0.2705
 5288TIP3    H237356   3.926   2.579   2.816 -1.0215 -1.7267  1.9755
 5289TIP3   OH237357   1.881   4.467  13.462  0.1934  0.5084  0.0124
 5289TIP3    H137358   1.910   4.376  13.467 -1.6413 -0.1585 -1.1012
 5289TIP3    H237359   1.803   4.471  13.518  0.4400  1.4741  0.2989
 5290TIP3   OH237360   2.386   0.120   1.317  0.3451 -0.2064  0.1754
 5290TIP3    H137361   2.431   0.096   1.398  1.4585 -2.0350 -0.9576
 5290TIP3    H237362   2.444   0.089   1.247 -2.2129 -1.7455 -1.3313
 5291TIP3   OH237363   3.415   3.145   2.656  0.0722 -0.1710  0.1231
 5291TIP3    H137364   3.335   3.182   2.620 -0.5300 -1.2871  0.2992
 5291TIP3    H237365   3.485   3.188   2.606 -0.7189 -1.0484 -1.7907
 5292TIP3   OH237366   5.507   1.299  13.304 -0.1193  0.2186  0.3357
 5292TIP3    H137367   5.536   1.211  13.280 -0.4159  0.4656 -0.9750
 5292TIP3    H237368   5.414   1.289  13.324 -0.8771  0.7309 -2.6998
 5293TIP3   OH237369   2.848   4.898  11.317  0.1111  0.1836  0.1531
 5293TIP3    H137370   2.881   4.809  11.331 -0.0603 -0.1974 -1.6626
 5293TIP3    H237371   2.918   4.942  11.269 -0.7312  0.3181 -0.9675
 5294TIP3   OH237372   2.932   1.319   2.728  0.6591 -0.1120 -0.1462
 5294TIP3    H137373   2.846   1.295   2.693  0.8330 -0.2437 -0.4785
 5294TIP3    H237374   2.965   1.239   2.768  0.2750  0.1455  0.7022
 5295TIP3   OH237375   2.496   4.668   3.402 -0.1390 -0.0750 -0.1628
 5295TIP3    H137376   2.577   4.720   3.405  0.3534 -0.9009  1.3257
 5295TIP3    H237377   2.443   4.702   3.474 -0.5223 -0.4952 -0.2428
 5296TIP3   OH237378   6.224   0.725  16.891  0.2954 -0.0295 -0.0009
 5296TIP3    H137379   6.242   0.803  16.838  1.9107 -2.2280 -2.8242
 5296TIP3    H237380   6.254   0.749  16.979  1.2213  2.3622 -0.9161
 5297TIP3   OH237381   2.617   3.969  11.656 -0.4503 -0.4822  0.2524
 5297TIP3    H137382   2.554   3.932  11.718 -2.7172 -0.0476 -1.6887
 5297TIP3    H237383   2.588   3.936  11.571  1.8888 -0.1331 -0.7129
 5298TIP3   OH237384   6.798   0.633   6.352  0.0675 -0.2774 -0.3531
 5298TIP3    H137385   6.774   0.725   6.364 -1.0667 -0.2734 -2.3668
 5298TIP3    H237386   6.879   0.622   6.402  0.7942  2.0747 -0.9571
 5299TIP3   OH237387   5.078   6.608  13.827  0.4636  0.8795  0.1153
 5299TIP3    H137388   5.146   6.670  13.803  0.2286  2.2284  2.7620
 5299TIP3    H237389   4.996   6.657  13.818 -0.1592 -0.4989 -2.2984
 5300TIP3   OH237390   1.213   0.905   6.257 -0.5326 -0.5511  0.1266
 5300TIP3    H137391   1.190   0.896   6.349 -0.5436 -0.3986  0.1381
 5300TIP3    H237392   1.132   0.935   6.215 -0.0091  1.2369  0.3627
 5301TIP3   OH237393   2.062   2.340   6.637  0.3129  0.1465  0.0400
 5301TIP3    H137394   1.971   2.337   6.665  0.4035 -1.2030  0.2454
 5301TIP3    H237395   2.059   2.380   6.550 -0.3622  1.0097  0.4557
 5302TIP3   OH237396   4.684   0.560  10.268 -0.3360 -0.3466  0.1586
 5302TIP3    H137397   4.613   0.505  10.302  0.1434 -1.4921 -0.6694
 5302TIP3    H237398   4.730   0.504  10.206 -0.3565  1.2810 -1.3707
 5303TIP3   OH237399   0.109   0.085  13.680  0.0373 -0.2737  0.0133
 5303TIP3    H137400   0.043   0.045  13.624 -0.0161 -1.6792  1.0612
 5303TIP3    H237401   0.132   0.166  13.635 -1.0918 -0.6446 -1.2737
 5304TIP3   OH237402   2.269   2.727   4.971  0.1779  0.4075  0.5073
 5304TIP3    H137403   2.324   2.711   4.895 -2.2351 -0.3739 -1.1306
 5304TIP3    H237404   2.211   2.799   4.945 -0.6762  0.1278  1.5732
 5305TIP3   OH237405   6.259   5.770  10.978 -0.0216  0.7590  0.7900
 5305TIP3    H137406   6.168   5.798  10.972 -0.5209 -0.7132  1.4291
 5305TIP3    H237407   6.262   5.715  11.056  1.3472  0.5092  0.5732
 5306TIP3   OH237408   3.457   5.096   0.084  0.1567 -0.1953  0.5410
 5306TIP3    H137409   3.394   5.110   0.154 -1.3661 -1.8778 -0.4362
 5306TIP3    H237410   3.504   5.017   0.110  0.5142 -0.0503  0.3341
 5307TIP3   OH237411   0.915   4.416   0.171 -0.2271  0.2466 -0.0804
 5307TIP3    H137412   1.004   4.447   0.155 -0.4163  0.0757 -1.5344
 5307TIP3    H237413   0.889   4.458   0.253  1.0842  0.5210  0.2025
 5308TIP3   OH237414   4.886   4.815  13.150 -0.2535  0.7299 -0.2123
 5308TIP3    H137415   4.900   4.774  13.065  1.5192 -1.3925  1.0563
 5308TIP3    H237416   4.922   4.903  13.141  0.8880  0.1513 -1.3576
 5309TIP3   OH237417   2.547   3.948   6.672  0.1513 -0.3322 -0.8256
 5309TIP3    H137418   2.468   3.945   6.725  1.4421  2.0474  1.3289
 5309TIP3    H237419   2.608   3.888   6.715  0.7921  0.7062 -0.2532
 5310TIP3   OH237420   1.478   5.334  11.372  0.6194  0.0228  0.1773
 5310TIP3    H137421   1.480   5.252  11.421 -1.1597 -0.9062 -1.2231
 5310TIP3    H237422   1.485   5.308  11.281 -0.8782  1.3480 -0.3434
 5311TIP3   OH237423   6.556   0.959  14.398 -0.2786 -0.2920 -0.1093
 5311TIP3    H137424   6.521   1.044  14.369 -0.4388  0.1980  1.4742
 5311TIP3    H237425   6.614   0.932  14.327  1.4072  2.1412  0.2691
 5312TIP3   OH237426   6.336   1.343  15.288  0.9792 -0.1305 -0.1329
 5312TIP3    H137427   6.283   1.291  15.348 -0.0520  2.4313  1.2812
 5312TIP3    H237428   6.273   1.380  15.226  1.3219  1.3123  0.3420
 5313TIP3   OH237429   6.763   0.088   0.730 -0.1731 -0.0237 -0.3017
 5313TIP3    H137430   6.751   0.144   0.807 -0.8004 -0.7495  0.1336
 5313TIP3    H237431   6.675   0.059   0.707  0.3252 -2.2972  0.5690
 5314TIP3   OH237432   4.645   0.718   0.995  0.3893  0.4750  0.2954
 5314TIP3    H137433   4.716   0.660   1.023  0.3357  1.1844  1.9721
 5314TIP3    H237434   4.673   0.805   1.025 -0.5767  0.9654 -0.2111
 5315TIP3   OH237435   0.508   1.931  12.190  0.4381 -0.2643 -0.2001
 5315TIP3    H137436   0.547   1.985  12.121  0.7531  0.9535  0.9166
 5315TIP3    H237437   0.433   1.982  12.221  0.0033 -1.0346  0.0323
 5316TIP3   OH237438   2.394   4.865   6.356 -0.0351  0.0147 -0.2736
 5316TIP3    H137439   2.322   4.877   6.294  0.4827 -0.1299 -0.9093
 5316TIP3    H237440   2.360   4.803   6.420 -1.2386  1.6014  0.6506
 5317TIP3   OH237441   4.745   5.655  13.899  0.1326 -0.4492  0.4186
 5317TIP3    H137442   4.701   5.738  13.882  1.0186  0.0594  0.5940
 5317TIP3    H237443   4.689   5.589  13.859 -1.0293  0.1454  1.0423
 5318TIP3   OH237444   2.689   1.751  16.911  0.4220  0.2709  0.7483
 5318TIP3    H137445   2.605   1.746  16.957  0.4852 -1.4289  0.7094
 5318TIP3    H237446   2.700   1.665  16.871  1.3251  1.0652 -0.7758
 5319TIP3   OH237447   1.824   1.956  12.517  0.3755 -0.0498  0.6265
 5319TIP3    H137448   1.730   1.965  12.499  0.3640 -0.6889  0.3742
 5319TIP3    H237449   1.835   1.993  12.605 -0.2941 -0.9702  1.0994
 5320TIP3   OH237450   0.728   0.050   2.312 -0.0187 -0.2173  0.4463
 5320TIP3    H137451   0.679  -0.009   2.369 -1.3465  0.7433  0.3281
 5320TIP3    H237452   0.780   0.104   2.372  1.4058 -1.6651  0.5384
 5321TIP3   OH237453   5.091   2.483  16.943  0.1173 -0.0396  0.0149
 5321TIP3    H137454   5.081   2.516  16.854  1.2719  0.7254  0.1661
 5321TIP3    H237455   5.004   2.494  16.982  0.2496  1.9495 -0.2234
 5322TIP3   OH237456   6.667   2.552   5.077 -0.1363  0.7194 -0.4613
 5322TIP3    H137457   6.743   2.576   5.131  0.5911 -2.3882  0.0429
 5322TIP3    H237458   6.595   2.546   5.139 -0.0736  0.5742 -0.4007
 5323TIP3   OH237459   4.646   4.925   4.606 -0.2718 -0.5746 -0.1501
 5323TIP3    H137460   4.717   4.984   4.632 -1.6489  0.4044  1.4644
 5323TIP3    H237461   4.683   4.875   4.533  1.2171  1.6988 -1.0254
 5324TIP3   OH237462   1.451   0.448   3.344  0.2547 -0.2402  0.4545
 5324TIP3    H137463   1.517   0.391   3.384  0.4001  0.0019  0.5653
 5324TIP3    H237464   1.426   0.508   3.414 -0.3153 -0.5306  0.5031
 5325TIP3   OH237465   3.264   6.182  10.543  0.1455  0.0009 -0.7344
 5325TIP3    H137466   3.233   6.262  10.500  0.9943 -0.5372 -2.3760
 5325TIP3    H237467   3.258   6.202  10.637 -1.9174  1.1179 -1.0672
 5326TIP3   OH237468   5.748   5.576  10.797 -0.5687 -0.1826  0.1026
 5326TIP3    H137469   5.829   5.549  10.840 -1.1197  0.5129  1.6215
 5326TIP3    H237470   5.735   5.667  10.825 -1.8191 -0.2612 -0.1836
 5327TIP3   OH237471   2.274   1.590  12.226 -1.0173 -0.1265  0.4986
 5327TIP3    H137472   2.266   1.627  12.139 -1.9027  0.3932  0.7902
 5327TIP3    H237473   2.194   1.617  12.271 -2.3707 -3.5068  0.2994
 5328TIP3   OH237474   5.354   0.258   2.096  0.0306  0.0130  0.0687
 5328TIP3    H137475   5.314   0.187   2.045 -0.0240 -0.0430  0.1897
 5328TIP3    H237476   5.391   0.317   2.030 -1.2149  0.6439 -0.0771
 5329TIP3   OH237477   5.831   3.408  14.494  0.9540 -0.1715 -0.2872
 5329TIP3    H137478   5.762   3.351  14.461 -0.1284  1.4888 -0.9941
 5329TIP3    H237479   5.867   3.449  14.416  0.4672  1.4744  0.3255
 5330TIP3   OH237480   1.900   3.391   2.082  0.0887  0.0252 -0.3984
 5330TIP3    H137481   1.853   3.362   2.160  1.7554 -0.6666  0.3935
 5330TIP3    H237482   1.845   3.365   2.009 -1.1648  0.0444  0.5156
 5331TIP3   OH237483   0.636   4.624   2.640  0.4683  0.6215  0.3032
 5331TIP3    H137484   0.569   4.584   2.584 -0.7273  0.5563  1.7322
 5331TIP3    H237485   0.662   4.554   2.700  2.1478  0.5273 -0.4973
 5332TIP3   OH237486   4.077   2.391   2.677 -0.0070 -0.2679  0.5254
 5332TIP3    H137487   4.020   2.378   2.752 -0.9229  0.4360 -0.0335
 5332TIP3    H237488   4.094   2.302   2.644  0.4937 -0.5787  1.6236
 5333TIP3   OH237489   6.394   3.124  11.766 -0.2539 -0.0482  0.1162
 5333TIP3    H137490   6.412   3.035  11.794  0.4499  0.0695  0.0489
 5333TIP3    H237491   6.338   3.160  11.835 -0.3138 -0.4563  0.2792
 5334TIP3   OH237492   4.276   0.556  12.903  0.5255 -0.3762 -0.5187
 5334TIP3    H137493   4.265   0.563  12.809  1.0157 -0.9283 -0.6217
 5334TIP3    H237494   4.294   0.463  12.918  0.2635 -0.3258  0.1347
 5335TIP3   OH237495   3.489   0.049  17.098  0.3069 -0.4878 -0.5815
 5335TIP3    H137496   3.461   0.101  17.173 -2.1004 -1.3256 -0.8516
 5335TIP3    H237497   3.459  -0.040  17.118  2.0620 -1.2588 -1.3019
 5336TIP3   OH237498   6.149   4.408   5.227 -0.0277 -0.5512 -0.1513
 5336TIP3    H137499   6.056   4.418   5.246  0.2143 -0.1776  0.8848
 5336TIP3    H237500   6.168   4.316   5.249  0.2701 -0.0966  1.5633
 5337TIP3   OH237501   3.808   1.072  11.190  0.0262 -0.1724  0.3565
 5337TIP3    H137502   3.892   1.079  11.235  0.6368  1.3762 -0.9424
 5337TIP3    H237503   3.749   1.128  11.240 -0.1367 -0.9897  1.0751
 5338TIP3   OH237504   6.050   4.412   2.411  0.5033 -0.6739 -0.3459
 5338TIP3    H137505   5.970   4.362   2.428  0.0519  0.7532  1.9610
 5338TIP3    H237506   6.031   4.460   2.331 -1.5053  0.6426  0.8489
 5339TIP3   OH237507   0.262   5.380  16.889 -0.1896  0.3015 -0.1280
 5339TIP3    H137508   0.262   5.354  16.982  0.7782  0.1366 -0.1706
 5339TIP3    H237509   0.257   5.298  16.841  2.2695  0.1784 -0.2576
 5340TIP3   OH237510   4.329   3.818   4.605 -0.0850 -0.3229 -0.0568
 5340TIP3    H137511   4.424   3.827   4.614  0.1955 -0.5859 -2.4632
 5340TIP3    H237512   4.294   3.896   4.648  1.3126  0.6196 -0.5571
 5341TIP3   OH237513   6.202   0.712  12.611  0.0910 -0.0330 -0.3128
 5341TIP3    H137514   6.107   0.703  12.623 -0.2206  1.3519 -1.5592
 5341TIP3    H237515   6.214   0.804  12.587  1.6270 -0.4993 -1.3793
 5342TIP3   OH237516   3.842   6.229  14.867 -0.0887 -0.1087  0.3567
 5342TIP3    H137517   3.774   6.285  14.829  1.0305 -0.3883 -2.1259
 5342TIP3    H237518   3.799   6.187  14.942 -2.0947  1.1113 -0.0782
 5343TIP3   OH237519   2.556   1.244  14.856  0.2564  0.2142 -0.0257
 5343TIP3    H137520   2.492   1.199  14.800  0.1348 -0.6699  0.7996
 5343TIP3    H237521   2.513   1.248  14.941  0.8345  0.6744  0.2432
 5344TIP3   OH237522   5.567   5.615   3.195  0.1766 -0.3814 -0.5012
 5344TIP3    H137523   5.511   5.691   3.206  1.3057  0.2552  1.1489
 5344TIP3    H237524   5.655   5.651   3.184  0.7341 -1.4250  0.3707
 5345TIP3   OH237525   3.848   0.646  12.130  0.3503  0.5735 -0.0537
 5345TIP3    H137526   3.867   0.739  12.123  1.0277  0.5417  1.1379
 5345TIP3    H237527   3.796   0.626  12.052  0.0161  1.9801 -0.2093
 5346TIP3   OH237528   0.938   1.526  16.191 -0.2820  0.8525  0.2265
 5346TIP3    H137529   0.980   1.564  16.268 -0.2858 -0.5442  0.9216
 5346TIP3    H237530   1.008   1.518  16.126 -0.1853  1.6167  0.2378
 5347TIP3   OH237531   6.530   5.267   2.755 -0.0922 -0.0125  0.1349
 5347TIP3    H137532   6.609   5.216   2.766  0.5258  1.2592  1.8226
 5347TIP3    H237533   6.548   5.323   2.679 -0.4906 -1.7258 -1.2471
 5348TIP3   OH237534   4.050   4.914  13.911 -0.2009  0.5315  0.0331
 5348TIP3    H137535   4.007   4.838  13.872 -0.8461 -0.2225  2.1816
 5348TIP3    H237536   4.105   4.949  13.840 -0.4640 -1.4723 -1.1991
 5349TIP3   OH237537   3.044   2.211  15.942  0.4262  0.0227  0.3543
 5349TIP3    H137538   3.065   2.118  15.944 -2.1909 -0.6067 -0.0325
 5349TIP3    H237539   3.129   2.255  15.935  1.6607 -2.3307  0.2593
 5350TIP3   OH237540   3.617   4.989  12.576  0.0474 -0.2151 -0.4281
 5350TIP3    H137541   3.705   5.026  12.585  0.3217 -0.8096 -0.6790
 5350TIP3    H237542   3.566   5.033  12.644  0.7748 -0.5828  0.3560
 5351TIP3   OH237543   3.921   3.155   2.803 -0.0085 -0.0367  0.5555
 5351TIP3    H137544   3.902   3.062   2.787 -1.9776  0.2787  0.9420
 5351TIP3    H237545   3.979   3.180   2.731 -1.4325 -0.9582 -0.9460
 5352TIP3   OH237546   5.140   3.264   3.235  0.1788 -0.2714  0.4286
 5352TIP3    H137547   5.199   3.215   3.293 -1.8032 -1.0437  1.8735
 5352TIP3    H237548   5.072   3.299   3.294 -1.7407 -0.8426 -1.3745
 5353TIP3   OH237549   4.489   4.421   5.612 -0.1258 -0.1487 -0.2041
 5353TIP3    H137550   4.396   4.442   5.603 -0.6353 -1.0873  2.3970
 5353TIP3    H237551   4.495   4.373   5.694  2.4012 -1.7295 -1.2384
 5354TIP3   OH237552   6.183   5.906   2.651 -0.1298  0.1672  0.3082
 5354TIP3    H137553   6.223   5.826   2.685 -0.4816  1.3565  3.7235
 5354TIP3    H237554   6.113   5.876   2.593  1.6295 -1.9385 -0.8420
 5355TIP3   OH237555   5.934   2.825   2.014 -0.0612  0.2367  0.0822
 5355TIP3    H137556   5.881   2.839   2.092  1.2683  0.8794  0.9034
 5355TIP3    H237557   6.012   2.778   2.046 -0.6463 -1.7260 -1.2852
 5356TIP3   OH237558   5.156   5.971  16.146  0.4081 -0.0044  0.4612
 5356TIP3    H137559   5.219   5.912  16.188  1.2183 -0.7864 -1.7617
 5356TIP3    H237560   5.168   6.055  16.190  2.1704 -0.4537  0.8515
 5357TIP3   OH237561   5.801   5.044   3.597  0.4100 -0.1772  0.4279
 5357TIP3    H137562   5.762   4.958   3.613  1.0941 -1.1674 -2.8922
 5357TIP3    H237563   5.889   5.025   3.566  1.3308  1.8285  1.7664
 5358TIP3   OH237564   4.784   6.543  13.928  0.4485  0.2860  0.1180
 5358TIP3    H137565   4.692   6.532  13.906  0.3900  0.9818 -0.0087
 5358TIP3    H237566   4.784   6.563  14.021  0.3346  1.9596 -0.2279
 5359TIP3   OH237567   3.171   3.395  17.170 -0.1959 -0.3774 -0.3133
 5359TIP3    H137568   3.201   3.392  17.079  1.2813  0.9015  0.1169
 5359TIP3    H237569   3.082   3.358  17.167 -0.1152 -0.4707 -2.2453
 5360TIP3   OH237570   0.523   3.688   4.952  0.2982 -0.3647  0.5184
 5360TIP3    H137571   0.480   3.664   5.034 -0.8117  2.0549  0.6909
 5360TIP3    H237572   0.538   3.782   4.959 -0.8909  0.1066 -2.5533
 5361TIP3   OH237573   5.471   4.019   5.512  0.0091  0.1386 -0.4829
 5361TIP3    H137574   5.520   3.944   5.478  1.4885  0.3478  1.1089
 5361TIP3    H237575   5.381   3.986   5.523  0.8496 -1.7253  1.1476
 5362TIP3   OH237576   6.604   0.402   5.709  0.3683  0.5930 -0.4043
 5362TIP3    H137577   6.532   0.445   5.663  1.1918  0.8209 -1.4995
 5362TIP3    H237578   6.593   0.309   5.689 -0.5965  0.4320  0.8180
 5363TIP3   OH237579   0.591   5.688   2.489 -0.0424  0.3473 -0.9585
 5363TIP3    H137580   0.612   5.667   2.398 -1.1143  1.6494 -1.5033
 5363TIP3    H237581   0.498   5.667   2.498  0.1329 -0.0612 -0.0792
 5364TIP3   OH237582   1.362   4.291  13.566 -0.6082  0.0678  0.4941
 5364TIP3    H137583   1.305   4.267  13.493  0.3321  0.0002 -0.2397
 5364TIP3    H237584   1.385   4.382  13.549  0.3984 -0.2360  0.1522
 5365TIP3   OH237585   0.641   6.091   2.081  0.0589 -0.6405 -0.2633
 5365TIP3    H137586   0.699   6.081   2.006 -0.5597 -4.1071 -0.3724
 5365TIP3    H237587   0.701   6.093   2.157  0.4875 -0.9243 -0.5915
 5366TIP3   OH237588   0.189   1.376  14.760 -0.1395  0.6501  0.1685
 5366TIP3    H137589   0.169   1.468  14.775 -1.5669  0.7252 -1.8935
 5366TIP3    H237590   0.132   1.328  14.820  0.7209  1.1087  1.3556
 5367TIP3   OH237591   4.078   3.521  13.905 -0.2717  0.0094  0.3190
 5367TIP3    H137592   4.010   3.583  13.930 -0.0593  0.9286 -1.3272
 5367TIP3    H237593   4.033   3.457  13.849  0.2507  0.7562 -0.9723
 5368TIP3   OH237594   1.529   0.828  16.874  0.3355 -0.1078 -0.0805
 5368TIP3    H137595   1.572   0.751  16.909 -2.4058 -2.3054 -1.3295
 5368TIP3    H237596   1.477   0.862  16.947  0.4697 -0.2829  0.0950
 5369TIP3   OH237597   4.075   4.983   2.136 -0.3286  0.3210  0.0007
 5369TIP3    H137598   4.035   4.927   2.202  0.5640 -0.8356 -0.4395
 5369TIP3    H237599   4.003   5.037   2.103 -1.1473 -0.4442  0.5394
 5370TIP3   OH237600   5.810   1.259  11.732 -0.2078 -0.6774 -0.1916
 5370TIP3    H137601   5.905   1.267  11.735 -0.2019 -0.8098 -0.0333
 5370TIP3    H237602   5.795   1.168  11.707 -0.2995 -0.8199  0.3836
 5371TIP3   OH237603   0.532   4.068   1.858  0.8052 -0.6112 -0.1195
 5371TIP3    H137604   0.588   4.121   1.802  1.8939 -1.0565  0.5297
 5371TIP3    H237605   0.467   4.030   1.798  1.2302 -0.1431 -0.8824
 5372TIP3   OH237606   2.130   4.908   6.283  0.1255  0.7840  0.5706
 5372TIP3    H137607   2.041   4.877   6.271  0.9860 -1.9000  0.6773
 5372TIP3    H237608   2.129   4.951   6.369 -1.3089  1.8201  0.0498
 5373TIP3   OH237609   6.074   3.469  16.380  0.1295  0.4393 -0.1556
 5373TIP3    H137610   6.097   3.551  16.424  1.2238  1.0422 -1.7737
 5373TIP3    H237611   5.979   3.464  16.387  0.1565  1.2368  1.0084
 5374TIP3   OH237612   2.055   0.107  15.818  0.3690 -0.0490 -0.0058
 5374TIP3    H137613   2.086   0.156  15.742  3.2061 -1.2664  0.2991
 5374TIP3    H237614   2.074   0.163  15.893  0.7387 -0.3039  0.0905
 5375TIP3   OH237615   6.291   3.865  12.500  0.2669  0.0441 -0.3684
 5375TIP3    H137616   6.248   3.795  12.550  1.7162 -1.6511 -1.4619
 5375TIP3    H237617   6.380   3.833  12.486  0.7316  1.8069 -1.5207
 5376TIP3   OH237618   5.507   6.734   5.661 -0.4735 -0.3509  0.3216
 5376TIP3    H137619   5.532   6.779   5.580 -0.2522  1.2888  1.2732
 5376TIP3    H237620   5.424   6.776   5.687 -2.2755 -3.0927 -0.7501
 5377TIP3   OH237621   2.371   5.447   1.543  0.4615 -0.1233  0.1526
 5377TIP3    H137622   2.345   5.375   1.600  1.2124 -0.5484 -0.0378
 5377TIP3    H237623   2.455   5.476   1.576  0.3762  0.3688 -0.0531
 5378TIP3   OH237624   2.505   6.484  11.936  0.3352 -0.3231  0.5230
 5378TIP3    H137625   2.562   6.407  11.935  3.1904  1.6726  1.0687
 5378TIP3    H237626   2.514   6.521  11.848 -1.1613 -0.7080  0.2039
 5379TIP3   OH237627   1.106   1.985   2.903  0.1969 -0.1386  0.3365
 5379TIP3    H137628   1.178   1.923   2.892 -1.7435 -2.3776 -0.1739
 5379TIP3    H237629   1.069   1.962   2.988 -1.8556 -1.1380 -0.8007
 5380TIP3   OH237630   5.919   5.459  14.268  0.8008 -0.3951  0.4057
 5380TIP3    H137631   5.870   5.520  14.323  0.4420 -1.3326  1.1405
 5380TIP3    H237632   5.855   5.392  14.245  1.6201 -1.3791  0.9806
 5381TIP3   OH237633   4.081   5.275  16.132  0.3055  0.2895  0.5478
 5381TIP3    H137634   4.147   5.211  16.104  1.4477  1.6927 -0.0384
 5381TIP3    H237635   4.018   5.277  16.061  1.3936  1.3443 -0.4037
 5382TIP3   OH237636   5.672   2.955  11.338  0.2785  0.4484  0.0985
 5382TIP3    H137637   5.610   2.994  11.399 -1.4068 -0.9513 -0.6689
 5382TIP3    H237638   5.656   3.002  11.255 -0.1322 -0.2700 -0.2335
 5383TIP3   OH237639   2.168   2.135  16.765  0.2256 -0.1864  0.8800
 5383TIP3    H137640   2.138   2.120  16.854 -0.4916 -0.2561  0.6240
 5383TIP3    H237641   2.261   2.111  16.767 -0.0626 -1.2807  1.3278
 5384TIP3   OH237642   0.499   3.090  11.103  0.5723 -0.6337  0.5100
 5384TIP3    H137643   0.489   3.121  11.013  2.6705 -1.2445  0.0565
 5384TIP3    H237644   0.410   3.063  11.129 -0.3274  0.9266 -0.8439
 5385TIP3   OH237645   2.791   3.829  16.384 -0.1631 -0.4007 -0.7134
 5385TIP3    H137646   2.866   3.837  16.325  0.5851  1.0986  0.4035
 5385TIP3    H237647   2.720   3.877  16.341 -0.3000 -1.2605 -1.4583
 5386TIP3   OH237648   5.150   4.307  10.989 -0.2781  0.1840 -0.5399
 5386TIP3    H137649   5.165   4.216  11.015  2.2074  0.3918 -1.1633
 5386TIP3    H237650   5.104   4.301  10.906  1.0869 -0.5315 -1.2581
 5387TIP3   OH237651   5.929   0.154  12.512 -0.3819 -0.4783  0.2817
 5387TIP3    H137652   5.963   0.096  12.444 -1.7119  0.2971 -1.0794
 5387TIP3    H237653   5.956   0.242  12.485 -1.7358 -0.0646  0.2299
 5388TIP3   OH237654   5.102   1.958   6.291  0.1204 -0.0533  0.0160
 5388TIP3    H137655   5.119   1.867   6.267 -1.6158 -0.2963 -0.3804
 5388TIP3    H237656   5.024   1.982   6.241 -1.2889  0.6713  2.4405
 5389TIP3   OH237657   5.923   4.729  14.554  0.7054  0.7608 -0.5689
 5389TIP3    H137658   6.004   4.702  14.510  2.4653  1.9865  1.7529
 5389TIP3    H237659   5.892   4.650  14.598  1.6161  0.6807 -0.0521
 5390TIP3   OH237660   3.728   3.123   4.725 -0.1562 -0.0338 -0.5256
 5390TIP3    H137661   3.668   3.054   4.754 -0.0265 -0.2835 -0.8501
 5390TIP3    H237662   3.706   3.198   4.780 -1.0690  0.0113 -0.9482
 5391TIP3   OH237663   5.922   6.552  13.349  0.4977 -0.0922  0.2042
 5391TIP3    H137664   5.910   6.503  13.430  0.0369 -1.2597 -0.5541
 5391TIP3    H237665   6.009   6.528  13.318 -0.0932 -1.1581 -0.6465
 5392TIP3   OH237666   4.937   0.483  16.250  0.2149 -0.5808 -0.2407
 5392TIP3    H137667   5.016   0.528  16.278 -0.4731  2.0043 -2.2543
 5392TIP3    H237668   4.875   0.553  16.230 -1.7417 -2.4905 -1.0978
 5393TIP3   OH237669   6.706   0.719  10.785  0.3327  0.4642  0.3830
 5393TIP3    H137670   6.678   0.795  10.836 -0.8894  0.9223 -0.9536
 5393TIP3    H237671   6.625   0.673  10.764  0.9149 -0.2634 -0.3177
 5394TIP3   OH237672   0.888   5.698   4.323 -0.1027 -0.2377  0.1923
 5394TIP3    H137673   0.888   5.714   4.418 -1.6376  1.5070 -0.0710
 5394TIP3    H237674   0.938   5.771   4.287 -0.9704  0.0458 -0.4595
 5395TIP3   OH237675   1.376   5.743  12.408 -0.2070 -0.0440 -0.0410
 5395TIP3    H137676   1.298   5.730  12.463 -0.9649  0.5675 -0.9468
 5395TIP3    H237677   1.387   5.838  12.406 -0.6497 -0.0175 -1.5737
 5396TIP3   OH237678   6.161   1.633  12.871 -0.3092  0.2158  0.0975
 5396TIP3    H137679   6.142   1.543  12.897 -1.1408  0.2133 -0.4801
 5396TIP3    H237680   6.135   1.686  12.946 -0.4612  0.0309  0.1760
 5397TIP3   OH237681   3.269   0.632  14.391  0.0185 -0.2082  0.2787
 5397TIP3    H137682   3.365   0.638  14.396  0.1312 -2.2507  1.0418
 5397TIP3    H237683   3.239   0.722  14.399  1.8398  0.3264  1.4267
 5398TIP3   OH237684   4.478   3.078  15.322  0.3791  0.1362  0.2425
 5398TIP3    H137685   4.400   3.129  15.303  2.2558  2.4839 -1.4759
 5398TIP3    H237686   4.464   2.994  15.278 -1.2095  0.4767  0.0870
 5399TIP3   OH237687   0.741   4.417   5.132 -0.2579  0.8876 -0.1318
 5399TIP3    H137688   0.801   4.346   5.113  0.1492  0.5232  2.3097
 5399TIP3    H237689   0.798   4.490   5.158 -0.7301  1.7152 -1.3615
 5400TIP3   OH237690   0.791   0.824  15.452 -0.4410  0.6255  0.1497
 5400TIP3    H137691   0.879   0.855  15.470 -0.6223  1.1330  0.1560
 5400TIP3    H237692   0.745   0.832  15.536 -0.9845  1.9906 -0.2693
 5401TIP3   OH237693   5.280   0.322   0.557  0.4536 -0.2476 -0.4519
 5401TIP3    H137694   5.352   0.333   0.496 -0.2771  1.9563 -0.9487
 5401TIP3    H237695   5.307   0.369   0.636  1.5509 -3.3615  1.1389
 5402TIP3   OH237696   5.495   5.569   6.295 -0.2245 -0.4319 -0.0412
 5402TIP3    H137697   5.551   5.542   6.222  0.8123 -1.4128  1.1120
 5402TIP3    H237698   5.540   5.645   6.332  1.8850 -2.9154  2.6524
 5403TIP3   OH237699   1.064   0.836  15.526 -0.5183  0.3489  0.3294
 5403TIP3    H137700   1.048   0.758  15.581 -0.5377  0.8358  1.0214
 5403TIP3    H237701   1.129   0.887  15.575  0.2114  0.3084 -0.5828
 5404TIP3   OH237702   0.405   2.315  14.168  1.0055 -0.3704  0.1096
 5404TIP3    H137703   0.312   2.328  14.189  1.8640  0.7186  3.5564
 5404TIP3    H237704   0.406   2.237  14.112 -1.9345 -0.5913  0.2520
 5405TIP3   OH237705   3.293   0.655   1.975 -0.1204 -0.6592 -0.9749
 5405TIP3    H137706   3.330   0.584   2.029  0.3205 -0.4088 -0.9480
 5405TIP3    H237707   3.276   0.725   2.038 -0.2469 -0.6198 -1.0548
 5406TIP3   OH237708   3.509   5.210  15.415 -0.4176  0.0133 -0.2125
 5406TIP3    H137709   3.545   5.267  15.483 -0.4690 -1.3409  0.9747
 5406TIP3    H237710   3.414   5.216  15.427 -0.3829 -1.9303  1.3052
 5407TIP3   OH237711   2.516   0.098  16.890  0.5550 -0.0760  0.5608
 5407TIP3    H137712   2.525   0.005  16.913 -0.4385  0.1946  2.1290
 5407TIP3    H237713   2.425   0.109  16.866  0.7014  0.4678  0.2407
 5408TIP3   OH237714   1.232   6.707   2.260 -0.1179 -0.2978  0.0248
 5408TIP3    H137715   1.272   6.749   2.184 -1.2396  0.1702 -0.3208
 5408TIP3    H237716   1.241   6.771   2.330 -1.8809  0.5781 -0.5161
 5409TIP3   OH237717   6.355   2.698   0.084 -0.3368 -0.1474  0.0583
 5409TIP3    H137718   6.406   2.776   0.107 -1.4577  0.0626  2.0112
 5409TIP3    H237719   6.279   2.732   0.037  0.3219 -0.2736 -1.0956
 5410TIP3   OH237720   2.194   6.246   2.073 -0.9117 -0.0744  0.2824
 5410TIP3    H137721   2.128   6.287   2.129 -1.0327 -0.9795  0.8226
 5410TIP3    H237722   2.197   6.155   2.104  0.5864 -0.0356  0.2588
 5411TIP3   OH237723   4.152   6.129  16.031  0.1454 -0.2100 -0.2021
 5411TIP3    H137724   4.130   6.126  15.938  0.4653  1.3929 -0.3476
 5411TIP3    H237725   4.109   6.209  16.063 -1.3759 -1.6283  1.4013
 5412TIP3   OH237726   4.659   2.101  14.641 -0.7847 -0.1771  0.3099
 5412TIP3    H137727   4.607   2.133  14.715  0.9956  1.8384  0.7282
 5412TIP3    H237728   4.660   2.174  14.579 -0.1707 -0.9545 -0.6048
 5413TIP3   OH237729   0.997   4.915   3.390  0.2318 -0.1171 -0.1437
 5413TIP3    H137730   1.078   4.967   3.384  1.1091 -1.2291  1.4923
 5413TIP3    H237731   0.940   4.966   3.447  0.3684 -0.0479 -0.0679
 5414TIP3   OH237732   2.968   2.672   4.848  0.3245  0.8551 -0.3365
 5414TIP3    H137733   2.964   2.643   4.757 -1.7254 -1.0527  0.3137
 5414TIP3    H237734   2.881   2.652   4.883  0.9306  2.0176  1.8990
 5415TIP3   OH237735   0.710   1.913  10.581  0.3106 -0.0534  0.7434
 5415TIP3    H137736   0.685   1.820  10.577 -0.6242  0.1190  2.1246
 5415TIP3    H237737   0.655   1.949  10.651  2.9730  0.8293  2.4650
 5416TIP3   OH237738   0.548   6.502  12.112 -0.1078 -0.0802 -0.0783
 5416TIP3    H137739   0.456   6.514  12.086  0.0761 -0.3573 -0.8709
 5416TIP3    H237740   0.578   6.428  12.059 -0.2028 -1.7993  2.1342
 5417TIP3   OH237741   4.323   1.506  15.979  0.5739 -0.0521  0.2177
 5417TIP3    H137742   4.338   1.475  15.890 -2.0394  0.8808 -0.6088
 5417TIP3    H237743   4.342   1.431  16.035 -1.7370 -1.9447 -1.4364
 5418TIP3   OH237744   3.477   4.049   1.451 -0.1548  0.1146 -0.1559
 5418TIP3    H137745   3.451   3.957   1.454  0.2997 -0.0096  0.1303
 5418TIP3    H237746   3.422   4.092   1.516  1.4166 -0.4268  1.5873
 5419TIP3   OH237747   3.528   4.265   0.483 -0.3387 -0.8440  0.3307
 5419TIP3    H137748   3.529   4.170   0.495 -1.2873 -1.0129 -0.8777
 5419TIP3    H237749   3.444   4.293   0.519  0.1337 -0.4075  1.0926
 5420TIP3   OH237750   5.073   0.971  11.474  0.8871 -0.1171 -0.5543
 5420TIP3    H137751   4.982   0.979  11.447  1.0152  1.2918 -0.6260
 5420TIP3    H237752   5.086   1.043  11.537  1.9799 -0.2126 -0.6532
 5421TIP3   OH237753   5.048   3.986   0.505 -0.1885 -0.2163 -0.3087
 5421TIP3    H137754   5.134   3.949   0.524  0.3848  1.2801  0.0724
 5421TIP3    H237755   5.010   4.005   0.590 -0.2621  0.5409 -0.5057
 5422TIP3   OH237756   3.742   4.714  10.138  0.1647 -0.7841  0.5990
 5422TIP3    H137757   3.824   4.665  10.137  0.5175 -0.2023  0.6065
 5422TIP3    H237758   3.769   4.805  10.147 -0.4620 -0.5443  0.1035
 5423TIP3   OH237759   6.682   2.021  15.839  0.7101 -0.1627  0.1581
 5423TIP3    H137760   6.773   2.013  15.867  0.5186  0.2321  0.9279
 5423TIP3    H237761   6.661   2.114  15.854  0.2940 -0.1717 -0.3627
 5424TIP3   OH237762   6.099   6.425   0.206 -0.3582  0.0009 -1.1357
 5424TIP3    H137763   6.057   6.465   0.282  0.2222  0.5322 -1.0977
 5424TIP3    H237764   6.076   6.332   0.213  0.0126 -0.0118 -0.1065
 5425TIP3   OH237765   2.587   3.853   3.279  0.2411 -0.4405 -0.2748
 5425TIP3    H137766   2.648   3.887   3.345  0.4031  1.1900 -1.2529
 5425TIP3    H237767   2.640   3.793   3.226  0.7868  0.3190 -0.5941
 5426TIP3   OH237768   0.607   0.596  15.926  0.0103  0.1143 -0.0613
 5426TIP3    H137769   0.654   0.658  15.983  0.7161  0.9859 -1.5647
 5426TIP3    H237770   0.675   0.535  15.897 -0.4052 -0.4929  0.2318
 5427TIP3   OH237771   1.210   1.932  14.657 -0.3266 -0.1011  0.0366
 5427TIP3    H137772   1.300   1.953  14.680 -0.1709 -0.9519  0.2400
 5427TIP3    H237773   1.158   1.967  14.729 -0.0930 -0.1937  0.2525
 5428TIP3   OH237774   5.456   0.868   5.956 -0.1844 -0.3886 -0.3224
 5428TIP3    H137775   5.464   0.916   6.039 -0.6252 -0.6622 -0.1197
 5428TIP3    H237776   5.546   0.841   5.936 -0.2346 -1.3120  0.6692
 5429TIP3   OH237777   1.740   5.775  15.457  0.3076  0.7726  0.4626
 5429TIP3    H137778   1.750   5.829  15.535  2.4881 -0.4377  1.0659
 5429TIP3    H237779   1.747   5.838  15.384  0.4484  1.6134  1.1907
 5430TIP3   OH237780   3.369   5.849  13.129 -0.2806 -0.9312  0.0284
 5430TIP3    H137781   3.341   5.767  13.088 -1.1422 -0.6669  0.0837
 5430TIP3    H237782   3.294   5.876  13.182  0.3076 -0.5349  0.6620
 5431TIP3   OH237783   2.029   6.094  11.883  0.1823  0.2250  0.6050
 5431TIP3    H137784   2.089   6.153  11.929  0.2445  0.5066  0.1594
 5431TIP3    H237785   2.077   6.012  11.875  1.0193  0.8540 -0.9475
 5432TIP3   OH237786   5.008   0.373   1.473 -0.1117 -0.6090 -0.1818
 5432TIP3    H137787   5.056   0.331   1.402 -0.0386 -0.4156 -0.2448
 5432TIP3    H237788   5.053   0.456   1.488 -1.0197  0.0268 -0.9118
 5433TIP3   OH237789   6.395   6.421   4.855 -0.2465  0.2353 -0.0543
 5433TIP3    H137790   6.448   6.350   4.890 -1.8388 -1.7060 -1.4860
 5433TIP3    H237791   6.310   6.412   4.897 -0.9101  0.3896 -1.3172
 5434TIP3   OH237792   1.106   1.658  10.359  0.2550 -0.4435 -0.0076
 5434TIP3    H137793   1.112   1.641  10.265 -0.6583  2.1534 -0.5632
 5434TIP3    H237794   1.013   1.650  10.379  0.2429  0.5952  0.3569
 5435TIP3   OH237795   1.001   2.139   0.005 -0.3815 -0.2223  0.1897
 5435TIP3    H137796   1.060   2.092  -0.053  0.0829 -1.0761  1.3326
 5435TIP3    H237797   0.917   2.140  -0.042 -0.3974 -2.2021  0.1437
 5436TIP3   OH237798   2.983   0.974  14.256  1.0145 -0.1348  0.1150
 5436TIP3    H137799   2.912   1.030  14.286  2.6418  2.0463  0.0238
 5436TIP3    H237800   2.940   0.892  14.230 -1.5768  1.5157 -1.0023
 5437TIP3   OH237801   6.688   5.647   6.475 -0.1670 -0.4339 -0.7648
 5437TIP3    H137802   6.721   5.699   6.548 -0.7133 -0.9115 -0.1782
 5437TIP3    H237803   6.621   5.591   6.514 -0.7481 -0.3984 -1.7057
 5438TIP3   OH237804   1.128   1.870  14.998 -0.0712 -0.0125 -0.2235
 5438TIP3    H137805   1.189   1.800  15.022 -0.4134  0.0736  0.9017
 5438TIP3    H237806   1.041   1.832  15.013 -0.2586  0.6342  0.3103
 5439TIP3   OH237807   3.566   0.604  15.134  0.2801 -0.3085 -0.4550
 5439TIP3    H137808   3.556   0.621  15.040  1.7267  1.8019 -0.2738
 5439TIP3    H237809   3.504   0.664  15.176  0.9973  0.1414 -0.0156
 5440TIP3   OH237810   4.194   1.281   3.498 -0.0282 -0.3194  0.4792
 5440TIP3    H137811   4.217   1.220   3.568 -0.5582  1.1612  1.9795
 5440TIP3    H237812   4.151   1.227   3.432 -0.1923 -1.6214  1.6261
 5441TIP3   OH237813   2.902   0.685  14.603  0.3691 -0.3913  0.0671
 5441TIP3    H137814   2.892   0.616  14.538  2.6791  0.1616 -0.9085
 5441TIP3    H237815   2.908   0.639  14.686  1.4358 -1.3370 -0.5233
 5442TIP3   OH237816   3.438   5.710  15.737  0.1332 -0.2425  0.1590
 5442TIP3    H137817   3.514   5.697  15.682  0.8684  2.1546  0.5648
 5442TIP3    H237818   3.378   5.639  15.713  2.8993 -2.8332  0.6324
 5443TIP3   OH237819   6.216   1.697  15.868  0.0780 -0.3908  0.6671
 5443TIP3    H137820   6.215   1.648  15.951  1.2760  2.1061  2.2067
 5443TIP3    H237821   6.307   1.690  15.838 -0.2741 -0.9855 -0.2550
 5444TIP3   OH237822   4.989   4.642   4.548 -0.3230 -0.0373  0.1734
 5444TIP3    H137823   5.043   4.652   4.470  0.9505  0.5195  1.1124
 5444TIP3    H237824   5.045   4.669   4.620 -1.2475 -1.2170  1.3659
 5445TIP3   OH237825   4.158   6.756   2.905 -0.0975 -0.2588  0.0224
 5445TIP3    H137826   4.156   6.749   2.809 -1.4390  0.0537  0.0132
 5445TIP3    H237827   4.251   6.754   2.927  0.3672  2.3165 -1.5016
 5446TIP3   OH237828   1.234   6.514  13.780  0.1202  0.2383 -0.2922
 5446TIP3    H137829   1.201   6.517  13.870  0.3704 -0.9660 -0.1630
 5446TIP3    H237830   1.247   6.606  13.757 -1.2547  0.6288  0.4159
 5447TIP3   OH237831   3.480   6.495   3.737 -0.1028  0.0160 -0.2576
 5447TIP3    H137832   3.520   6.415   3.704 -2.3972 -1.2251 -0.1413
 5447TIP3    H237833   3.500   6.561   3.671  1.8681 -0.6216 -0.3141
 5448TIP3   OH237834   2.404   2.264   1.263 -0.2174 -0.0321 -0.1013
 5448TIP3    H137835   2.389   2.281   1.170  1.5148 -1.4119 -0.6613
 5448TIP3    H237836   2.439   2.346   1.297 -0.7047  0.4290 -0.6900
 5449TIP3   OH237837   3.293   6.495  12.401  0.3618 -0.1098 -0.8002
 5449TIP3    H137838   3.225   6.446  12.447 -0.8322  1.3230 -0.9781
 5449TIP3    H237839   3.301   6.450  12.317  0.6020 -1.1007 -0.2556
 5450TIP3   OH237840   1.549   4.161  11.070  0.1252  0.7143  0.4898
 5450TIP3    H137841   1.472   4.218  11.069 -0.1591  0.4008  1.8626
 5450TIP3    H237842   1.512   4.072  11.073  0.5445  0.5304  0.2018
 5451TIP3   OH237843   2.284   6.357   0.576  0.1791  0.2615  0.1859
 5451TIP3    H137844   2.344   6.332   0.646  0.7255  1.4532  0.1639
 5451TIP3    H237845   2.247   6.440   0.606  0.2785  0.6813 -0.8575
 5452TIP3   OH237846   4.413   4.553  14.898 -0.0410 -0.2552  0.2842
 5452TIP3    H137847   4.386   4.568  14.988 -0.9864  0.3306 -0.0939
 5452TIP3    H237848   4.484   4.616  14.883  0.2358 -0.4743  0.6669
 5453TIP3   OH237849   1.710   0.735  14.421  0.3037 -0.6538  0.2932
 5453TIP3    H137850   1.760   0.744  14.502  0.3054  1.9127  0.0238
 5453TIP3    H237851   1.620   0.723  14.449  0.4809 -1.1282  0.6801
 5454TIP3   OH237852   3.038   4.489   3.407 -0.4584  0.1563 -0.5418
 5454TIP3    H137853   3.006   4.575   3.379  0.6454  0.6178 -0.4258
 5454TIP3    H237854   3.117   4.509   3.458 -1.4995 -0.7939  1.4734
 5455TIP3   OH237855   4.411   4.459   1.834 -0.0005  0.1414  0.1648
 5455TIP3    H137856   4.372   4.400   1.769 -0.8705  0.5165  0.3360
 5455TIP3    H237857   4.504   4.459   1.814 -0.2754  0.3200 -1.1216
 5456TIP3   OH237858   1.385   4.164  17.127 -0.0233  0.4271 -0.2502
 5456TIP3    H137859   1.429   4.246  17.150  0.2953 -0.0216  0.7715
 5456TIP3    H237860   1.417   4.101  17.192 -2.7044  0.2528  0.9598
 5457TIP3   OH237861   5.118   0.701  15.932 -0.5395 -0.4984  0.4529
 5457TIP3    H137862   5.152   0.615  15.907 -1.0512 -0.1999 -1.3465
 5457TIP3    H237863   5.027   0.700  15.902  0.0766  1.4775 -1.6909
 5458TIP3   OH237864   3.670   1.480  12.718 -0.1453 -0.1670  0.0854
 5458TIP3    H137865   3.604   1.545  12.740 -0.6282  0.3483 -2.6687
 5458TIP3    H237866   3.649   1.404  12.773 -1.0043  1.1562  1.6143
 5459TIP3   OH237867   1.868   0.467  13.141 -0.2700  0.8700  0.0034
 5459TIP3    H137868   1.956   0.440  13.115 -0.6495  0.1051 -0.5027
 5459TIP3    H237869   1.860   0.439  13.232 -0.7389 -0.9254 -0.5832
 5460TIP3   OH237870   3.728   5.756   1.890 -0.4489  0.0552  0.4934
 5460TIP3    H137871   3.817   5.778   1.862  0.4384 -1.0305  2.3691
 5460TIP3    H237872   3.697   5.834   1.936  0.3394 -0.2821  1.6395
 5461TIP3   OH237873   4.604   1.474   1.054 -0.3345  0.2024  0.0113
 5461TIP3    H137874   4.694   1.505   1.051 -0.3397  0.1318 -1.1725
 5461TIP3    H237875   4.566   1.503   0.971 -1.6386  0.9413  0.8573
 5462TIP3   OH237876   1.446   2.049  14.711  0.3360 -0.3726 -0.4795
 5462TIP3    H137877   1.434   2.144  14.709  0.9839 -0.3077 -1.9379
 5462TIP3    H237878   1.495   2.029  14.631  2.1643 -1.6679  0.9294
 5463TIP3   OH237879   0.254   1.375   1.626  0.0546 -0.3820 -0.2243
 5463TIP3    H137880   0.258   1.408   1.536  1.0282  0.0474 -0.0232
 5463TIP3    H237881   0.256   1.453   1.681 -0.5429 -0.6443  0.1749
 5464TIP3   OH237882   0.744   2.193  12.797 -0.0207  0.0416 -0.7992
 5464TIP3    H137883   0.709   2.278  12.773  0.1014  0.5116  0.6601
 5464TIP3    H237884   0.732   2.139  12.719 -2.8017  0.5480 -0.7618
 5465TIP3   OH237885   2.331   2.790  14.393  0.0413 -0.2737  0.0476
 5465TIP3    H137886   2.260   2.726  14.393 -0.1364 -0.0736  0.6104
 5465TIP3    H237887   2.301   2.860  14.451 -0.7098  1.3983 -2.2815
 5466TIP3   OH237888   0.348   5.094   5.744 -0.3719  0.2372 -0.1785
 5466TIP3    H137889   0.298   5.151   5.802 -2.1074 -0.3857 -1.0289
 5466TIP3    H237890   0.438   5.101   5.776 -0.5412  3.3554 -0.2074
 5467TIP3   OH237891   0.673   4.911  14.453  0.2010 -0.2373  0.1785
 5467TIP3    H137892   0.750   4.931  14.401 -0.3697 -1.4541 -1.1619
 5467TIP3    H237893   0.614   4.864  14.393 -0.2838 -2.0611  1.9998
 5468TIP3   OH237894   2.840   2.422  15.142  0.3656  0.0451 -0.5109
 5468TIP3    H137895   2.876   2.458  15.060  0.4489  2.0597  0.3891
 5468TIP3    H237896   2.806   2.498  15.189 -0.1791 -1.1684  1.0947
 5469TIP3   OH237897   3.681   1.436  14.383  0.4395 -0.2355 -0.2690
 5469TIP3    H137898   3.748   1.377  14.349 -0.0380 -1.5667  1.0473
 5469TIP3    H237899   3.697   1.440  14.477 -0.3438  0.6980 -0.1613
 5470TIP3   OH237900   1.476   3.449   4.457  0.4411 -0.4202 -0.8196
 5470TIP3    H137901   1.489   3.431   4.364  1.3845  1.1538 -1.0071
 5470TIP3    H237902   1.449   3.540   4.461 -4.1343 -1.7126  0.1450
 5471TIP3   OH237903   0.511   4.263  13.987 -0.4851  0.0731  0.5580
 5471TIP3    H137904   0.539   4.308  13.908 -0.1344 -0.1911  0.5312
 5471TIP3    H237905   0.423   4.232  13.967 -0.3703 -0.0531  0.2502
 5472TIP3   OH237906   5.615   1.552  11.741  0.1628  0.1587  0.7767
 5472TIP3    H137907   5.643   1.578  11.653  0.4476 -0.8185  0.5671
 5472TIP3    H237908   5.646   1.622  11.798  0.8453  0.3166  0.2211
 5473TIP3   OH237909   3.937   1.502   0.549 -0.2095 -0.2814 -0.1662
 5473TIP3    H137910   3.988   1.481   0.471 -0.4397 -0.2773 -0.3189
 5473TIP3    H237911   3.897   1.419   0.574  1.0303 -0.5981  0.8023
 5474TIP3   OH237912   2.244   4.243  16.166 -0.0508 -0.0271 -0.0576
 5474TIP3    H137913   2.151   4.230  16.184 -0.1880 -2.0585 -1.9512
 5474TIP3    H237914   2.253   4.336  16.148 -1.4155  0.4743  1.7308
 5475TIP3   OH237915   0.286   3.927  10.937  0.2555  0.0170 -0.2492
 5475TIP3    H137916   0.361   3.932  10.995  0.8852 -2.5064 -0.8282
 5475TIP3    H237917   0.227   3.996  10.968  1.7883  0.4931  1.6360
 5476TIP3   OH237918   3.929   3.745  13.896  0.4910 -0.3062  0.0233
 5476TIP3    H137919   3.975   3.785  13.822 -1.3563 -0.4131 -1.2147
 5476TIP3    H237920   3.837   3.742  13.868  0.0074 -1.7590  1.7105
 5477TIP3   OH237921   4.353   0.385  11.250 -0.0269 -0.3336 -0.3024
 5477TIP3    H137922   4.355   0.362  11.343  1.4406  0.9403 -0.0070
 5477TIP3    H237923   4.266   0.424  11.236  0.3171  0.8615  0.8696
 5478TIP3   OH237924   1.928   3.702   4.644 -0.2940  1.0333 -0.1896
 5478TIP3    H137925   1.861   3.650   4.688  0.5167 -0.5478 -0.8051
 5478TIP3    H237926   2.001   3.641   4.630  0.6870  2.3414 -0.8815
 5479TIP3   OH237927   4.163   6.068   4.102  0.1815  0.3770  0.0527
 5479TIP3    H137928   4.099   6.015   4.150  1.7610 -0.6684  1.0764
 5479TIP3    H237929   4.206   6.121   4.169  0.3016  1.1748 -0.6413
 5480TIP3   OH237930   6.768   3.250   5.169 -0.0304  0.0253 -0.8926
 5480TIP3    H137931   6.723   3.177   5.211  0.6430 -0.9114 -1.7664
 5480TIP3    H237932   6.825   3.208   5.104  1.9918  1.1903  0.0879
 5481TIP3   OH237933   2.489   2.013   5.312  0.4045  0.0689 -0.3432
 5481TIP3    H137934   2.555   2.031   5.245  0.8404 -0.1482  0.0236
 5481TIP3    H237935   2.532   2.036   5.394 -0.7157  1.9521 -0.2721
 5482TIP3   OH237936   3.107   2.986  15.477  0.0408  0.7882 -0.2615
 5482TIP3    H137937   3.157   2.988  15.558 -1.8142 -1.3832  0.9806
 5482TIP3    H237938   3.155   2.926  15.420 -0.4950 -0.3725  0.4982
 5483TIP3   OH237939   0.498   5.709  15.414 -0.8344 -0.2650 -0.0584
 5483TIP3    H137940   0.494   5.777  15.481 -2.5672 -0.2065 -0.1980
 5483TIP3    H237941   0.475   5.629  15.460  0.1978 -0.5926 -0.1096
 5484TIP3   OH237942   2.413   0.334   2.216 -0.1049 -0.0683  0.3312
 5484TIP3    H137943   2.464   0.403   2.173  0.4106 -1.2215 -0.9705
 5484TIP3    H237944   2.379   0.375   2.295  1.0948  1.3559  0.1386
 5485TIP3   OH237945   5.943   2.161  13.756 -0.1289 -0.2004 -0.0442
 5485TIP3    H137946   5.960   2.149  13.662 -1.4132 -0.5643 -0.2397
 5485TIP3    H237947   6.010   2.108  13.799 -0.0647 -0.7186 -0.7662
 5486TIP3   OH237948   5.693   4.936  15.210  0.5572  0.3670 -0.5231
 5486TIP3    H137949   5.704   4.872  15.140  0.1527 -0.8737  0.5120
 5486TIP3    H237950   5.645   4.888  15.279  0.7873  1.5979  0.5231
 5487TIP3   OH237951   0.036   2.948   0.389 -0.3016  0.1714  0.5142
 5487TIP3    H137952   0.004   3.002   0.317 -0.6885  0.9146  1.2355
 5487TIP3    H237953   0.055   2.863   0.349  0.7540  0.9767 -0.7192
 5488TIP3   OH237954   0.270   4.691   6.499  0.4609 -0.3794 -0.1520
 5488TIP3    H137955   0.329   4.744   6.552  0.0753 -0.3482  0.2471
 5488TIP3    H237956   0.265   4.737   6.415 -1.8771  1.6121  1.0260
 5489TIP3   OH237957   2.907   1.234   3.116  0.4273  0.5168  0.0716
 5489TIP3    H137958   2.834   1.228   3.055 -0.3991 -0.5965  1.1358
 5489TIP3    H237959   2.908   1.325   3.145  1.2681  1.2192 -2.1145
 5490TIP3   OH237960   6.608   2.101   5.317 -0.2774 -0.1044  0.1660
 5490TIP3    H137961   6.694   2.136   5.294 -0.9225  1.4139  0.0151
 5490TIP3    H237962   6.597   2.124   5.409  0.7566 -2.9744  1.0397
 5491TIP3   OH237963   5.945   4.320  17.120 -0.0906  1.0250 -0.2296
 5491TIP3    H137964   5.926   4.226  17.128  1.8009  0.5669 -0.7531
 5491TIP3    H237965   5.863   4.359  17.090 -1.5787 -0.1137  2.2117
 5492TIP3   OH237966   5.384   0.218  12.342 -0.4482 -0.5323  0.1179
 5492TIP3    H137967   5.380   0.123  12.332 -1.1703 -0.7519  2.2273
 5492TIP3    H237968   5.429   0.232  12.425 -0.8208  0.9571  0.0941
 5493TIP3   OH237969   3.626   3.112  11.915 -0.0964 -0.0544  0.3508
 5493TIP3    H137970   3.716   3.135  11.892 -0.1248 -0.8852 -0.6370
 5493TIP3    H237971   3.630   3.087  12.007  0.5888  0.4144  0.4504
 5494TIP3   OH237972   4.940   3.870  16.025 -0.3035  0.1205 -0.2144
 5494TIP3    H137973   4.863   3.821  16.055  0.2622 -0.5963  0.0846
 5494TIP3    H237974   5.013   3.809  16.038  0.2860  0.7308 -0.6719
 5495TIP3   OH237975   6.352   2.777  12.244 -0.4457 -0.0556 -0.6467
 5495TIP3    H137976   6.348   2.872  12.232 -0.7113 -0.1256 -1.1418
 5495TIP3    H237977   6.402   2.765  12.324  1.3428  0.4492 -1.6639
 5496TIP3   OH237978   3.332   2.178  11.950 -0.4754  0.2659  0.2802
 5496TIP3    H137979   3.237   2.189  11.946 -0.3555  0.6361 -1.6136
 5496TIP3    H237980   3.358   2.159  11.860  1.1495 -0.7423  0.9418
 5497TIP3   OH237981   1.243   6.532  10.772  0.6850  0.1452 -0.0741
 5497TIP3    H137982   1.241   6.467  10.842  0.5658 -0.4465 -0.6247
 5497TIP3    H237983   1.153   6.564  10.766  0.4188 -0.7516 -0.8436
 5498TIP3   OH237984   2.827   3.998  10.936 -0.1691  0.2920  0.1571
 5498TIP3    H137985   2.846   3.917  10.890 -2.1590 -1.8086  2.7968
 5498TIP3    H237986   2.794   4.057  10.869  0.4026 -1.4181 -1.6715
 5499TIP3   OH237987   2.106   2.083   2.484  0.5781 -0.6656  0.8524
 5499TIP3    H137988   2.123   2.038   2.567  0.8834 -0.2596  1.0138
 5499TIP3    H237989   2.055   2.021   2.432  0.0444 -0.7764  1.5018
 5500TIP3   OH237990   4.596   5.216  13.567 -0.4774  0.1920  0.0258
 5500TIP3    H137991   4.522   5.274  13.578 -1.6290 -1.1773 -0.3852
 5500TIP3    H237992   4.558   5.129  13.560  1.2640 -0.7458  1.6666
 5501TIP3   OH237993   0.589   3.196  13.533 -0.3567  0.5485  0.3234
 5501TIP3    H137994   0.559   3.181  13.444  1.6188  2.5699 -0.7428
 5501TIP3    H237995   0.533   3.267  13.566 -1.3727 -0.4925  0.8660
 5502TIP3   OH237996   5.638   4.111  12.172  0.2265 -0.3190  0.5547
 5502TIP3    H137997   5.730   4.112  12.148  0.4128  0.7004  1.2885
 5502TIP3    H237998   5.637   4.096  12.267 -0.3452 -0.0285  0.6007
 5503TIP3   OH237999   5.031   1.165  11.070 -0.1340 -0.2408 -0.1559
 5503TIP3    H138000   5.061   1.075  11.085 -1.3032 -0.4373  1.1009
 5503TIP3    H238001   4.952   1.174  11.124 -0.7830  1.1266 -1.2834
 5504TIP3   OH238002   1.175   3.439   4.196  0.1046  0.3208  0.9448
 5504TIP3    H138003   1.129   3.499   4.254 -1.1111  1.5119 -1.1851
 5504TIP3    H238004   1.140   3.352   4.220 -0.2918  0.7755  2.0500
 5505TIP3   OH238005   1.348   4.722  13.611  0.1506 -0.0629 -0.0268
 5505TIP3    H138006   1.258   4.734  13.643 -0.3937  1.9772 -2.1447
 5505TIP3    H238007   1.393   4.802  13.637  1.6746 -1.5146  1.9164
 5506TIP3   OH238008   4.969   3.064  15.968  0.4660  0.2206  0.3816
 5506TIP3    H138009   4.987   3.158  15.972  2.1908 -0.0420 -0.7436
 5506TIP3    H238010   4.875   3.058  15.951  0.5429  1.7680 -0.6828
 5507TIP3   OH238011   5.877   4.497   4.152 -0.2054  0.6874 -0.0611
 5507TIP3    H138012   5.901   4.432   4.218 -1.4677 -0.3564 -0.6005
 5507TIP3    H238013   5.813   4.553   4.196  2.5523  3.0210  1.1416
 5508TIP3   OH238014   0.901   2.366  13.655  0.7114  0.1635  0.4015
 5508TIP3    H138015   0.824   2.414  13.684  2.0159  0.4756  3.4431
 5508TIP3    H238016   0.873   2.274  13.654 -0.0341  0.3880  0.3340
 5509TIP3   OH238017   1.178   2.540  12.293  0.2786 -0.2209 -0.3605
 5509TIP3    H138018   1.256   2.595  12.300 -0.2222  0.4418  0.1906
 5509TIP3    H238019   1.162   2.510  12.383  1.2277 -2.2436 -0.8544
 5510TIP3   OH238020   0.223   5.504  12.228 -0.4987  0.5112 -0.2232
 5510TIP3    H138021   0.150   5.558  12.199 -0.5495 -0.0226 -1.0862
 5510TIP3    H238022   0.184   5.441  12.288 -0.5099  1.1490  0.4475
 5511TIP3   OH238023   0.723   1.844  12.365 -0.2386 -0.1400  0.1119
 5511TIP3    H138024   0.648   1.854  12.306 -0.3799  1.1771  0.4925
 5511TIP3    H238025   0.694   1.779  12.429 -1.0998  0.4088  0.2976
 5512TIP3   OH238026   0.776   1.813  17.013  0.0949 -0.3202  0.0579
 5512TIP3    H138027   0.851   1.771  17.056 -0.0408 -0.0931  0.5148
 5512TIP3    H238028   0.813   1.885  16.963  0.1033  0.1950  0.8081
 5513TIP3   OH238029   3.139   6.405  16.298 -0.3067 -0.7831 -0.1601
 5513TIP3    H138030   3.046   6.421  16.314 -0.1798 -2.3129  2.4789
 5513TIP3    H238031   3.145   6.311  16.281  0.6989 -0.6266 -0.6859
 5514TIP3   OH238032   3.756   4.019   1.089  0.3552  0.1620 -0.3652
 5514TIP3    H138033   3.780   3.948   1.029  0.9019 -0.5345  0.6528
 5514TIP3    H238034   3.840   4.060   1.112  0.0745  0.9129 -0.6693
 5515TIP3   OH238035   4.502   4.520  15.872  0.0100 -0.4894 -0.1361
 5515TIP3    H138036   4.593   4.528  15.902  0.4678  2.5427 -2.1391
 5515TIP3    H238037   4.453   4.576  15.932 -0.1116  0.1372 -0.8284
 5516TIP3   OH238038   5.168   6.736   3.269 -0.5372 -1.4250  0.1055
 5516TIP3    H138039   5.113   6.671   3.312  1.2688 -1.4712  2.4087
 5516TIP3    H238040   5.250   6.735   3.318  1.1710 -0.6121 -2.6215
 5517TIP3   OH238041   2.918   3.977  13.795  0.5723  0.6573 -0.1897
 5517TIP3    H138042   2.986   3.911  13.781  0.7380  0.7990 -0.0474
 5517TIP3    H238043   2.958   4.042  13.853  0.2564  0.6527  0.0324
 5518TIP3   OH238044   2.663   0.063   3.608  0.2581 -0.3408  0.4116
 5518TIP3    H138045   2.668  -0.003   3.539  0.9185  1.0071 -0.8647
 5518TIP3    H238046   2.634   0.015   3.685 -1.0063 -1.7845 -0.9251
 5519TIP3   OH238047   4.886   4.915  15.095 -0.5455  0.2118  0.4105
 5519TIP3    H138048   4.923   4.980  15.036 -1.7860  1.6785  1.2169
 5519TIP3    H238049   4.961   4.884  15.147  0.1483  0.5507 -0.3803
 5520TIP3   OH238050   2.302   2.302  16.986  0.7626  0.1564  0.2071
 5520TIP3    H138051   2.388   2.298  17.028  0.7190  1.2328  0.4136
 5520TIP3    H238052   2.254   2.368  17.036  0.4757  0.9488 -1.0880
 5521TIP3   OH238053   4.376   0.331   4.044  0.6467  0.0096  0.3803
 5521TIP3    H138054   4.300   0.342   4.102 -0.2933 -0.7317 -0.6923
 5521TIP3    H238055   4.340   0.340   3.956  1.9797  0.6043 -0.1206
 5522TIP3   OH238056   0.032   3.516   0.428 -0.0103 -0.6413  0.2467
 5522TIP3    H138057  -0.047   3.540   0.476 -0.7453 -0.9369 -0.7968
 5522TIP3    H238058   0.065   3.439   0.474 -1.0434 -1.2819 -0.0720
 5523TIP3   OH238059   5.390   5.550  16.326  0.3056 -0.4529  0.1030
 5523TIP3    H138060   5.349   5.495  16.392 -0.6233 -0.7791 -0.7207
 5523TIP3    H238061   5.462   5.499  16.292  0.6183 -0.3922  0.6774
 5524TIP3   OH238062   1.309   3.866  13.155 -0.3936 -0.1639  0.2974
 5524TIP3    H138063   1.260   3.843  13.233 -0.0821 -1.1880  0.2006
 5524TIP3    H238064   1.267   3.815  13.085 -0.3893  0.4048 -0.1248
 5525TIP3   OH238065   6.469   0.347  12.042 -0.1145  0.3884  0.1177
 5525TIP3    H138066   6.485   0.258  12.010 -3.7688 -0.3104  0.0718
 5525TIP3    H238067   6.459   0.400  11.963  0.0755  0.4732  0.1487
 5526TIP3   OH238068   1.077   6.719  17.270 -0.2540 -1.0967  0.8387
 5526TIP3    H138069   1.056   6.717  17.177 -0.7664 -2.0964  0.9556
 5526TIP3    H238070   1.150   6.658  17.280  0.6490 -0.0088  0.9006
 5527TIP3   OH238071   5.659   5.458   0.181 -0.1271  0.4349 -0.0712
 5527TIP3    H138072   5.626   5.545   0.203  1.0887  0.8091  0.2943
 5527TIP3    H238073   5.593   5.422   0.122 -0.2621  1.9241 -0.8654
 5528TIP3   OH238074   0.852   1.243  14.554 -0.6626  0.1489  0.9173
 5528TIP3    H138075   0.845   1.176  14.486  0.4710  0.6621  0.2786
 5528TIP3    H238076   0.770   1.292  14.548  0.1360  1.2768 -1.2530
 5529TIP3   OH238077   5.791   3.251  12.493 -0.7787 -0.3961 -0.6923
 5529TIP3    H138078   5.787   3.297  12.576 -1.3230 -0.7520 -0.5244
 5529TIP3    H238079   5.773   3.318  12.427 -0.4652 -0.1412 -0.5201
 5530TIP3   OH238080   3.405   3.386  15.419  0.0848  0.4730  0.5215
 5530TIP3    H138081   3.380   3.326  15.489  0.2943 -0.2662 -0.0267
 5530TIP3    H238082   3.441   3.329  15.350 -2.4425  0.9097 -1.2234
 5531TIP3   OH238083   2.685   1.406  15.076  0.1695  0.1090 -0.1909
 5531TIP3    H138084   2.600   1.436  15.043  0.1631  0.6373  0.2953
 5531TIP3    H238085   2.662   1.351  15.151  0.2122 -0.5800 -0.6800
 5532TIP3   OH238086   6.670   1.455   3.601  0.1229  0.2922 -0.0621
 5532TIP3    H138087   6.609   1.498   3.661 -1.1601 -0.9002 -0.4790
 5532TIP3    H238088   6.657   1.361   3.616  0.9523  0.0050 -1.0442
 5533TIP3   OH238089   5.289   1.035   0.211 -0.3832 -0.5128  0.2471
 5533TIP3    H138090   5.349   1.076   0.274 -1.6256 -1.0359  1.8178
 5533TIP3    H238091   5.302   1.084   0.130  1.1569  0.2734  0.9373
 5534TIP3   OH238092   5.112   6.100   0.216  0.0205 -0.3867  0.2034
 5534TIP3    H138093   5.184   6.161   0.202 -0.1956 -0.0056  0.7344
 5534TIP3    H238094   5.137   6.022   0.167  0.2743  0.1409 -0.5266
 5535TIP3   OH238095   5.823   5.532  17.045  0.2048 -0.4387 -0.5002
 5535TIP3    H138096   5.735   5.569  17.046  0.4211  0.0461  0.9241
 5535TIP3    H238097   5.834   5.500  16.955 -1.4506 -0.5882 -0.6663
 5536TIP3   OH238098   3.724   4.507   1.183  0.0118 -0.2657  0.2787
 5536TIP3    H138099   3.674   4.552   1.250  0.4162 -1.6322  1.5150
 5536TIP3    H238100   3.667   4.507   1.106 -0.3471  1.5369  0.5241
 5537TIP3   OH238101   1.864   1.678   5.177 -0.0501 -0.4201 -0.4096
 5537TIP3    H138102   1.843   1.639   5.092 -0.1219 -0.7535 -0.2419
 5537TIP3    H238103   1.941   1.732   5.160  1.6793 -2.7234 -0.1230
 5538TIP3   OH238104   2.701   4.572  17.023 -0.1022 -0.3391  0.0814
 5538TIP3    H138105   2.665   4.562  16.936 -2.0861 -0.3788  0.8811
 5538TIP3    H238106   2.794   4.554  17.013 -0.0266  1.1731 -2.2945
 5539TIP3   OH238107   1.200   4.759   5.628 -0.1374  0.2014 -0.1231
 5539TIP3    H138108   1.194   4.810   5.709 -2.3313 -1.7482  1.0143
 5539TIP3    H238109   1.186   4.824   5.559 -1.6587  1.3711  1.2308
 5540TIP3   OH238110   0.168   3.529  16.682  0.0279 -0.0215 -0.2319
 5540TIP3    H138111   0.158   3.458  16.746 -0.8251 -0.4588 -0.8447
 5540TIP3    H238112   0.262   3.532  16.664  0.0690 -0.9890 -0.1962
 5541TIP3   OH238113   3.153   0.698   5.133 -0.8587  0.0162  0.1868
 5541TIP3    H138114   3.206   0.777   5.137 -0.2971 -0.3804  0.5588
 5541TIP3    H238115   3.088   0.717   5.065  0.1653  0.2529 -0.7437
 5542TIP3   OH238116   1.720   5.875  11.565  0.1259  0.0167  0.5015
 5542TIP3    H138117   1.628   5.901  11.568  0.1960  0.4258 -0.8738
 5542TIP3    H238118   1.728   5.811  11.636 -1.6988 -1.6213 -0.7196
 5543TIP3   OH238119   5.637   0.550  12.770 -0.4895  0.3040 -0.6369
 5543TIP3    H138120   5.711   0.586  12.721 -0.3102  0.2726 -0.3889
 5543TIP3    H238121   5.669   0.543  12.860 -0.2426 -1.2354 -0.8164
 5544TIP3   OH238122   4.992   5.831   0.289  0.0184  0.6160  0.0878
 5544TIP3    H138123   4.934   5.767   0.331  2.0242 -1.0637  0.3641
 5544TIP3    H238124   4.939   5.869   0.220 -1.3294 -1.1418  0.1023
 5545TIP3   OH238125   6.342   4.562   5.592 -0.7608 -0.6485  0.2176
 5545TIP3    H138126   6.381   4.505   5.658 -1.5828 -1.7810 -0.2513
 5545TIP3    H238127   6.365   4.521   5.509 -1.2362 -0.2133 -0.1298
 5546TIP3   OH238128   0.618   6.161   5.589 -0.0875 -0.1030 -0.2018
 5546TIP3    H138129   0.562   6.096   5.632  1.0788 -0.4781  0.7728
 5546TIP3    H238130   0.689   6.111   5.550  0.1895  0.4720 -0.4521
 5547TIP3   OH238131   3.596   2.228  16.530  0.1015  0.3929  0.1497
 5547TIP3    H138132   3.576   2.305  16.476 -0.0612  0.9792  1.0272
 5547TIP3    H238133   3.522   2.169  16.517 -0.7495  1.2564  1.0362
 5548TIP3   OH238134   4.430   2.047  11.109  0.0466 -0.3367 -0.0914
 5548TIP3    H138135   4.496   1.978  11.098 -1.0290 -1.3029 -0.5722
 5548TIP3    H238136   4.389   2.026  11.193 -0.8715 -0.7907 -0.6536
 5549TIP3   OH238137   3.004   2.301  14.644 -0.1175  0.5444  0.6206
 5549TIP3    H138138   2.955   2.280  14.723  1.5829 -0.1355  1.5088
 5549TIP3    H238139   3.041   2.388  14.661 -0.4123  0.7471  0.2410
 5550TIP3   OH238140   2.141   4.767   3.136  0.2731  0.3001  0.0849
 5550TIP3    H138141   2.169   4.678   3.112  0.3633  0.5044 -0.5945
 5550TIP3    H238142   2.139   4.814   3.052 -0.4158  0.7612  0.3583
 5551TIP3   OH238143   1.182   6.096   0.749  0.7097 -0.4618 -0.2293
 5551TIP3    H138144   1.275   6.117   0.757  0.5756  0.6725 -1.4667
 5551TIP3    H238145   1.158   6.062   0.835  2.0062  0.3160  0.4563
 5552TIP3   OH238146   3.254   1.597   0.551 -0.5382  0.4701  0.2372
 5552TIP3    H138147   3.269   1.645   0.632  1.0319  2.1032 -0.9804
 5552TIP3    H238148   3.162   1.613   0.530 -0.7999  0.5014  1.3901
 5553TIP3   OH238149   6.127   4.745   5.745 -0.0755 -0.1281 -0.2179
 5553TIP3    H138150   6.128   4.840   5.735 -0.2903 -0.0554  0.4027
 5553TIP3    H238151   6.109   4.711   5.657 -0.2072  0.4140 -0.3988
 5554TIP3   OH238152   2.060   3.815   3.342 -0.5022 -0.1529  0.2168
 5554TIP3    H138153   2.148   3.788   3.316 -0.2793 -0.0339  0.8540
 5554TIP3    H238154   2.073   3.893   3.396 -0.9102 -0.8969  1.4077
 5555TIP3   OH238155   4.944   6.625   2.971 -0.4856  0.2186  0.2206
 5555TIP3    H138156   5.038   6.645   2.972 -0.7090  1.2743  0.8380
 5555TIP3    H238157   4.905   6.696   2.921 -1.0335  0.1109  0.4919
 5556TIP3   OH238158   5.394   3.186   4.094 -0.3879 -0.0748  0.4708
 5556TIP3    H138159   5.325   3.240   4.057  0.9708  1.5971  0.3252
 5556TIP3    H238160   5.411   3.224   4.180 -0.3262 -1.0795  0.9092
 5557TIP3   OH238161   4.190   3.965   5.174  0.2115 -0.1824 -0.0541
 5557TIP3    H138162   4.128   4.003   5.236  0.9437 -1.2881  1.3819
 5557TIP3    H238163   4.166   3.873   5.168  0.0327 -0.0601 -1.5858
 5558TIP3   OH238164   3.788   0.787   4.713 -0.0593  0.7991 -0.1700
 5558TIP3    H138165   3.732   0.827   4.780  0.5480 -1.3406  1.6618
 5558TIP3    H238166   3.801   0.697   4.743 -0.1151 -0.3377 -3.4181
 5559TIP3   OH238167   3.214   3.913   4.217  0.3595  0.7490 -0.3310
 5559TIP3    H138168   3.123   3.941   4.227  0.5984  1.2369  0.5155
 5559TIP3    H238169   3.219   3.829   4.261  0.3743  0.8460 -0.1451
 5560TIP3   OH238170   3.742   3.045   3.078 -0.5253  0.1828 -0.6019
 5560TIP3    H138171   3.774   2.989   3.008 -1.0716 -0.1635 -0.5831
 5560TIP3    H238172   3.750   3.134   3.044  1.0118  0.1536 -0.3597
 5561TIP3   OH238173   3.012   1.804  13.010  0.1822  0.4576  0.1856
 5561TIP3    H138174   3.087   1.746  13.023  0.6041  1.1407  0.8783
 5561TIP3    H238175   2.946   1.772  13.070 -0.6986 -1.1551 -1.5902
 5562TIP3   OH238176   4.887   2.781   1.625 -0.2246  0.0005  0.2544
 5562TIP3    H138177   4.898   2.690   1.653 -1.2690  0.3410  1.8127
 5562TIP3    H238178   4.793   2.799   1.637  0.4577  2.1930  2.8908
 5563TIP3   OH238179   5.145   4.674   1.726 -0.2792  0.1894  0.4541
 5563TIP3    H138180   5.209   4.717   1.669 -1.8353 -1.2101 -2.4706
 5563TIP3    H238181   5.063   4.722   1.711 -0.7407 -0.2730  1.4363
 5564TIP3   OH238182   0.492   0.607  13.073  0.4256  0.2460 -0.1660
 5564TIP3    H138183   0.477   0.658  12.993  0.6707  0.2011 -0.2405
 5564TIP3    H238184   0.570   0.646  13.111  0.5422  0.0017 -0.1593
 5565TIP3   OH238185   1.603   3.733   3.454  0.0530  0.2283 -0.0781
 5565TIP3    H138186   1.654   3.762   3.378  1.2123 -1.8210 -0.1111
 5565TIP3    H238187   1.666   3.728   3.525 -0.3271 -1.1878  0.1751
 5566TIP3   OH238188   5.996   2.802  11.059 -0.0199  0.5525 -0.6088
 5566TIP3    H138189   5.953   2.886  11.041 -1.3549 -0.2731 -1.2804
 5566TIP3    H238190   5.950   2.767  11.135  2.0858  1.5071  1.1500
 5567TIP3   OH238191   6.202   2.382   0.538  0.0216 -0.6688  0.4723
 5567TIP3    H138192   6.232   2.437   0.466 -0.6491 -2.2377 -1.0439
 5567TIP3    H238193   6.109   2.402   0.547  0.6132  1.2566  2.4968
 5568TIP3   OH238194   0.881   1.196  12.850 -0.5971 -0.3885 -0.1844
 5568TIP3    H138195   0.959   1.147  12.825 -0.5515  0.0090 -0.8527
 5568TIP3    H238196   0.854   1.239  12.769 -1.5772 -0.6212  0.0124
 5569TIP3   OH238197   1.306   1.808   0.284  0.6418  0.2607  0.0926
 5569TIP3    H138198   1.246   1.870   0.325  1.0076  0.5511  0.1934
 5569TIP3    H238199   1.380   1.861   0.256 -0.1793  0.2972 -2.1481
 5570TIP3   OH238200   6.694   1.421  16.642  0.2856 -0.4812  0.1125
 5570TIP3    H138201   6.635   1.370  16.586 -2.5205  0.7599  1.8176
 5570TIP3    H238202   6.761   1.454  16.582 -1.6451 -0.6205 -2.2001
 5571TIP3   OH238203   4.631   2.645   4.455 -0.0825  0.3964  0.1379
 5571TIP3    H138204   4.672   2.579   4.511 -0.7536 -1.2438 -1.2297
 5571TIP3    H238205   4.702   2.704   4.431  1.2132 -1.5656 -1.0354
 5572TIP3   OH238206   4.204   5.492   1.299  0.3226  0.0526 -0.2704
 5572TIP3    H138207   4.274   5.431   1.323 -0.5846 -0.7881  0.2662
 5572TIP3    H238208   4.245   5.578   1.304  1.7899 -0.5466 -1.6460
 5573TIP3   OH238209   4.743   6.370   3.522  0.0536  0.1290  0.0650
 5573TIP3    H138210   4.692   6.312   3.579  0.2460  0.6937  0.8254
 5573TIP3    H238211   4.730   6.457   3.559 -0.4728  0.6153 -1.2528
 5574TIP3   OH238212   3.172   3.897   2.653 -0.4165 -0.1826  0.1109
 5574TIP3    H138213   3.242   3.926   2.595 -1.4051  0.3011 -0.8612
 5574TIP3    H238214   3.110   3.970   2.655  0.1064  0.2589  2.6517
 5575TIP3   OH238215   4.705   5.955   5.633  0.3963 -0.5613  0.3661
 5575TIP3    H138216   4.654   6.035   5.620 -2.3225 -2.0521  1.5230
 5575TIP3    H238217   4.742   5.937   5.546  1.3280  2.1040  0.1651
 5576TIP3   OH238218   1.832   1.760  17.248  0.0570  0.3601 -0.0184
 5576TIP3    H138219   1.781   1.763  17.167  1.0248 -0.0055 -0.6506
 5576TIP3    H238220   1.923   1.771  17.220  0.4438 -0.2252  0.9710
 5577TIP3   OH238221   0.621   0.439  14.126  0.0705  0.4797 -0.2922
 5577TIP3    H138222   0.624   0.346  14.147  1.5275  0.7898  0.9679
 5577TIP3    H238223   0.550   0.447  14.063 -1.1695 -1.2287  0.8457
 5578TIP3   OH238224   0.707   2.913   0.412 -0.1787 -0.5990  0.7481
 5578TIP3    H138225   0.671   2.991   0.370 -1.5413 -0.6376  1.7938
 5578TIP3    H238226   0.787   2.894   0.364 -0.5935  0.6021 -0.4376
 5579TIP3   OH238227   5.330   5.577   2.037 -0.5454 -0.4332  0.4235
 5579TIP3    H138228   5.269   5.504   2.043 -1.8291  0.6859  1.2239
 5579TIP3    H238229   5.283   5.652   2.076  0.0109  1.2824 -2.0947
 5580TIP3   OH238230   4.146   0.710  14.467  0.4758 -0.7422  0.2698
 5580TIP3    H138231   4.167   0.649  14.397  3.0069 -1.6477  1.7492
 5580TIP3    H238232   4.064   0.676  14.504  0.4430 -1.6940 -0.6531
 5581TIP3   OH238233   1.483   6.115  12.971  0.1006  0.0200 -0.0729
 5581TIP3    H138234   1.432   6.057  12.914  1.4347  0.6400 -1.9459
 5581TIP3    H238235   1.419   6.178  13.004 -0.5157  0.2822 -1.7214
 5582TIP3   OH238236   4.686   0.915  11.837  0.5386 -0.8917  0.0558
 5582TIP3    H138237   4.748   0.960  11.895  0.1456 -2.3015  1.5911
 5582TIP3    H238238   4.728   0.832  11.817  0.3304 -0.7229 -1.0924
 5583TIP3   OH238239   3.351   1.825   2.807 -0.7297  0.4484  0.1571
 5583TIP3    H138240   3.380   1.741   2.770  0.7862 -0.6658  3.6290
 5583TIP3    H238241   3.261   1.808   2.835 -0.2445 -0.2359  1.3498
 5584TIP3   OH238242   2.975   6.551   5.222  0.1179  0.3108  0.2567
 5584TIP3    H138243   3.019   6.627   5.183 -0.7453 -0.1976 -1.7834
 5584TIP3    H238244   3.040   6.513   5.281  0.7551  2.2970  0.8649
 5585TIP3   OH238245   5.157   2.256  15.688  0.9007 -0.0094 -0.1484
 5585TIP3    H138246   5.138   2.306  15.608 -0.2621  1.5566  1.0766
 5585TIP3    H238247   5.248   2.274  15.707  1.0832 -0.0965 -0.9023
 5586TIP3   OH238248   3.733   2.057  12.984  0.2417 -0.2147  0.3788
 5586TIP3    H138249   3.743   1.974  13.029 -0.8378 -1.6264 -1.9064
 5586TIP3    H238250   3.649   2.092  13.014  0.1068 -0.5432  0.3777
 5587TIP3   OH238251   6.364   5.785  13.450  0.6411  0.0966  1.1595
 5587TIP3    H138252   6.382   5.698  13.487 -1.2437 -1.0835 -0.5879
 5587TIP3    H238253   6.431   5.796  13.382  0.0240 -0.6600  0.3988
 5588TIP3   OH238254   4.571   6.636  12.507 -0.0832  0.2578  0.5937
 5588TIP3    H138255   4.493   6.648  12.452 -1.0195 -1.2241  1.5458
 5588TIP3    H238256   4.611   6.723  12.512 -0.0263  0.4438 -2.3344
 5589TIP3   OH238257   3.327   0.805   0.077 -0.2707  0.3118  0.2371
 5589TIP3    H138258   3.298   0.877   0.022 -0.2665  0.5642  0.5625
 5589TIP3    H238259   3.361   0.740   0.016 -0.4614  0.5012 -0.0688
 5590TIP3   OH238260   1.108   2.541  12.572 -0.3404  0.1124 -0.0984
 5590TIP3    H138261   1.078   2.621  12.529 -1.6435 -0.4467 -0.2503
 5590TIP3    H238262   1.038   2.478  12.557  1.3858 -1.5489 -1.3265
 5591TIP3   OH238263   1.633   1.658  12.495  0.4757  0.8118  0.0278
 5591TIP3    H138264   1.720   1.629  12.522 -0.7072 -3.7340 -0.6688
 5591TIP3    H238265   1.648   1.714  12.419  2.8214  0.7930  0.4523
 5592TIP3   OH238266   3.231   4.792   3.639 -0.1991 -0.4275  0.3516
 5592TIP3    H138267   3.249   4.701   3.613  0.1461 -0.0981 -0.5788
 5592TIP3    H238268   3.166   4.822   3.576  0.9840  0.5300 -0.4219
 5593TIP3   OH238269   1.553   5.585  15.451  0.0257  0.2346 -0.2273
 5593TIP3    H138270   1.613   5.658  15.435  0.4035 -0.4306 -1.9635
 5593TIP3    H238271   1.508   5.572  15.367 -0.2941 -1.3076  0.1634
 5594TIP3   OH238272   2.033   1.375  17.087 -0.1205 -0.1765 -0.3749
 5594TIP3    H138273   1.991   1.426  17.017 -2.3626 -2.6738 -0.9375
 5594TIP3    H238274   2.084   1.308  17.041 -0.8787 -1.2679  0.3434
 5595TIP3   OH238275   3.044   5.816   1.123 -0.0251  0.8154  0.5480
 5595TIP3    H138276   3.035   5.734   1.172 -1.7514 -0.6782 -2.1328
 5595TIP3    H238277   3.014   5.884   1.183 -1.2505 -0.8484  1.8649
 5596TIP3   OH238278   4.192   1.036   3.952  0.3912 -0.4343 -0.1066
 5596TIP3    H138279   4.247   0.960   3.968 -2.4657 -2.2596  1.4524
 5596TIP3    H238280   4.187   1.080   4.037 -0.8924 -0.5497 -0.1099
 5597TIP3   OH238281   4.822   2.713  16.580  0.2381  0.7079 -0.1115
 5597TIP3    H138282   4.869   2.771  16.640  3.8183 -2.1915  0.0881
 5597TIP3    H238283   4.782   2.647  16.637  0.3414  0.1884 -0.6306
 5598TIP3   OH238284   6.808   6.737  12.059  0.8393  1.0906 -0.1638
 5598TIP3    H138285   6.726   6.776  12.028 -0.0802 -0.1300  0.6679
 5598TIP3    H238286   6.790   6.717  12.151  1.5087 -0.6996 -0.4150
 5599TIP3   OH238287   6.572   6.497  17.226  0.1306 -0.2781 -0.1956
 5599TIP3    H138288   6.531   6.519  17.143 -0.8996 -0.4343  0.2649
 5599TIP3    H238289   6.503   6.507  17.291  1.3394  1.4466  0.8793
 5600TIP3   OH238290   5.724   1.601   4.651  0.1759  0.0853 -0.0231
 5600TIP3    H138291   5.780   1.541   4.601  0.4748  0.7753 -0.5188
 5600TIP3    H238292   5.764   1.605   4.738  0.1423 -0.4482  0.0176
 5601TIP3   OH238293   3.890   5.249   2.846 -0.5816  0.3819  0.3926
 5601TIP3    H138294   3.853   5.244   2.758 -1.0344  0.5494  0.5761
 5601TIP3    H238295   3.888   5.158   2.877 -1.1631  0.4422  0.5378
 5602TIP3   OH238296   3.905   1.903  16.384 -0.4789 -0.5633 -0.3472
 5602TIP3    H138297   3.970   1.952  16.435 -0.9825  1.5414 -1.6749
 5602TIP3    H238298   3.952   1.826  16.353  1.2108  0.6209 -0.7610
 5603TIP3   OH238299   4.407   1.849  14.479 -0.1333 -0.4506  0.1056
 5603TIP3    H138300   4.485   1.842  14.534 -0.1450  1.5808  0.4347
 5603TIP3    H238301   4.371   1.761  14.476  2.1065 -1.3827  0.0482
 5604TIP3   OH238302   5.281   2.736   3.626  0.1599  0.1074  0.3801
 5604TIP3    H138303   5.203   2.791   3.625 -1.6238 -2.3372 -0.7639
 5604TIP3    H238304   5.284   2.701   3.715  0.9230  1.4938  0.9130
 5605TIP3   OH238305   0.786   2.999   0.083 -0.4121  0.5451 -0.0642
 5605TIP3    H138306   0.843   3.014   0.008  1.5844  0.0615  1.3109
 5605TIP3    H238307   0.746   3.084   0.101  0.0211  0.9302 -0.9270
 5606TIP3   OH238308   5.677   2.678  13.405 -0.1050  0.0863  0.6733
 5606TIP3    H138309   5.756   2.677  13.460  0.0249 -0.2597  0.4846
 5606TIP3    H238310   5.650   2.769  13.403  1.0376  0.4076 -0.3308
 5607TIP3   OH238311   4.931   1.100  12.913 -1.0583  0.5040  0.3528
 5607TIP3    H138312   4.886   1.017  12.895 -2.3918  1.5526 -1.3479
 5607TIP3    H238313   5.021   1.074  12.935 -1.6669 -1.4321  0.6651
 5608TIP3   OH238314   4.602   0.050  15.808  0.2259  0.0879 -1.0402
 5608TIP3    H138315   4.610   0.144  15.822 -2.2421  0.0298  0.9100
 5608TIP3    H238316   4.675   0.029  15.748  1.4802  3.0038 -0.6210
 5609TIP3   OH238317   3.717   1.111   5.768  0.3228 -0.3596  0.4017
 5609TIP3    H138318   3.717   1.205   5.752  1.1987 -0.6952 -1.9240
 5609TIP3    H238319   3.675   1.100   5.852 -1.6116  1.9602 -0.2198
 5610TIP3   OH238320   2.955   1.093  13.360  0.0344 -0.3316 -1.2328
 5610TIP3    H138321   2.931   1.148  13.286 -1.6100 -1.4365 -1.5354
 5610TIP3    H238322   2.958   1.004  13.325  1.8359 -0.5767 -0.5515
 5611TIP3   OH238323   0.440   3.415   4.175  0.2874 -0.1740 -0.3804
 5611TIP3    H138324   0.449   3.499   4.221  0.1361 -0.1280 -0.4357
 5611TIP3    H238325   0.458   3.349   4.242 -0.2475 -0.1175 -0.1779
 5612TIP3   OH238326   5.667   6.072   2.983 -0.5114  0.2962 -0.2974
 5612TIP3    H138327   5.574   6.071   2.958 -0.9125 -1.7403  1.1603
 5612TIP3    H238328   5.706   6.000   2.933 -0.0200  0.2399  0.1662
 5613TIP3   OH238329   1.781   4.428   5.322 -0.4275  0.4567  0.1029
 5613TIP3    H138330   1.814   4.373   5.392 -0.9895 -0.4282 -0.3166
 5613TIP3    H238331   1.815   4.388   5.242 -1.1984  0.4613 -0.2310
 5614TIP3   OH238332   2.722   4.033   6.448 -0.0380  0.0247  0.3815
 5614TIP3    H138333   2.639   4.058   6.406  0.3306  2.0425  0.8329
 5614TIP3    H238334   2.696   3.992   6.530 -0.6477 -0.8771 -0.2538
 5615TIP3   OH238335   5.458   1.246  15.885 -0.0363 -0.3633 -0.5303
 5615TIP3    H138336   5.392   1.267  15.820  0.8170  1.3622 -0.8500
 5615TIP3    H238337   5.444   1.310  15.955  1.0755 -0.1916 -0.4555
 5616TIP3   OH238338   1.469   2.838   3.496  0.1135  0.0497 -0.7649
 5616TIP3    H138339   1.429   2.914   3.539  1.2236 -0.3450  1.0086
 5616TIP3    H238340   1.478   2.773   3.565 -1.4800 -2.0062 -2.4096
 5617TIP3   OH238341   6.480   5.094   3.961  0.2004  0.4125 -0.0699
 5617TIP3    H138342   6.502   5.031   3.893 -0.3442 -0.0937  0.2282
 5617TIP3    H238343   6.490   5.179   3.918  1.8353  0.1721 -0.2095
 5618TIP3   OH238344   2.571   1.861   5.031 -0.0163  0.3631  0.3279
 5618TIP3    H138345   2.560   1.797   5.102 -2.2443 -0.8855 -1.0769
 5618TIP3    H238346   2.487   1.907   5.028  0.2422  0.7564 -1.1496
 5619TIP3   OH238347   3.300   0.801  12.624  0.0385  0.4527 -0.0045
 5619TIP3    H138348   3.236   0.753  12.571  0.5018  0.6079 -0.7048
 5619TIP3    H238349   3.352   0.732  12.666 -2.5674  0.2465  3.0642
 5620TIP3   OH238350   3.057   5.820  16.781  0.1463  0.2320 -0.6958
 5620TIP3    H138351   2.971   5.840  16.816  0.4596  2.5927 -1.2081
 5620TIP3    H238352   3.091   5.750  16.838 -2.1774 -0.8972 -0.6677
 5621TIP3   OH238353   5.896   2.324  17.092 -0.0110  0.3820 -0.2363
 5621TIP3    H138354   5.842   2.283  17.024 -1.0856 -0.0089  0.8421
 5621TIP3    H238355   5.909   2.414  17.061  0.8940 -0.2305 -1.7499
 5622TIP3   OH238356   6.595   0.396  14.502 -0.4286 -0.7110  0.0377
 5622TIP3    H138357   6.504   0.374  14.523 -0.6407  1.0487  1.0590
 5622TIP3    H238358   6.606   0.368  14.412 -3.0107  2.0257 -1.2078
 5623TIP3   OH238359   1.262   3.831   0.506 -0.0191  0.1565 -0.8178
 5623TIP3    H138360   1.309   3.872   0.579  0.1424  0.3533 -1.0300
 5623TIP3    H238361   1.331   3.808   0.443 -0.0789 -0.7634 -0.5421
 5624TIP3   OH238362   6.112   2.615  12.192 -0.2278  0.0916  0.0413
 5624TIP3    H138363   6.199   2.652  12.182 -0.1858 -0.5300 -2.1619
 5624TIP3    H238364   6.065   2.679  12.246  1.2779  0.9254  0.3927
 5625TIP3   OH238365   2.229   2.774   2.013  0.2124 -0.3844 -0.0261
 5625TIP3    H138366   2.316   2.732   2.008  1.1477  1.6661 -2.0250
 5625TIP3    H238367   2.242   2.860   1.974 -2.4375  0.5134  0.9778
 5626TIP3   OH238368   0.380   1.792  16.938 -0.2692  0.2750  0.1679
 5626TIP3    H138369   0.430   1.841  16.872 -2.4303 -0.7045 -2.3116
 5626TIP3    H238370   0.444   1.735  16.979  0.8107 -0.5923 -2.5810
 5627TIP3   OH238371   1.218   4.092   4.618  0.0181 -0.0479 -0.6221
 5627TIP3    H138372   1.232   4.062   4.708 -0.3333  2.2659  0.2313
 5627TIP3    H238373   1.123   4.099   4.610 -0.0315 -1.6988 -1.6863
 5628TIP3   OH238374   3.490   1.518  15.638 -0.0255 -0.0581  0.1641
 5628TIP3    H138375   3.554   1.555  15.577 -0.6073  0.9807  0.1754
 5628TIP3    H238376   3.410   1.508  15.587 -0.3485  0.2712  0.5945
 5629TIP3   OH238377   3.925   5.280  12.990 -0.5099 -0.5785 -0.3722
 5629TIP3    H138378   3.865   5.242  12.926 -0.7580  1.0466 -1.1346
 5629TIP3    H238379   3.970   5.350  12.942  0.3905 -0.3168  0.8176
 5630TIP3   OH238380   1.159   1.484  14.768  0.3764  0.5441 -0.0581
 5630TIP3    H138381   1.104   1.424  14.819  1.5671 -0.3919  0.1474
 5630TIP3    H238382   1.213   1.426  14.714 -0.6651  1.5176 -2.1919
 5631TIP3   OH238383   1.511   1.449  12.352 -0.3655  0.1001  0.1082
 5631TIP3    H138384   1.562   1.523  12.385 -0.0896 -0.5273  1.1277
 5631TIP3    H238385   1.421   1.468  12.380  0.1682 -1.4020  3.0824
 5632TIP3   OH238386   3.543   5.375   4.338  0.3480 -0.6313  0.4341
 5632TIP3    H138387   3.490   5.296   4.337  2.2429 -1.9639  1.3725
 5632TIP3    H238388   3.611   5.358   4.404  0.3647  2.0653  1.1827
 5633TIP3   OH238389   3.270   0.034   2.717 -0.4085 -0.5435 -0.0916
 5633TIP3    H138390   3.175   0.039   2.716 -0.3588  0.4686 -0.0433
 5633TIP3    H238391   3.290  -0.049   2.761 -1.2627 -0.7583 -0.1143
 5634TIP3   OH238392   4.032   3.297   3.939 -0.6605  0.8383 -0.2502
 5634TIP3    H138393   4.044   3.308   3.844 -3.0991  0.2298 -0.6700
 5634TIP3    H238394   3.970   3.224   3.946  0.5243  0.0094  1.8663
 5635TIP3   OH238395   4.708   5.552   2.679  0.1474  0.0086 -0.0127
 5635TIP3    H138396   4.778   5.617   2.685 -0.8667  0.9416  2.2087
 5635TIP3    H238397   4.671   5.565   2.592  0.9417  1.3778 -0.1564
 5636TIP3   OH238398   0.305   4.351   3.979  0.4713  0.0110  0.5790
 5636TIP3    H138399   0.261   4.358   4.064 -0.3196 -0.7869  0.2342
 5636TIP3    H238400   0.238   4.317   3.920  1.5988 -1.3805  0.0839
 5637TIP3   OH238401   4.993   3.079  14.395  0.1256  0.1919 -0.3126
 5637TIP3    H138402   4.927   3.056  14.331 -1.6420  1.0049  1.1550
 5637TIP3    H238403   5.020   3.168  14.371  0.1980  0.1151 -0.5160
 5638TIP3   OH238404   1.089   2.920  13.581 -0.1455 -0.2739  0.4895
 5638TIP3    H138405   1.031   2.891  13.511 -0.9915  0.1709  1.0089
 5638TIP3    H238406   1.032   2.963  13.644  0.9278  1.2937  0.4000
 5639TIP3   OH238407   0.352   4.339   5.243 -0.1090 -0.1768 -0.3756
 5639TIP3    H138408   0.319   4.299   5.323  0.5101  1.6517  0.8400
 5639TIP3    H238409   0.441   4.366   5.264 -0.0375  0.5888 -1.5865
 5640TIP3   OH238410   3.950   1.050  12.994  0.3065  0.2597 -0.0427
 5640TIP3    H138411   4.003   1.094  12.928 -0.8771  1.3918 -0.2584
 5640TIP3    H238412   3.898   1.120  13.034 -0.1100 -0.6373  1.0240
 5641TIP3   OH238413   2.107   4.641   5.126 -0.2027 -0.0850 -0.6275
 5641TIP3    H138414   2.191   4.598   5.140 -0.6130 -0.6342  0.2204
 5641TIP3    H238415   2.042   4.573   5.143 -0.8983  1.2221  2.3444
 5642TIP3   OH238416   3.888   4.191  11.424  0.7910 -0.3038 -0.8712
 5642TIP3    H138417   3.821   4.189  11.356  0.8299 -3.0042 -0.8935
 5642TIP3    H238418   3.877   4.276  11.466  0.1623  1.0161 -3.6367
 5643TIP3   OH238419   6.318   2.124   0.260 -0.5706  0.0063 -0.1637
 5643TIP3    H138420   6.363   2.044   0.234  0.5802  0.5224  0.1879
 5643TIP3    H238421   6.368   2.194   0.218 -1.3063  0.5598 -0.1139
 5644TIP3   OH238422   2.026   2.386  14.992 -0.0889  0.8252 -0.2640
 5644TIP3    H138423   2.095   2.450  14.975  0.0373  0.7417 -0.0627
 5644TIP3    H238424   1.946   2.438  15.000  0.0108  0.9551 -0.1140
 5645TIP3   OH238425   1.619   4.344  12.420  0.2347 -0.3293 -0.1708
 5645TIP3    H138426   1.588   4.395  12.346  1.7807 -1.5227 -1.6664
 5645TIP3    H238427   1.709   4.372  12.433  0.2051 -0.6399  0.8215
 5646TIP3   OH238428   6.086   2.564  14.284 -0.1610  1.1847 -0.2698
 5646TIP3    H138429   6.005   2.548  14.332  0.5287  0.7065  0.7715
 5646TIP3    H238430   6.083   2.502  14.211  0.2417 -0.3451  0.9831
 5647TIP3   OH238431   1.935   1.778   0.585  0.0535  0.3610  1.3090
 5647TIP3    H138432   1.913   1.818   0.669  0.4980  0.8771  1.1848
 5647TIP3    H238433   1.914   1.685   0.596  0.3933  0.3750  2.0933
 5648TIP3   OH238434   0.889   5.309  14.674  0.2644  0.7449 -0.1527
 5648TIP3    H138435   0.977   5.270  14.676  0.6128  1.5090 -0.4601
 5648TIP3    H238436   0.873   5.336  14.765  0.4266  0.7764 -0.1312
 5649TIP3   OH238437   2.229   5.758   6.772  0.3558 -0.6035 -0.0269
 5649TIP3    H138438   2.295   5.803   6.825 -1.0611  1.1736  0.2809
 5649TIP3    H238439   2.272   5.743   6.688  1.2760  0.2809  0.2749
 5650TIP3   OH238440   1.451   3.238   4.790  0.5993  1.0724  0.2060
 5650TIP3    H138441   1.402   3.257   4.870  0.3409  0.1940  0.2529
 5650TIP3    H238442   1.541   3.226   4.820  0.4939  0.6966  0.3653
 5651TIP3   OH238443   2.628   4.027  12.562  0.7837  0.2640 -0.0794
 5651TIP3    H138444   2.604   4.119  12.578 -1.1358 -0.0525 -0.9454
 5651TIP3    H238445   2.674   4.029  12.478 -0.7365  0.2381 -0.9294
 5652TIP3   OH238446   2.140   3.124   6.127 -0.1642 -0.4414  0.3762
 5652TIP3    H138447   2.120   3.030   6.124  1.7094 -0.8135 -2.4224
 5652TIP3    H238448   2.120   3.155   6.038  0.1253  1.6429  1.0115
 5653TIP3   OH238449   5.590   5.351  16.273  0.0217 -0.1318 -0.0899
 5653TIP3    H138450   5.592   5.319  16.363  1.1410 -0.5367 -0.2473
 5653TIP3    H238451   5.682   5.347  16.245 -0.1538  1.0549 -0.8668
 5654TIP3   OH238452   1.278   2.158  15.721  0.3119  0.1876 -0.5418
 5654TIP3    H138453   1.285   2.227  15.787 -1.2888 -0.7215  0.6039
 5654TIP3    H238454   1.301   2.078  15.768 -0.4507 -0.4153 -1.1889
 5655TIP3   OH238455   4.411   3.863  14.141  0.1205  0.6128 -0.4224
 5655TIP3    H138456   4.505   3.870  14.123  0.2759 -0.1392  0.0685
 5655TIP3    H238457   4.402   3.898  14.230  0.3132 -1.5706  0.4903
 5656TIP3   OH238458   4.881   0.502   4.078  0.3651  0.4273  0.5932
 5656TIP3    H138459   4.932   0.449   4.017  0.4674  0.4250  0.6803
 5656TIP3    H238460   4.795   0.459   4.082  0.2655  0.5917  0.2321
 5657TIP3   OH238461   4.240   1.815   0.249 -0.0354  0.1216 -0.1448
 5657TIP3    H138462   4.318   1.829   0.196 -0.2223  1.5133 -0.0715
 5657TIP3    H238463   4.261   1.738   0.302  1.5186  0.8208  0.2879
 5658TIP3   OH238464   0.918   3.426  12.613  0.1787  0.6632 -0.2862
 5658TIP3    H138465   0.832   3.408  12.651 -0.1369  1.4052 -0.6293
 5658TIP3    H238466   0.898   3.475  12.533  0.9092  0.6344 -0.4808
 5659TIP3   OH238467   4.350   2.350   9.958 -0.1377 -0.0458 -0.3649
 5659TIP3    H138468   4.294   2.394  10.022  0.2142  0.1175 -0.1722
 5659TIP3    H238469   4.395   2.422   9.912  0.2565 -0.1964 -0.2116
 5660TIP3   OH238470   5.463   3.873  16.843 -0.4450 -0.9541 -0.0409
 5660TIP3    H138471   5.469   3.808  16.913 -2.6651 -2.1513 -0.9013
 5660TIP3    H238472   5.407   3.942  16.879  1.0685 -0.0010  0.5063
 5661TIP3   OH238473   1.835   2.100   4.349 -0.3115 -0.0781  0.2871
 5661TIP3    H138474   1.917   2.109   4.397  0.8624 -1.6715 -1.3008
 5661TIP3    H238475   1.823   2.184   4.305  0.6608  0.0657  0.2821
 5662TIP3   OH238476   0.091   4.132  15.483 -0.5535  0.4825  0.0451
 5662TIP3    H138477   0.168   4.173  15.522 -0.3579  0.0726  0.0951
 5662TIP3    H238478   0.078   4.051  15.534 -1.1893  0.6897  0.2259
 5663TIP3   OH238479   5.109   3.939  13.236  0.0166 -0.2309  0.5049
 5663TIP3    H138480   5.037   3.890  13.196  2.5145 -1.4265 -2.7688
 5663TIP3    H238481   5.105   4.025  13.195  0.9812 -0.6151 -0.4362
 5664TIP3   OH238482   0.069   1.280   6.326  0.0256  0.4881 -0.0942
 5664TIP3    H138483   0.029   1.265   6.412 -0.8357 -0.8634 -0.7133
 5664TIP3    H238484   0.089   1.373   6.325  2.0984  0.1254  2.4413
 5665TIP3   OH238485   3.007   3.268   6.217 -0.0820 -0.0393  0.6566
 5665TIP3    H138486   2.951   3.191   6.211 -0.0138 -0.0700  0.3712
 5665TIP3    H238487   3.080   3.248   6.158 -0.2802  0.4248  0.2574
 5666TIP3   OH238488   4.990   4.546  11.551  0.0446 -0.1414 -0.1816
 5666TIP3    H138489   5.018   4.599  11.626  0.6251 -1.0893  0.2970
 5666TIP3    H238490   4.989   4.456  11.586 -0.0569 -0.5400 -1.2095
 5667TIP3   OH238491   0.057   3.395   3.699 -0.2270  0.1844 -0.1206
 5667TIP3    H138492   0.076   3.489   3.704 -0.2536  0.1686  0.2662
 5667TIP3    H238493   0.123   3.361   3.638 -1.2765  0.7355 -1.5983
 5668TIP3   OH238494   4.491   6.164   2.067  0.5511  0.0770 -0.5407
 5668TIP3    H138495   4.574   6.148   2.113 -0.4235 -1.4602  0.7588
 5668TIP3    H238496   4.450   6.235   2.116  0.9959  0.6745 -1.0369
 5669TIP3   OH238497   4.913   4.086   0.751  0.3109  0.6592 -0.3120
 5669TIP3    H138498   4.827   4.127   0.739  0.1502  0.7863  1.2186
 5669TIP3    H238499   4.975   4.158   0.742  0.2253  0.6770 -0.7907
 5670TIP3   OH238500   1.613   5.696   6.126 -0.0578  0.4265 -0.1271
 5670TIP3    H138501   1.600   5.605   6.101 -0.6163  0.1191  1.2452
 5670TIP3    H238502   1.567   5.747   6.059 -1.7235 -0.3904  0.3750
 5671TIP3   OH238503   1.136   6.357  15.571  0.1549 -0.0376 -0.0707
 5671TIP3    H138504   1.113   6.367  15.663  3.0303 -0.5568  0.7597
 5671TIP3    H238505   1.073   6.293  15.537 -1.6973  1.0694  1.1821
 5672TIP3   OH238506   4.510   2.942   5.943  0.0504  0.0975 -0.0979
 5672TIP3    H138507   4.511   2.856   5.901  0.7272 -0.4736  1.0731
 5672TIP3    H238508   4.425   2.978   5.919 -0.9658 -1.6140  0.7831
 5673TIP3   OH238509   2.732   2.764  11.717 -0.1676  0.1241 -0.0674
 5673TIP3    H138510   2.803   2.743  11.656  1.7780 -1.9307  2.7337
 5673TIP3    H238511   2.657   2.716  11.682 -0.0290  1.7235 -2.6783
 5674TIP3   OH238512   0.285   5.503   4.650  0.3079  0.2056 -0.3996
 5674TIP3    H138513   0.190   5.491   4.663  0.5192 -2.4665 -0.8779
 5674TIP3    H238514   0.295   5.506   4.555  0.8990 -1.9755 -0.4449
 5675TIP3   OH238515   6.292   3.204  17.205  0.2292 -0.5369 -0.4181
 5675TIP3    H138516   6.266   3.180  17.116  1.6055 -1.3568 -0.6056
 5675TIP3    H238517   6.315   3.297  17.199 -2.5585  0.2203 -0.2518
 5676TIP3   OH238518   6.015   2.440   1.955  0.2682  0.2147  0.9918
 5676TIP3    H138519   6.101   2.421   1.918 -0.3206  0.1298 -0.3768
 5676TIP3    H238520   6.009   2.535   1.954 -0.2320  0.1862 -0.3283
 5677TIP3   OH238521   2.510   6.003   0.590 -0.2315  0.1172 -0.8078
 5677TIP3    H138522   2.524   6.048   0.673 -0.6133  1.2520 -1.3523
 5677TIP3    H238523   2.511   5.910   0.613 -0.9494  0.4353  0.5641
 5678TIP3   OH238524   0.269   6.091   4.528  0.0008 -0.2697 -0.5451
 5678TIP3    H138525   0.347   6.064   4.577  1.1002  1.6474 -1.1936
 5678TIP3    H238526   0.257   6.024   4.462  0.8107 -0.8383 -0.1180
 5679TIP3   OH238527   4.156   1.143  15.652 -0.5507  0.3379  0.0673
 5679TIP3    H138528   4.086   1.086  15.619 -1.4947  1.8458 -0.5741
 5679TIP3    H238529   4.237   1.104  15.618 -1.2139 -0.4366 -0.6445
 5680TIP3   OH238530   0.904   1.009   4.695  1.0232  0.2676 -0.8262
 5680TIP3    H138531   0.937   0.963   4.772 -1.5786 -1.1160 -0.4687
 5680TIP3    H238532   0.931   0.954   4.621  0.9354 -0.0063 -0.6549
 5681TIP3   OH238533   6.118   6.336  12.395 -0.0700  0.0377 -0.7770
 5681TIP3    H138534   6.164   6.272  12.340  0.3788 -1.2014  0.9804
 5681TIP3    H238535   6.026   6.313  12.386  0.0826 -0.8239 -0.2325
 5682TIP3   OH238536   0.210   1.278   3.916  0.4383  0.5998  0.1341
 5682TIP3    H138537   0.151   1.210   3.947 -0.9112  1.3810 -0.6334
 5682TIP3    H238538   0.235   1.250   3.827  1.4231  0.1577  0.5402
 5683TIP3   OH238539   3.203   3.133  12.427 -0.5229  0.1162 -0.5035
 5683TIP3    H138540   3.293   3.162  12.445 -0.1164  0.2162 -2.5453
 5683TIP3    H238541   3.212   3.038  12.411 -0.9317 -0.0505  0.2571
 5684TIP3   OH238542   6.326   6.500   1.866 -0.1275  0.0458  0.4105
 5684TIP3    H138543   6.407   6.452   1.885  0.7634  0.6428 -1.7405
 5684TIP3    H238544   6.258   6.453   1.914  1.3462 -1.0681  1.4227
 5685TIP3   OH238545   5.362   2.862  11.231  0.0335 -0.3831 -0.0126
 5685TIP3    H138546   5.295   2.808  11.188  0.5791  0.0588 -1.4359
 5685TIP3    H238547   5.392   2.809  11.304 -0.7650 -1.2408 -0.2934
 5686TIP3   OH238548   3.769   2.113  16.259  0.0385 -0.4367  0.2061
 5686TIP3    H138549   3.808   2.159  16.333  1.0448  0.5317 -0.9078
 5686TIP3    H238550   3.811   2.028  16.258  0.9769  0.0240 -0.0210
 5687TIP3   OH238551   3.866   0.338  11.211  0.1403  0.1184  0.0079
 5687TIP3    H138552   3.821   0.303  11.287 -2.5412  1.6887 -0.8163
 5687TIP3    H238553   3.850   0.274  11.142 -0.2965  0.3685 -0.1223
 5688TIP3   OH238554   4.494   3.779  15.948 -0.2015 -0.0640 -0.5721
 5688TIP3    H138555   4.559   3.714  15.920  1.3517  2.0228 -1.9488
 5688TIP3    H238556   4.470   3.825  15.868 -1.7005  0.7131  0.3005
 5689TIP3   OH238557   2.520   2.148  11.292 -0.0516 -0.3813 -0.1401
 5689TIP3    H138558   2.599   2.198  11.276  0.0826 -1.0163 -1.5086
 5689TIP3    H238559   2.551   2.063  11.324 -0.2051 -0.3529  0.0874
 5690TIP3   OH238560   2.623   1.382   2.281 -0.1394 -0.3033  0.2673
 5690TIP3    H138561   2.532   1.406   2.264 -0.0803 -0.6401 -0.5585
 5690TIP3    H238562   2.629   1.289   2.257  0.6425 -0.0427 -0.5755
 5691TIP3   OH238563   0.096   3.374  16.321  0.6597 -0.1900 -0.2953
 5691TIP3    H138564   0.119   3.441  16.257 -1.3826  0.0037 -0.8606
 5691TIP3    H238565   0.053   3.422  16.392 -0.3363 -0.8280 -0.4576
 5692TIP3   OH238566   1.402   1.168  12.231 -0.1327 -0.3070  0.0843
 5692TIP3    H138567   1.336   1.135  12.292 -0.5466 -0.1895 -0.2944
 5692TIP3    H238568   1.447   1.237  12.280 -1.1565  0.4987 -0.0830
 5693TIP3   OH238569   4.463   4.938  15.841  0.3755  0.0370  0.2281
 5693TIP3    H138570   4.544   4.891  15.821  0.5763  0.4522  0.0652
 5693TIP3    H238571   4.408   4.874  15.886 -0.3293 -1.1145 -2.1694
 5694TIP3   OH238572   4.313   1.408   3.864  1.0565  0.0758  0.3633
 5694TIP3    H138573   4.219   1.396   3.879  1.2083 -0.4761  0.9285
 5694TIP3    H238574   4.328   1.372   3.777  1.0604 -1.6443  1.0449
 5695TIP3   OH238575   5.170   0.261   1.277 -0.1668 -0.6121 -0.1423
 5695TIP3    H138576   5.146   0.281   1.186 -1.4323 -1.4033 -0.0003
 5695TIP3    H238577   5.263   0.280   1.282 -0.2100  0.0131 -1.4511
 5696TIP3   OH238578   0.641   3.376   0.933 -0.0795  1.2969 -0.8846
 5696TIP3    H138579   0.689   3.352   1.012  0.3948  2.4904 -0.7981
 5696TIP3    H238580   0.655   3.470   0.924 -1.8054  1.5365 -1.2687
 5697TIP3   OH238581   4.897   5.483  10.810  0.0175  0.4307  0.8065
 5697TIP3    H138582   4.840   5.470  10.735  0.8837 -0.4689  0.2925
 5697TIP3    H238583   4.982   5.449  10.782  0.4478  0.4422  2.0599
 5698TIP3   OH238584   0.767   0.099   0.737  0.0062 -0.1384  0.3688
 5698TIP3    H138585   0.725   0.066   0.657 -0.0022 -0.8598  0.6591
 5698TIP3    H238586   0.828   0.029   0.763 -0.9426 -0.5045  1.7083
 5699TIP3   OH238587   0.475   2.336   1.637 -0.5606  0.3007 -0.1770
 5699TIP3    H138588   0.405   2.348   1.702 -2.3636 -0.7428 -1.8450
 5699TIP3    H238589   0.541   2.283   1.682 -0.2235  2.3355  1.8301
 5700TIP3   OH238590   4.536   1.095  11.279 -0.7890 -0.0300  0.6963
 5700TIP3    H138591   4.536   1.000  11.290 -0.8973 -0.1996 -0.6214
 5700TIP3    H238592   4.628   1.120  11.282 -0.6580 -0.3546 -0.2110
 5701TIP3   OH238593   3.230   4.214  11.959  1.3863  0.0290 -0.0544
 5701TIP3    H138594   3.182   4.195  11.879  1.0239 -1.0935  0.4229
 5701TIP3    H238595   3.205   4.304  11.981 -1.3689 -0.8830  0.7713
 5702TIP3   OH238596   1.735   1.997   4.602  0.0593  0.4484 -0.2860
 5702TIP3    H138597   1.771   1.909   4.609 -0.5212  0.1004 -1.5061
 5702TIP3    H238598   1.764   2.028   4.516 -1.8603  0.4580 -0.9629
 5703TIP3   OH238599   1.803   0.921  15.805  0.0227  0.1868 -0.0140
 5703TIP3    H138600   1.835   0.851  15.748  0.3786 -0.2097  0.6614
 5703TIP3    H238601   1.783   0.993  15.745  0.1573 -0.3064 -0.6637
 5704TIP3   OH238602   0.640   2.139   1.778 -0.5259  0.2216  0.4647
 5704TIP3    H138603   0.588   2.097   1.709 -0.3084  1.9808 -0.7966
 5704TIP3    H238604   0.699   2.070   1.809 -1.1517 -0.7959 -0.5804
 5705TIP3   OH238605   5.713   3.918  14.601 -0.4772 -0.7394  0.2205
 5705TIP3    H138606   5.753   3.841  14.562 -1.9758 -1.2860 -0.2873
 5705TIP3    H238607   5.780   3.986  14.597  1.3931 -2.4261  2.0828
 5706TIP3   OH238608   6.491   5.531  11.275 -0.2517  0.0906  0.2830
 5706TIP3    H138609   6.415   5.473  11.278 -0.1399 -0.0958 -0.4540
 5706TIP3    H238610   6.544   5.498  11.203 -0.1393  1.0543 -0.0889
 5707TIP3   OH238611   6.797   2.289  14.444 -0.9089 -0.1395  0.4461
 5707TIP3    H138612   6.732   2.296  14.514 -3.1440  0.5994 -1.6043
 5707TIP3    H238613   6.860   2.359  14.463 -1.3209 -0.1411  1.8755
 5708TIP3   OH238614   0.557   2.070   3.461 -0.0193  0.6341 -0.3068
 5708TIP3    H138615   0.471   2.063   3.502  0.1910  1.0605  0.2078
 5708TIP3    H238616   0.601   2.141   3.508  0.0250  1.5034 -1.6132
 5709TIP3   OH238617   3.221   5.435  10.555  0.6298  0.0469 -0.1483
 5709TIP3    H138618   3.137   5.446  10.599  0.4690 -1.2954 -0.0984
 5709TIP3    H238619   3.235   5.517  10.508 -0.2410  0.6479  0.6299
 5710TIP3   OH238620   2.520   0.551   4.962 -0.2003 -0.8679  0.3451
 5710TIP3    H138621   2.484   0.465   4.984 -1.6014  0.0259  1.7060
 5710TIP3    H238622   2.555   0.584   5.045 -0.3497  0.1850 -0.0024
 5711TIP3   OH238623   6.783   6.751  11.161  0.0518  0.2718 -0.3652
 5711TIP3    H138624   6.698   6.779  11.128  0.0999 -1.3821 -1.9490
 5711TIP3    H238625   6.783   6.656  11.152  0.6878 -0.1032  3.0025
 5712TIP3   OH238626   1.689   0.714  16.639  0.0185 -0.4862  0.8607
 5712TIP3    H138627   1.767   0.764  16.662 -0.0987 -0.1965  0.6295
 5712TIP3    H238628   1.641   0.705  16.721  1.4570 -2.7170  1.4889
 5713TIP3   OH238629   6.459   5.818  15.140 -0.1912  0.3554 -0.1475
 5713TIP3    H138630   6.471   5.739  15.194  2.3607  0.7171 -0.1101
 5713TIP3    H238631   6.409   5.878  15.196 -0.1298 -0.3745  0.7012
 5714TIP3   OH238632   3.174   1.115  13.536 -0.3123  0.3811 -0.0614
 5714TIP3    H138633   3.236   1.054  13.495 -0.6495 -0.8376  1.2103
 5714TIP3    H238634   3.097   1.114  13.479 -0.7072 -1.1574  0.5002
 5715TIP3   OH238635   2.845   4.965  10.463  0.1708  0.0821  0.5920
 5715TIP3    H138636   2.857   4.891  10.403  2.0432  0.8253  0.0283
 5715TIP3    H238637   2.912   4.952  10.530  0.6564  1.4146  0.3582
 5716TIP3   OH238638   6.811   5.381   0.938  0.3303  0.1123 -0.1118
 5716TIP3    H138639   6.873   5.308   0.946  0.6055  0.1798 -1.5766
 5716TIP3    H238640   6.853   5.453   0.985 -0.0737 -0.7430  1.6057
 5717TIP3   OH238641   1.311   1.010   0.682  0.1746 -0.1406  0.5736
 5717TIP3    H138642   1.334   0.928   0.639  1.0746  1.0418 -1.2292
 5717TIP3    H238643   1.308   1.075   0.612  1.2801  1.7485  2.2035
 5718TIP3   OH238644   4.703   0.485   0.812 -0.3241  0.5297 -0.4130
 5718TIP3    H138645   4.667   0.557   0.864 -1.2536 -0.4539  0.3320
 5718TIP3    H238646   4.698   0.516   0.721  0.3690  1.8582 -0.0106
 5719TIP3   OH238647   5.895   5.774  15.382  0.0701 -0.2603  0.0971
 5719TIP3    H138648   5.812   5.806  15.346 -0.5925 -0.6206  1.2753
 5719TIP3    H238649   5.960   5.840  15.355 -0.8824  0.8951  0.5782
 5720TIP3   OH238650   2.819   4.477   2.711  0.2627  0.6143 -0.4924
 5720TIP3    H138651   2.730   4.502   2.686 -1.3027 -2.3852  1.8562
 5720TIP3    H238652   2.838   4.530   2.788 -0.2675 -0.2299  0.2148
 5721TIP3   OH238653   3.876   3.899  12.329  0.0208 -0.6365 -0.0243
 5721TIP3    H138654   3.941   3.944  12.275 -1.1092  0.2077 -0.7121
 5721TIP3    H238655   3.842   3.829  12.273 -1.4461  0.4937 -0.5956
 5722TIP3   OH238656   2.202   0.685   2.737 -0.6908  0.2155 -0.2418
 5722TIP3    H138657   2.294   0.664   2.722 -0.6818 -0.1564  0.3175
 5722TIP3    H238658   2.204   0.751   2.806 -0.9166 -1.1032  1.0568
 5723TIP3   OH238659   2.867   3.602   4.558 -0.0137 -0.3117  0.0477
 5723TIP3    H138660   2.801   3.535   4.578  1.1250 -1.2984  0.5706
 5723TIP3    H238661   2.946   3.571   4.602  1.1021  0.2819 -1.4823
 5724TIP3   OH238662   3.386   6.059   4.791  0.3458 -0.2114 -0.8066
 5724TIP3    H138663   3.340   6.028   4.713  0.9249 -1.7766 -0.5291
 5724TIP3    H238664   3.471   6.016   4.787  0.5679  0.1211  0.4156
 5725TIP3   OH238665   5.136   4.680   1.052 -0.4308 -0.2417  0.1302
 5725TIP3    H138666   5.166   4.742   1.118 -0.8644  0.0850  0.0173
 5725TIP3    H238667   5.045   4.705   1.034 -1.1311 -1.9336  1.2786
 5726TIP3   OH238668   1.717   6.672   6.081 -0.2575 -0.3622 -0.3453
 5726TIP3    H138669   1.779   6.741   6.107 -1.0319  0.4425 -0.5970
 5726TIP3    H238670   1.727   6.605   6.148 -0.6352  0.7099  0.8114
 5727TIP3   OH238671   1.650   0.601  10.617 -0.2635  0.0447  0.8132
 5727TIP3    H138672   1.682   0.565  10.700  1.1697 -0.1001  0.2194
 5727TIP3    H238673   1.644   0.695  10.633  4.0656  0.5899 -0.1337
 5728TIP3   OH238674   5.016   5.147  13.492 -0.3421  0.7149  0.0315
 5728TIP3    H138675   5.106   5.175  13.475 -0.3199  0.9170  0.4712
 5728TIP3    H238676   4.965   5.228  13.487 -0.2351  0.9109  1.6266
 5729TIP3   OH238677   0.438   3.949  16.311 -0.1211  0.5004  0.4892
 5729TIP3    H138678   0.522   3.905  16.301 -0.3326  0.6169 -2.1297
 5729TIP3    H238679   0.414   3.936  16.403  1.4731 -1.8246  0.5923
 5730TIP3   OH238680   3.912   5.146   4.806 -0.4176  0.3181  0.0300
 5730TIP3    H138681   3.918   5.241   4.796 -1.2171  0.3396 -0.2478
 5730TIP3    H238682   3.846   5.132   4.874  0.4696 -0.0100  0.8344
 5731TIP3   OH238683   1.567   0.363   4.489  0.2832  0.4420  0.3619
 5731TIP3    H138684   1.650   0.328   4.520  0.1173 -0.2955 -0.0220
 5731TIP3    H238685   1.528   0.292   4.439 -1.5545  0.0395  2.2935
 5732TIP3   OH238686   2.889   2.464  13.296  0.6318  0.1090  0.5479
 5732TIP3    H138687   2.849   2.455  13.383  1.9491  2.4089  1.4376
 5732TIP3    H238688   2.982   2.447  13.311  0.8977  0.7052 -0.3897
 5733TIP3   OH238689   1.236   4.547   3.416  0.0124 -0.1770 -0.4882
 5733TIP3    H138690   1.286   4.493   3.478 -1.1533 -1.1417 -0.3638
 5733TIP3    H238691   1.276   4.529   3.331  1.4090  0.9038 -0.0709
 5734TIP3   OH238692   2.839   2.665  16.415 -0.2575 -0.2771  0.3044
 5734TIP3    H138693   2.841   2.741  16.356 -1.9364  0.7337  1.4992
 5734TIP3    H238694   2.789   2.599  16.367  0.1127 -0.1818 -0.2186
 5735TIP3   OH238695   1.362   2.287  15.448 -0.2863 -0.3032 -0.0204
 5735TIP3    H138696   1.364   2.376  15.483  1.3420 -0.3126 -0.0838
 5735TIP3    H238697   1.360   2.231  15.526 -0.6191 -0.2405  0.0184
 5736TIP3   OH238698   0.001   1.908   5.436  0.5052  0.3119 -0.3739
 5736TIP3    H138699   0.064   1.924   5.365 -0.0428 -1.3543 -1.2604
 5736TIP3    H238700  -0.084   1.910   5.393  0.2989 -2.8617 -0.1867
 5737TIP3   OH238701   3.011   4.477   4.593  0.3922  0.0763  0.0204
 5737TIP3    H138702   3.003   4.546   4.660 -2.5340 -1.3632  1.2665
 5737TIP3    H238703   2.944   4.500   4.528 -0.3840 -1.3794  0.2885
 5738TIP3   OH238704   5.372   5.790   5.865 -0.3192 -0.4192  0.1735
 5738TIP3    H138705   5.361   5.761   5.955  1.1844  0.5935  0.6902
 5738TIP3    H238706   5.307   5.859   5.854  2.3991  2.5332  1.8881
 5739TIP3   OH238707   2.507   0.845   4.699 -0.4290 -0.7160 -0.1518
 5739TIP3    H138708   2.485   0.791   4.623  1.1264 -0.2079 -0.9763
 5739TIP3    H238709   2.422   0.872   4.734 -1.1897 -2.0784 -0.8816
 5740TIP3   OH238710   2.989   2.702  14.767 -0.4870 -0.6148 -0.4483
 5740TIP3    H138711   2.945   2.691  14.683 -1.2678  0.9347 -0.2558
 5740TIP3    H238712   2.968   2.792  14.793  1.3282 -0.4468  0.4888
 5741TIP3   OH238713   5.618   6.523   5.226  0.0205 -0.3610  0.2519
 5741TIP3    H138714   5.613   6.459   5.156  0.9889  0.0079 -0.1531
 5741TIP3    H238715   5.572   6.481   5.299 -0.9615 -0.7555 -0.5782
 5742TIP3   OH238716   0.659   1.660  12.565  0.4641 -0.2132 -0.1196
 5742TIP3    H138717   0.570   1.684  12.593  0.7046  1.2219 -0.5593
 5742TIP3    H238718   0.652   1.567  12.541 -0.8256 -0.2203  0.2339
 5743TIP3   OH238719   1.693   0.596  16.906  0.0997 -0.2316  0.1597
 5743TIP3    H138720   1.676   0.515  16.859  1.7164  1.1141 -2.9048
 5743TIP3    H238721   1.742   0.568  16.984 -1.3672 -2.3671  0.3766
 5744TIP3   OH238722   2.722   5.744   6.614 -0.0706  0.2933 -0.1027
 5744TIP3    H138723   2.712   5.688   6.691  1.8462 -0.7193 -0.5596
 5744TIP3    H238724   2.782   5.813   6.642 -0.3507  0.6307 -0.3274
 5745TIP3   OH238725   3.373   3.539   2.847 -0.0611  0.5922  0.4510
 5745TIP3    H138726   3.295   3.582   2.813  0.8509  2.6471  0.9369
 5745TIP3    H238727   3.342   3.494   2.926 -0.3166  3.3215  1.9679
 5746TIP3   OH238728   0.817   2.231   0.523  0.2439  0.0819 -0.0145
 5746TIP3    H138729   0.834   2.139   0.500  0.0031 -0.3320  1.3917
 5746TIP3    H238730   0.854   2.240   0.611  0.1844  1.3189 -0.1126
 5747TIP3   OH238731   4.247   4.315  13.483 -0.2029  0.0897  0.2563
 5747TIP3    H138732   4.284   4.231  13.511 -2.5891 -0.7825  0.8972
 5747TIP3    H238733   4.190   4.293  13.410  0.3956  1.4011 -0.6304
 5748TIP3   OH238734   5.639   0.388   4.416  0.0038  0.1456  0.1463
 5748TIP3    H138735   5.666   0.303   4.452  1.1401  1.1185  1.6885
 5748TIP3    H238736   5.547   0.376   4.392  0.2268 -1.6028  0.0753
 5749TIP3   OH238737   6.542   6.529  14.902 -0.5035  0.6588  0.0603
 5749TIP3    H138738   6.616   6.565  14.853 -0.6165  1.2001  0.2953
 5749TIP3    H238739   6.530   6.587  14.976 -0.0775 -0.3970  0.9737
 5750TIP3   OH238740   0.871   1.283   4.351  0.2317 -0.2843 -0.0814
 5750TIP3    H138741   0.915   1.334   4.283  0.9680 -0.1292  0.5019
 5750TIP3    H238742   0.804   1.341   4.386  0.0537 -0.2592 -0.4611
 5751TIP3   OH238743   0.419   0.571  14.479 -0.3038  0.0691  0.1109
 5751TIP3    H138744   0.504   0.532  14.499  0.2044  0.5691 -1.0037
 5751TIP3    H238745   0.366   0.499  14.444 -0.5873 -0.3974  1.4585
 5752TIP3   OH238746   0.300   6.298   0.947  0.1437 -0.3140  0.1709
 5752TIP3    H138747   0.348   6.234   0.894 -0.5191 -0.5644 -0.1361
 5752TIP3    H238748   0.361   6.370   0.960  0.1080  0.0271 -1.4639
 5753TIP3   OH238749   3.255   4.191   4.171  0.4116  0.6607  0.4697
 5753TIP3    H138750   3.272   4.096   4.170  1.8525  0.9072  0.2834
 5753TIP3    H238751   3.211   4.207   4.254  1.0998 -0.0241  0.9730
 5754TIP3   OH238752   0.167   6.594   0.919  0.7427 -0.2172  0.7803
 5754TIP3    H138753   0.259   6.617   0.932  0.5830  1.8265 -1.4284
 5754TIP3    H238754   0.169   6.519   0.859  0.9198  1.1495 -0.9430
 5755TIP3   OH238755   4.921   3.578   0.081  0.1495 -0.1705  0.2521
 5755TIP3    H138756   4.909   3.654   0.025 -0.7473 -0.4806  0.0170
 5755TIP3    H238757   4.937   3.505   0.021  0.0283 -0.3469  0.4305
 5756TIP3   OH238758   6.786   6.712   3.287  0.2859 -0.0571 -0.2981
 5756TIP3    H138759   6.842   6.693   3.213  0.3487 -0.1669 -0.2223
 5756TIP3    H238760   6.710   6.655   3.275  0.5059 -0.4085 -0.0334
 5757TIP3   OH238761   0.535   2.327   4.792 -0.8022  0.1605  0.3997
 5757TIP3    H138762   0.505   2.268   4.723 -0.6085 -1.5024  1.6916
 5757TIP3    H238763   0.468   2.394   4.798 -1.3679 -0.3087 -0.6655
 5758TIP3   OH238764   3.783   3.752   0.952 -0.3127 -0.0920 -0.2310
 5758TIP3    H138765   3.698   3.713   0.933  0.1030 -0.5199 -1.2043
 5758TIP3    H238766   3.840   3.678   0.972  0.4434  0.0044 -1.9577
 5759TIP3   OH238767   0.920   3.679  11.431 -0.4914  0.1502 -0.4516
 5759TIP3    H138768   0.999   3.625  11.444  0.9346  1.8299 -1.7942
 5759TIP3    H238769   0.936   3.758  11.483 -0.6025  1.1514 -1.9159
 5760TIP3   OH238770   0.432   5.763  13.303 -0.0672 -0.2958 -0.3272
 5760TIP3    H138771   0.351   5.720  13.332 -0.6283  0.1165 -1.2337
 5760TIP3    H238772   0.460   5.711  13.227  2.4074 -2.5075  1.9963
 5761TIP3   OH238773   2.895   6.032  16.535 -0.4795 -0.0378  0.0855
 5761TIP3    H138774   2.835   6.033  16.610  0.1264 -0.7053  0.5908
 5761TIP3    H238775   2.950   6.109  16.548 -1.8229  1.1021 -0.8819
 5762TIP3   OH238776   6.360   2.165   1.808  0.0947 -0.0910  0.2493
 5762TIP3    H138777   6.381   2.073   1.822 -0.4613 -0.3705 -0.7079
 5762TIP3    H238778   6.429   2.213   1.853 -0.2220 -0.9672  1.7117
 5763TIP3   OH238779   6.342   6.648  15.344  0.3321  0.8695  0.0295
 5763TIP3    H138780   6.365   6.556  15.357 -0.4325  0.6923  0.1794
 5763TIP3    H238781   6.389   6.674  15.265 -0.2758  0.0487 -0.6136
 5764TIP3   OH238782   6.466   1.210   1.828 -0.5065  0.1228  0.0382
 5764TIP3    H138783   6.408   1.163   1.768  0.1294 -0.2575 -0.2915
 5764TIP3    H238784   6.553   1.172   1.811 -0.1924  0.5711  0.6343
 5765TIP3   OH238785   3.076   6.341   1.020 -0.7276 -0.2136  0.2321
 5765TIP3    H138786   3.154   6.311   1.066 -1.6984 -1.0923  1.3537
 5765TIP3    H238787   3.058   6.427   1.059 -0.8509 -0.4230  0.6442
 5766TIP3   OH238788   6.548   3.314   6.066  0.5563  0.1386  0.1027
 5766TIP3    H138789   6.481   3.381   6.074 -0.3256 -0.6705 -0.3879
 5766TIP3    H238790   6.508   3.235   6.103  1.6986 -0.0491  0.9841
 5767TIP3   OH238791   6.818   6.200   5.127 -0.0401  0.0988 -0.1774
 5767TIP3    H138792   6.786   6.287   5.103 -1.0831 -0.1046  0.4811
 5767TIP3    H238793   6.740   6.146   5.136  0.6045 -0.9544 -0.7188
 5768TIP3   OH238794   3.041   3.072  16.390 -0.0291 -0.0198  0.0963
 5768TIP3    H138795   2.972   3.027  16.341 -0.2792 -0.1960  0.6074
 5768TIP3    H238796   2.996   3.146  16.431 -0.0288 -0.4595  0.8851
 5769TIP3   OH238797   1.956   1.216  14.031  0.0667  0.0335 -0.1321
 5769TIP3    H138798   1.959   1.261  14.116  0.6828 -2.6459  1.3467
 5769TIP3    H238799   1.891   1.147  14.044  0.2259 -0.4426 -1.8261
 5770TIP3   OH238800   5.744   2.983   5.325 -0.0989 -0.2028  0.1071
 5770TIP3    H138801   5.771   2.999   5.416  0.8735 -0.7379 -0.0833
 5770TIP3    H238802   5.671   3.043   5.311 -0.2965 -0.1624  1.2662
 5771TIP3   OH238803   3.912   5.955  12.923 -0.0590  0.2936  0.2112
 5771TIP3    H138804   3.848   5.934  12.856  0.1464 -0.8776  0.3838
 5771TIP3    H238805   3.861   5.971  13.002 -0.2162  0.5479  0.0592
 5772TIP3   OH238806   2.500   5.739  12.923 -0.2118 -0.5261  0.5041
 5772TIP3    H138807   2.563   5.804  12.891  0.9716 -0.8889  2.0445
 5772TIP3    H238808   2.519   5.661  12.871  0.6255 -0.6334  0.9594
 5773TIP3   OH238809   6.184   0.036  12.689 -0.2883 -0.4646 -0.0346
 5773TIP3    H138810   6.193   0.117  12.739  0.5281  0.2426 -1.3068
 5773TIP3    H238811   6.273   0.008  12.671 -0.5692 -0.8710 -0.8256
 5774TIP3   OH238812   2.938   3.796  15.523  0.6112 -0.3828  0.0414
 5774TIP3    H138813   2.885   3.734  15.473 -0.9512 -1.2498  2.6546
 5774TIP3    H238814   2.903   3.882  15.500 -0.2342 -0.7842 -0.1875
 5775TIP3   OH238815   4.258   5.064   3.396 -0.2167  0.0582 -0.3642
 5775TIP3    H138816   4.311   5.096   3.323  0.9584 -3.7537 -1.2984
 5775TIP3    H238817   4.167   5.074   3.366  0.2038  0.1842 -1.6270
 5776TIP3   OH238818   2.024   3.899   1.563 -0.2124  0.0838  0.1641
 5776TIP3    H138819   2.033   3.873   1.655 -0.3114 -1.0590 -0.1414
 5776TIP3    H238820   1.971   3.830   1.523 -0.8354  0.9719 -0.5842
 5777TIP3   OH238821   0.392   5.369   2.939  0.5336 -0.2964 -0.8987
 5777TIP3    H138822   0.390   5.322   3.023 -0.7967 -0.2938 -0.9181
 5777TIP3    H238823   0.305   5.356   2.902  0.9959  0.0003 -2.1309
 5778TIP3   OH238824   3.188   3.982  16.210  0.1227 -0.0936 -0.2789
 5778TIP3    H138825   3.171   4.002  16.303 -0.9004  0.9293 -0.6679
 5778TIP3    H238826   3.235   3.899  16.212  0.9196  0.3625  1.2068
 5779TIP3   OH238827   0.932   2.093  13.054 -0.1467  0.3919  0.0988
 5779TIP3    H138828   0.985   2.172  13.043 -0.4371  0.9104  2.1586
 5779TIP3    H238829   0.970   2.049  13.130 -1.3242 -0.3334  0.2869
 5780TIP3   OH238830   0.315   6.123  13.624  0.1054 -0.1456 -0.4062
 5780TIP3    H138831   0.363   6.074  13.557 -0.3073 -0.8344 -0.2079
 5780TIP3    H238832   0.374   6.124  13.700  0.2044 -0.1572 -0.4823
 5781TIP3   OH238833   4.598   6.109   3.129 -0.0710  0.1240  0.0608
 5781TIP3    H138834   4.645   6.026   3.139  0.0951  0.1754 -0.2811
 5781TIP3    H238835   4.664   6.176   3.149  0.1926  0.2197 -1.0763
 5782TIP3   OH238836   2.879   0.626   2.102 -0.5584  0.3608  0.3655
 5782TIP3    H138837   2.943   0.623   2.174 -0.0824  1.3184 -0.0138
 5782TIP3    H238838   2.831   0.544   2.110 -0.6377  0.5452  1.9094
 5783TIP3   OH238839   0.476   6.248  14.879 -0.4003 -0.0087  0.0631
 5783TIP3    H138840   0.426   6.196  14.941  0.4940  0.0422  0.8464
 5783TIP3    H238841   0.533   6.185  14.834 -0.6564  0.0311 -0.3176
 5784TIP3   OH238842   0.476   6.029  17.003 -0.1098 -0.7357  0.3304
 5784TIP3    H138843   0.566   6.014  17.033 -0.0504  0.3249  0.6916
 5784TIP3    H238844   0.455   6.117  17.033 -1.0724 -0.7612 -0.2511
 5785TIP3   OH238845   5.789   1.285  12.428  0.1775 -0.0165  0.3424
 5785TIP3    H138846   5.848   1.223  12.470 -1.7283 -1.0617  1.5882
 5785TIP3    H238847   5.756   1.339  12.501 -1.0128 -0.0155 -0.1785
 5786TIP3   OH238848   4.941   4.344  15.921  0.1471  0.1289 -0.0378
 5786TIP3    H138849   4.921   4.259  15.961 -0.0465  0.0622 -0.2730
 5786TIP3    H238850   4.996   4.388  15.985  2.6578 -1.3044 -1.1105
 5787TIP3   OH238851   1.902   5.192   5.512  0.3911 -0.6470 -1.1044
 5787TIP3    H138852   1.898   5.170   5.418  0.3163 -1.0961 -0.9973
 5787TIP3    H238853   1.923   5.109   5.555  0.1885 -0.4881 -0.6994
 5788TIP3   OH238854   0.374   1.151  16.052 -0.0572  0.0406 -0.1154
 5788TIP3    H138855   0.349   1.178  16.140  0.8335  2.0231 -0.4556
 5788TIP3    H238856   0.310   1.193  15.994 -0.5395 -1.1143 -0.4361
 5789TIP3   OH238857   0.837   6.717  13.218  0.2511  0.0269  0.0787
 5789TIP3    H138858   0.926   6.680  13.225  0.7851  1.5448  1.3546
 5789TIP3    H238859   0.787   6.648  13.174  1.2145 -2.2921  2.4705
 5790TIP3   OH238860   5.760   0.865  14.020 -0.2707  0.2450  0.0104
 5790TIP3    H138861   5.701   0.904  13.956  0.5046 -0.2519 -1.0217
 5790TIP3    H238862   5.784   0.781  13.981 -1.5851 -1.0883  1.9940
 5791TIP3   OH238863   2.400   6.615   4.662 -0.0021  0.0437 -0.3283
 5791TIP3    H138864   2.319   6.666   4.667 -0.0986 -0.1710  0.4940
 5791TIP3    H238865   2.425   6.601   4.754  0.3925 -0.7886 -0.5528
 5792TIP3   OH238866   4.066   0.866   1.986  0.0537  0.1061  0.0356
 5792TIP3    H138867   4.156   0.833   1.984  0.7380  1.9116 -0.4920
 5792TIP3    H238868   4.042   0.877   1.894 -1.1642 -1.5326  0.1484
 5793TIP3   OH238869   5.139   6.154   1.215 -0.0976  0.1463  0.3814
 5793TIP3    H138870   5.074   6.085   1.226  0.3873 -0.2937  0.4912
 5793TIP3    H238871   5.168   6.145   1.124  0.1754  0.0214  0.4813
 5794TIP3   OH238872   6.744   1.462   5.946  0.1370 -0.1928  0.7289
 5794TIP3    H138873   6.692   1.525   5.896  0.6513 -0.8204 -0.6138
 5794TIP3    H238874   6.825   1.453   5.896  0.3136 -1.4770  1.2307
 5795TIP3   OH238875   3.172   5.439  13.822 -0.3792  0.3535  0.4708
 5795TIP3    H138876   3.256   5.454  13.865 -0.4484  0.3630  0.6016
 5795TIP3    H238877   3.166   5.343  13.815 -0.1973  0.3641  0.1434
 5796TIP3   OH238878   1.756   5.855  14.367 -0.1010 -0.0916  0.1717
 5796TIP3    H138879   1.697   5.784  14.342 -1.8201  0.7120  1.7881
 5796TIP3    H238880   1.813   5.816  14.434 -1.6653  0.2768  1.7491
 5797TIP3   OH238881   3.036   4.666   4.994  0.0253 -0.0882 -0.1040
 5797TIP3    H138882   3.072   4.618   5.068  1.0363 -0.3857 -0.7878
 5797TIP3    H238883   2.942   4.666   5.009  0.2210 -0.1992  1.1524
 5798TIP3   OH238884   1.888   5.982  13.483 -0.2528 -0.1838  0.0578
 5798TIP3    H138885   1.906   6.054  13.422  0.0821  0.8112  1.3210
 5798TIP3    H238886   1.831   5.922  13.433 -0.1493  0.7096 -1.1576
 5799TIP3   OH238887   1.894   2.556  16.675  0.4025  0.0678  0.5151
 5799TIP3    H138888   1.845   2.625  16.630 -0.2524 -0.7442 -0.0147
 5799TIP3    H238889   1.983   2.564  16.640  0.5956  1.3475  1.2610
 5800TIP3   OH238890   1.086   0.493  14.708  0.2263 -0.2471  0.5195
 5800TIP3    H138891   1.011   0.475  14.651  0.1167 -0.6616  0.7910
 5800TIP3    H238892   1.054   0.560  14.768  0.6884  0.9949 -0.6062
 5801TIP3   OH238893   5.489   6.241   1.949  0.0369 -0.3461  0.0401
 5801TIP3    H138894   5.426   6.216   1.882 -0.9541  1.4841  0.2554
 5801TIP3    H238895   5.450   6.209   2.031 -0.5317  0.6182  0.1515
 5802TIP3   OH238896   3.406   2.815   2.269 -0.4978 -0.2202  0.4111
 5802TIP3    H138897   3.473   2.746   2.270 -0.0149  0.2066 -1.2787
 5802TIP3    H238898   3.444   2.887   2.319 -0.1384 -0.3727  0.3531
 5803TIP3   OH238899   6.268   0.553  11.715  0.2427 -0.7408  0.1107
 5803TIP3    H138900   6.277   0.550  11.620  2.0878  0.9372  0.1823
 5803TIP3    H238901   6.175   0.567  11.731 -0.0154 -0.6405 -1.4576
 5804TIP3   OH238902   1.384   5.125  16.897  0.5726 -0.1270  0.3007
 5804TIP3    H138903   1.432   5.047  16.870  0.3371 -0.5024  0.9444
 5804TIP3    H238904   1.333   5.150  16.820  0.4909 -0.7312  0.1589
 5805TIP3   OH238905   2.529   5.500  12.782  0.1064 -0.1894 -0.4594
 5805TIP3    H138906   2.580   5.440  12.837 -0.7410  0.0782  0.6381
 5805TIP3    H238907   2.454   5.447  12.754 -0.3115  0.1697 -0.0131
 5806TIP3   OH238908   4.113   1.989   5.799  0.1911 -0.1854  0.0295
 5806TIP3    H138909   4.073   2.076   5.803 -0.0559 -0.3052  0.1197
 5806TIP3    H238910   4.190   1.995   5.856  0.7705  0.2925 -0.7737
 5807TIP3   OH238911   5.239   0.381  11.439 -0.3211 -0.4520 -0.5028
 5807TIP3    H138912   5.218   0.293  11.469  0.1970 -0.0880  0.9760
 5807TIP3    H238913   5.294   0.418  11.508  0.1824  0.7308 -1.4982
 5808TIP3   OH238914   2.291   0.184   5.558  0.5995 -1.1014  0.0801
 5808TIP3    H138915   2.326   0.112   5.611  1.6551 -1.5752 -1.2301
 5808TIP3    H238916   2.349   0.188   5.482 -0.2239  0.3054 -0.4904
 5809TIP3   OH238917   0.696   4.754  11.414  0.5048 -0.6452 -0.2747
 5809TIP3    H138918   0.763   4.697  11.450 -2.8551 -2.3816  3.6947
 5809TIP3    H238919   0.634   4.695  11.371 -2.3092 -0.0711  2.7176
 5810TIP3   OH238920   6.638   3.179  12.954  0.8099 -0.1160 -0.2405
 5810TIP3    H138921   6.683   3.120  13.014 -0.0854 -1.2978 -0.7224
 5810TIP3    H238922   6.673   3.158  12.868 -0.2564 -0.6634 -0.5458
 5811TIP3   OH238923   1.566   1.411   0.018  0.2254  0.3362 -0.3739
 5811TIP3    H138924   1.511   1.333   0.017  0.6465  0.0365 -1.8427
 5811TIP3    H238925   1.543   1.457  -0.063  2.0787  0.2255 -0.9864
 5812TIP3   OH238926   1.387   6.539   4.024 -0.0889  0.8396 -0.6588
 5812TIP3    H138927   1.326   6.470   4.000 -0.0435  0.8902 -0.9245
 5812TIP3    H238928   1.433   6.560   3.943 -1.5538  2.6225 -1.0778
 5813TIP3   OH238929   1.467   2.413  11.799 -0.4370  0.1318  0.4295
 5813TIP3    H138930   1.481   2.375  11.885 -0.3418 -0.3890  0.1865
 5813TIP3    H238931   1.547   2.462  11.780 -1.1053  1.6052  1.3269
 5814TIP3   OH238932   5.920   6.325  16.225  0.5037  0.6927 -0.2218
 5814TIP3    H138933   5.980   6.288  16.290 -0.9894 -1.1478  0.1716
 5814TIP3    H238934   5.972   6.330  16.145  1.4121 -0.1800  0.2931
 5815TIP3   OH238935   0.401   2.714   1.368 -0.2710  0.0184  0.5879
 5815TIP3    H138936   0.364   2.802   1.371  0.6503  0.3640  3.7488
 5815TIP3    H238937   0.347   2.662   1.427  0.1014 -1.1985 -0.1059
 5816TIP3   OH238938   5.121   6.501  11.916  0.0404  0.7929  0.6398
 5816TIP3    H138939   5.082   6.432  11.862  0.0015 -0.6042  2.3983
 5816TIP3    H238940   5.059   6.573  11.912 -0.9119 -0.0288  0.4102
 5817TIP3   OH238941   3.434   6.037  12.952  0.2392  0.1212 -0.1068
 5817TIP3    H138942   3.521   6.060  12.984  1.6516 -1.8434 -2.3352
 5817TIP3    H238943   3.402   5.972  13.014  1.1603 -0.4920 -0.2542
 5818TIP3   OH238944   5.796   4.115  15.685 -0.4264  0.5993  0.8398
 5818TIP3    H138945   5.761   4.068  15.609 -0.4707  1.7288  0.1474
 5818TIP3    H238946   5.719   4.153  15.727 -0.2744  1.0776  0.6912
 5819TIP3   OH238947   0.675   6.010   6.076 -0.1539 -0.6213 -0.1986
 5819TIP3    H138948   0.687   5.929   6.126  0.8791  0.1508  0.8112
 5819TIP3    H238949   0.734   6.001   6.001 -1.0162 -1.3690 -0.8071
 5820TIP3   OH238950   5.812   0.818  14.639 -0.7655  0.0347 -0.7744
 5820TIP3    H138951   5.897   0.861  14.644 -0.5756 -0.5039  1.3809
 5820TIP3    H238952   5.830   0.726  14.661 -1.9427  0.0145  0.1689
 5821TIP3   OH238953   2.481   5.986  13.867  0.2059  0.6355  0.5536
 5821TIP3    H138954   2.426   5.951  13.797  1.3886 -0.4127  0.1258
 5821TIP3    H238955   2.560   5.931  13.865  1.5035  2.4551  0.7983
 5822TIP3   OH238956   1.636   5.749   0.290  0.3960  0.1021  0.0527
 5822TIP3    H138957   1.570   5.700   0.241 -1.2534  3.2524 -1.0156
 5822TIP3    H238958   1.692   5.787   0.222  2.6126 -1.5336  0.9206
 5823TIP3   OH238959   3.458   5.319  12.250 -0.1164 -0.1985  0.2810
 5823TIP3    H138960   3.516   5.377  12.300  0.1335  0.0916 -0.3374
 5823TIP3    H238961   3.516   5.276  12.187 -0.7096  0.6926 -0.8788
 5824TIP3   OH238962   5.235   0.588  14.938  0.2067  0.2156 -0.3435
 5824TIP3    H138963   5.277   0.674  14.928  0.3110  0.0846 -1.0337
 5824TIP3    H238964   5.219   0.558  14.848  1.3409 -1.0732 -0.1259
 5825TIP3   OH238965   2.138   1.757   6.978  0.2726 -0.1360  0.3016
 5825TIP3    H138966   2.093   1.836   6.948  2.1962  0.4865 -1.1043
 5825TIP3    H238967   2.091   1.731   7.057  0.1174  2.9302  1.3082
 5826TIP3   OH238968   2.145   6.736   1.734 -0.0190  0.1601 -0.1314
 5826TIP3    H138969   2.089   6.814   1.732 -0.2567  0.0035  0.3340
 5826TIP3    H238970   2.120   6.686   1.656 -2.4874 -1.2622  1.5264
 5827TIP3   OH238971   6.571   1.223   5.181 -0.1638 -0.4124  0.1066
 5827TIP3    H138972   6.478   1.240   5.168  0.1577  0.7411 -0.7863
 5827TIP3    H238973   6.575   1.131   5.210 -1.4776 -0.8380 -1.0044
 5828TIP3   OH238974   6.126   0.246  16.699 -0.2538 -0.2050  0.6760
 5828TIP3    H138975   6.161   0.334  16.686 -0.4880 -0.3812 -1.2526
 5828TIP3    H238976   6.058   0.256  16.765  0.5860  0.8513  1.3885
 5829TIP3   OH238977   3.416   3.667  13.813 -0.2154 -0.4879  0.5705
 5829TIP3    H138978   3.359   3.742  13.797 -1.8780 -1.3566  2.1899
 5829TIP3    H238979   3.402   3.610  13.737 -1.5493 -0.6941  0.9519
 5830TIP3   OH238980   0.235   5.860   5.172 -0.0784  0.3423  0.9965
 5830TIP3    H138981   0.291   5.783   5.163 -0.0981  0.3621  0.7038
 5830TIP3    H238982   0.184   5.844   5.251  0.1700  0.2150  1.1306
 5831TIP3   OH238983   0.393   4.128   4.251 -0.0974 -0.0450  0.2295
 5831TIP3    H138984   0.416   4.138   4.159 -0.1215 -0.2204  0.2044
 5831TIP3    H238985   0.454   4.185   4.298  1.4019 -1.6478  0.2884
 5832TIP3   OH238986   2.377   3.206  16.803  0.0856 -0.4789 -0.4574
 5832TIP3    H138987   2.457   3.205  16.750  1.0921 -2.5165  1.0145
 5832TIP3    H238988   2.373   3.118  16.841 -1.6691  0.3160  1.2722
 5833TIP3   OH238989   4.150   1.453  14.951  0.1908  0.5182 -0.5599
 5833TIP3    H138990   4.240   1.463  14.919  0.3774  0.0159 -0.1833
 5833TIP3    H238991   4.160   1.416  15.039 -0.3313  1.7415  0.0203
 5834TIP3   OH238992   5.463   2.694  16.491  0.1480  0.6199  0.2254
 5834TIP3    H138993   5.445   2.616  16.544  0.3778 -0.3625 -1.1431
 5834TIP3    H238994   5.434   2.672  16.403 -1.6870  2.8279  0.2274
 5835TIP3   OH238995   3.248   0.538  14.129  0.5090  0.1386  0.1183
 5835TIP3    H138996   3.243   0.551  14.224  1.3986 -1.5252  0.4173
 5835TIP3    H238997   3.213   0.450  14.116  0.3790  0.3685 -1.1104
 5836TIP3   OH238998   4.490   6.496   3.242 -0.3017  0.5678 -0.2229
 5836TIP3    H138999   4.438   6.552   3.299 -0.4891  0.1192  0.0463
 5836TIP3    H239000   4.579   6.504   3.274 -0.5868 -0.6379  0.9097
 5837TIP3   OH239001   5.616   3.935   2.322  0.1721  0.0824  0.4653
 5837TIP3    H139002   5.547   3.947   2.256 -0.0641  0.7840  0.8450
 5837TIP3    H239003   5.677   3.874   2.280 -0.8962 -0.9044  0.2996
 5838TIP3   OH239004   0.386   3.076  12.200  0.2512  0.4771 -0.0077
 5838TIP3    H139005   0.410   2.989  12.233 -0.0382 -0.5977 -2.5055
 5838TIP3    H239006   0.462   3.103  12.149 -0.6880  0.5595 -1.3595
 5839TIP3   OH239007   6.775   1.677  15.751  0.0661  0.3823 -0.5374
 5839TIP3    H139008   6.731   1.683  15.836 -0.3467 -0.9828 -0.6459
 5839TIP3    H239009   6.749   1.757  15.705 -1.9892 -0.1979 -0.4380
 5840TIP3   OH239010   6.082   2.192   5.738 -0.2879 -0.4226 -0.0850
 5840TIP3    H139011   6.173   2.211   5.760 -0.1804 -0.5637 -0.4040
 5840TIP3    H239012   6.043   2.162   5.820 -0.0984 -0.1719  0.0998
 5841TIP3   OH239013   4.539   3.061   0.152  0.1013  0.7071  0.4310
 5841TIP3    H139014   4.497   3.057   0.067 -1.0702  1.5305  0.9606
 5841TIP3    H239015   4.474   3.026   0.213  0.7051  0.6641  1.0594
 5842TIP3   OH239016   5.185   5.036  16.847 -0.4289  0.4661 -0.3979
 5842TIP3    H139017   5.128   5.040  16.769  1.3532 -1.4386 -1.8452
 5842TIP3    H239018   5.210   5.127  16.862 -2.8621  1.1861 -0.4630
 5843TIP3   OH239019   2.667   4.171  13.032 -0.3653 -0.1381  0.0358
 5843TIP3    H139020   2.755   4.199  13.057 -0.5059  0.4568 -0.1358
 5843TIP3    H239021   2.679   4.126  12.949 -0.1382 -0.6105  0.3178
 5844TIP3   OH239022   1.610   0.758   5.470 -0.4829  0.1890 -0.2995
 5844TIP3    H139023   1.683   0.800   5.516 -0.6490  0.7129 -0.5131
 5844TIP3    H239024   1.558   0.831   5.435 -0.8627 -0.1897 -0.5314
 5845TIP3   OH239025   4.616   3.417   1.179 -0.2394 -0.3231 -0.3536
 5845TIP3    H139026   4.653   3.365   1.250  1.3328 -0.4864 -1.2674
 5845TIP3    H239027   4.669   3.394   1.102 -0.9516  0.9677 -1.2579
 5846TIP3   OH239028   6.320   4.478   2.410  0.0990  0.0105 -0.8748
 5846TIP3    H139029   6.325   4.572   2.398 -0.8328  0.1183 -0.4869
 5846TIP3    H239030   6.230   4.462   2.440  0.9693 -0.7162  1.4646
 5847TIP3   OH239031   4.311   1.870  11.767 -0.5699  0.3737 -0.3588
 5847TIP3    H139032   4.373   1.891  11.697 -0.5115 -1.1511 -0.7766
 5847TIP3    H239033   4.300   1.952  11.815  0.7176  0.9924 -1.1090
 5848TIP3   OH239034   1.007   0.683  12.052  0.2357  0.2117  0.2095
 5848TIP3    H139035   0.939   0.730  12.099 -0.6144 -1.3651  0.5759
 5848TIP3    H239036   0.976   0.680  11.961  1.1020  1.8131 -0.1687
 5849TIP3   OH239037   5.976   2.920   1.389 -0.0310 -0.0838  0.1777
 5849TIP3    H139038   5.986   2.844   1.332  0.1007  0.0660  0.0017
 5849TIP3    H239039   6.003   2.994   1.336 -1.5084  0.2612 -0.1284
 5850TIP3   OH239040   3.913   4.998   1.548 -1.0471 -0.3534  0.8200
 5850TIP3    H139041   3.834   5.000   1.603 -0.9687 -0.0481  0.9244
 5850TIP3    H239042   3.985   5.006   1.610 -0.9606  0.0376  0.6714
 5851TIP3   OH239043   5.335   2.199  11.498 -0.0115  0.3576 -0.2233
 5851TIP3    H139044   5.339   2.220  11.405 -2.5835  3.7521  0.3301
 5851TIP3    H239045   5.404   2.252  11.538 -0.5454  0.8389  0.0742
 5852TIP3   OH239046   5.277   5.915  15.076 -0.1779  0.4793 -0.1317
 5852TIP3    H139047   5.298   6.005  15.099 -0.3484  0.3819  0.4012
 5852TIP3    H239048   5.226   5.923  14.995 -0.9541  0.9235  0.3877
 5853TIP3   OH239049   0.208   4.497  11.441 -0.4484  0.4024  0.0507
 5853TIP3    H139050   0.234   4.522  11.529  0.9958 -1.0156  0.0418
 5853TIP3    H239051   0.119   4.463  11.451 -0.9759  1.9249  0.6572
 5854TIP3   OH239052   3.386   6.008  14.494 -0.2776  0.2285  0.1334
 5854TIP3    H139053   3.357   6.058  14.570 -0.2057 -0.0933  0.3752
 5854TIP3    H239054   3.307   5.963  14.464 -0.3377  0.4674 -0.0708
 5855TIP3   OH239055   1.552   5.931   2.860  0.5872 -0.6504 -0.0149
 5855TIP3    H139056   1.459   5.932   2.886  0.2117  1.9940 -1.3763
 5855TIP3    H239057   1.552   5.889   2.774  0.6311 -0.4843 -0.0952
 5856TIP3   OH239058   2.940   3.452  12.466  0.4822  0.1470  0.0303
 5856TIP3    H139059   2.881   3.453  12.390 -1.7104  1.2102  1.6785
 5856TIP3    H239060   2.991   3.532  12.457  0.3423  0.1913 -0.3997
 5857TIP3   OH239061   2.105   4.924   4.092  0.0374 -0.1815  0.3806
 5857TIP3    H139062   2.161   4.847   4.084 -0.9059 -0.7226 -1.1725
 5857TIP3    H239063   2.023   4.890   4.128  0.2724  0.4219  1.5287
 5858TIP3   OH239064   4.789   0.590  12.034 -0.5671 -0.1344 -0.3709
 5858TIP3    H139065   4.808   0.541  11.953 -0.3468  0.5903 -0.7594
 5858TIP3    H239066   4.844   0.548  12.100  0.1754  0.0603 -0.8626
 5859TIP3   OH239067   0.213   4.456  15.320 -0.7763  0.0969 -0.2822
 5859TIP3    H139068   0.215   4.550  15.341 -2.6447  0.3826 -1.2865
 5859TIP3    H239069   0.150   4.419  15.381 -3.4679  0.3145 -2.8142
 5860TIP3   OH239070   0.369   4.003  17.178  0.1062 -0.1580  0.5056
 5860TIP3    H139071   0.419   4.071  17.223 -0.6768  0.6031  0.2358
 5860TIP3    H239072   0.406   3.999  17.090  0.7407 -0.7074  0.7899
 5861TIP3   OH239073   6.632   1.018  17.187 -0.2628 -0.5304 -0.2871
 5861TIP3    H139074   6.718   0.983  17.161 -1.4224 -2.2990 -1.8599
 5861TIP3    H239075   6.599   0.955  17.251 -0.8159 -0.3888 -0.4363
 5862TIP3   OH239076   2.514   1.540   3.622 -0.4546 -0.0827 -0.0369
 5862TIP3    H139077   2.590   1.497   3.662  0.2682  1.3413  0.1231
 5862TIP3    H239078   2.439   1.505   3.671  0.0315 -1.9548 -0.5981
 5863TIP3   OH239079   5.695   4.798  17.114  0.1462  0.2117  0.0732
 5863TIP3    H139080   5.763   4.860  17.140  1.2096 -1.0935  0.5028
 5863TIP3    H239081   5.694   4.733  17.184  1.2733 -1.9640 -1.8685
 5864TIP3   OH239082   0.008   5.096  15.169  0.0073 -0.5510  0.5102
 5864TIP3    H139083   0.052   5.013  15.188 -1.9073 -1.7107 -0.0420
 5864TIP3    H239084  -0.027   5.125  15.254  0.5593 -0.3430  0.6755
 5865TIP3   OH239085   1.664   3.965   0.967  0.0282 -0.3925 -0.2772
 5865TIP3    H139086   1.629   4.051   0.991  0.5022  0.0046 -1.0096
 5865TIP3    H239087   1.659   3.962   0.872  1.0038 -0.7521 -0.3239
 5866TIP3   OH239088   1.080   0.418   2.105 -0.0837 -0.3120 -1.0543
 5866TIP3    H139089   1.125   0.503   2.107  0.0255 -0.3528 -1.6627
 5866TIP3    H239090   0.987   0.440   2.098 -0.0469 -0.2468 -1.3192
 5867TIP3   OH239091   2.536   6.475  15.041 -0.6546  1.3126  0.0030
 5867TIP3    H139092   2.453   6.514  15.068 -0.2607  0.0014  3.4127
 5867TIP3    H239093   2.602   6.521  15.094  0.2428 -1.0249  0.9589
 5868TIP3   OH239094   5.235   5.979   0.540 -0.3990 -0.7354 -0.5503
 5868TIP3    H139095   5.164   6.041   0.555  0.0718 -0.7016  1.7267
 5868TIP3    H239096   5.300   6.001   0.607  0.8413 -2.1013 -1.2893
 5869TIP3   OH239097   5.495   0.215  16.657 -0.0828  0.4267 -0.5983
 5869TIP3    H139098   5.521   0.167  16.578 -3.7412  1.2878 -2.4065
 5869TIP3    H239099   5.559   0.287  16.663 -0.3502  0.9519 -3.3683
 5870TIP3   OH239100   6.519   3.162   5.786  0.1533 -0.0786  0.9318
 5870TIP3    H139101   6.464   3.100   5.834  0.3639 -1.9108 -1.0766
 5870TIP3    H239102   6.606   3.151   5.823 -0.0895  0.0873  1.5608
 5871TIP3   OH239103   5.758   5.087  13.308  0.0387 -0.0165  0.0764
 5871TIP3    H139104   5.794   5.001  13.284 -0.7818 -0.3408 -0.0251
 5871TIP3    H239105   5.723   5.122  13.226 -0.2418  0.1070  0.2473
 5872TIP3   OH239106   0.773   5.042   2.325 -0.3664  0.6918 -0.6706
 5872TIP3    H139107   0.801   4.975   2.388 -1.3670  0.8573 -0.0432
 5872TIP3    H239108   0.810   5.124   2.359  0.5900  0.5221 -1.2683
 5873TIP3   OH239109   5.539   3.669  11.165  0.0284 -1.0071  0.2770
 5873TIP3    H139110   5.483   3.682  11.089 -0.4882 -2.3510  0.3966
 5873TIP3    H239111   5.622   3.709  11.141 -1.0966  1.4287  0.2691
 5874TIP3   OH239112   5.583   1.917   0.781  0.5118  0.4007 -0.0154
 5874TIP3    H139113   5.675   1.937   0.795  0.4980  0.7169 -0.3697
 5874TIP3    H239114   5.551   1.987   0.723  0.0188  0.3709  0.2159
 5875TIP3   OH239115   4.662   6.273  17.044 -0.3148 -0.1667 -0.2792
 5875TIP3    H139116   4.703   6.309  16.965 -0.5420 -1.2552 -0.9015
 5875TIP3    H239117   4.726   6.287  17.113  1.5065 -2.6227 -1.3926
 5876TIP3   OH239118   4.706   6.675   0.519 -0.1242 -0.2492  0.9719
 5876TIP3    H139119   4.747   6.588   0.518  1.6765  0.5798  0.2104
 5876TIP3    H239120   4.776   6.735   0.544 -1.0107  1.1597  0.1760
 5877TIP3   OH239121   6.652   2.986   5.229 -0.1414  0.2297 -0.4319
 5877TIP3    H139122   6.686   2.922   5.293 -3.3301 -0.6787  0.4511
 5877TIP3    H239123   6.663   2.943   5.144 -1.0749 -0.9846  0.0436
 5878TIP3   OH239124   4.647   2.096   1.770  0.8565  0.5901 -0.8234
 5878TIP3    H139125   4.704   2.026   1.802  3.0766  0.5894 -4.4959
 5878TIP3    H239126   4.694   2.177   1.793  0.3027  0.7471 -0.2276
 5879TIP3   OH239127   3.461   4.397   3.386  0.1939 -0.1435  0.3155
 5879TIP3    H139128   3.386   4.341   3.368 -0.0260  0.3197 -0.2473
 5879TIP3    H239129   3.524   4.340   3.430 -0.2012 -0.7163  0.1440
 5880TIP3   OH239130   2.250   1.808  15.338 -0.3063  0.1069  0.0504
 5880TIP3    H139131   2.278   1.794  15.429  0.9152 -1.7569 -0.5682
 5880TIP3    H239132   2.155   1.818  15.343 -0.4077 -1.3303  1.4162
 5881TIP3   OH239133   6.751   3.926  10.363  0.4513 -0.6130  0.0273
 5881TIP3    H139134   6.796   3.845  10.387  1.4387 -0.0027  0.2778
 5881TIP3    H239135   6.821   3.986  10.337 -0.2801  0.1129 -0.3040
 5882TIP3   OH239136   4.539   5.463  12.354 -0.4694 -0.4719  0.2256
 5882TIP3    H139137   4.627   5.427  12.348 -0.2237  0.1230  0.2234
 5882TIP3    H239138   4.489   5.414  12.289 -0.1063 -0.7088  0.1228
 5883TIP3   OH239139   6.197   2.123   3.545  0.2004  0.1328  0.1745
 5883TIP3    H139140   6.286   2.100   3.518 -0.1126 -2.4208  1.1540
 5883TIP3    H239141   6.153   2.147   3.464  1.7775  1.4420 -0.3167
 5884TIP3   OH239142   2.557   0.928  15.034 -0.2601 -0.3257  0.6474
 5884TIP3    H139143   2.644   0.956  15.004 -0.2623  0.9383  1.7849
 5884TIP3    H239144   2.571   0.842  15.074  0.5167  0.0081  1.0904
 5885TIP3   OH239145   5.116   4.410   1.140  0.4284 -0.6182  0.2018
 5885TIP3    H139146   5.164   4.491   1.121 -0.7529  0.1330  0.3558
 5885TIP3    H239147   5.042   4.411   1.079  0.0045 -1.2195  0.6978
 5886TIP3   OH239148   0.701   0.710   0.095  0.2614  0.5275  0.0134
 5886TIP3    H139149   0.692   0.716  -0.000 -0.2745  1.8957  0.1384
 5886TIP3    H239150   0.624   0.755   0.129 -1.0355 -2.4329  1.1108
 5887TIP3   OH239151   1.890   1.709  13.103 -0.2434  0.1001  0.2441
 5887TIP3    H139152   1.812   1.659  13.128 -0.9464  1.2012  0.3228
 5887TIP3    H239153   1.934   1.727  13.186 -1.7879  2.4810  0.5857
 5888TIP3   OH239154   0.826   6.685  12.690 -1.2860  0.1395 -0.2687
 5888TIP3    H139155   0.815   6.733  12.772  0.2295 -0.8495  0.5336
 5888TIP3    H239156   0.899   6.730  12.646  0.9471 -2.0970  1.0325
 5889TIP3   OH239157   5.672   6.426  15.912  0.0359 -0.1745 -0.2842
 5889TIP3    H139158   5.664   6.504  15.968  1.6339 -0.7849  0.8204
 5889TIP3    H239159   5.623   6.358  15.959  0.4599 -0.3949 -0.1522
 5890TIP3   OH239160   1.044   5.495  11.380 -0.1671 -0.7750  0.4852
 5890TIP3    H139161   0.989   5.538  11.313 -0.7502 -1.0046  0.8098
 5890TIP3    H239162   1.039   5.402  11.358  2.6348 -0.5475 -1.3701
 5891TIP3   OH239163   0.322   4.455  14.320  0.0624 -0.2399  0.3239
 5891TIP3    H139164   0.392   4.391  14.329  0.4988  0.0309 -0.9682
 5891TIP3    H239165   0.355   4.533  14.363  0.4255 -0.2223  0.0222
 5892TIP3   OH239166   0.171   4.029  16.227 -0.5159  0.2105  0.3315
 5892TIP3    H139167   0.156   4.097  16.293  0.3102  0.2220  0.5110
 5892TIP3    H239168   0.252   3.986  16.255 -0.3923 -0.0618 -0.4485
 5893TIP3   OH239169   3.802   3.799  10.812 -0.1694  0.3146 -0.2546
 5893TIP3    H139170   3.767   3.733  10.752 -1.0668 -0.5170  1.1609
 5893TIP3    H239171   3.729   3.859  10.826 -0.1690  0.1351  0.5201
 5894TIP3   OH239172   2.175   6.051  16.712 -0.2948  0.1750  0.3014
 5894TIP3    H139173   2.101   5.991  16.717 -1.0307  0.9197 -1.2977
 5894TIP3    H239174   2.182   6.088  16.800 -1.1009 -0.7563  0.7634
 5895TIP3   OH239175   5.517   2.683  10.422 -0.3169  0.0241 -0.3886
 5895TIP3    H139176   5.550   2.718  10.339 -0.3455 -1.6371 -1.1239
 5895TIP3    H239177   5.427   2.657  10.403 -0.0708 -1.0816 -0.0383
 5896TIP3   OH239178   1.160   6.097   0.160  0.3449  0.1035  0.5889
 5896TIP3    H139179   1.072   6.130   0.178 -0.0549  0.5820 -2.0442
 5896TIP3    H239180   1.176   6.032   0.228 -2.5996 -0.9878  0.2897
 5897TIP3   OH239181   3.604   5.030   4.672  0.0876  0.1276 -0.0734
 5897TIP3    H139182   3.638   5.091   4.606 -0.4424  0.7625  0.2479
 5897TIP3    H239183   3.556   5.085   4.734  0.3177 -0.5107  0.6736
 5898TIP3   OH239184   3.111   6.515   2.678 -0.5792 -0.2968 -0.4518
 5898TIP3    H139185   3.112   6.527   2.773 -0.1334  0.1627 -0.5144
 5898TIP3    H239186   3.018   6.503   2.657 -0.6743 -0.4734  0.0459
 5899TIP3   OH239187   1.753   6.438  16.000 -0.6087  0.0386 -0.6059
 5899TIP3    H139188   1.761   6.460  16.093  0.8015 -0.3059 -0.6369
 5899TIP3    H239189   1.676   6.381  15.995 -0.1250 -0.7138  0.4889
 5900TIP3   OH239190   3.513   6.141   3.996  0.0783  0.2977  0.5929
 5900TIP3    H139191   3.562   6.085   4.055 -0.5351  0.0329  0.8594
 5900TIP3    H239192   3.533   6.108   3.908  0.5819  0.3653  0.6834
 5901TIP3   OH239193   1.468   4.297  15.168  0.9670 -0.1880 -0.3962
 5901TIP3    H139194   1.541   4.359  15.159  0.5820  0.4170  0.5260
 5901TIP3    H239195   1.468   4.275  15.261 -0.2930  0.1379 -0.3164
 5902TIP3   OH239196   0.898   3.247  13.683  0.4573 -0.2131  0.5819
 5902TIP3    H139197   0.963   3.181  13.709  1.9729  1.7035  1.8256
 5902TIP3    H239198   0.918   3.322  13.738  0.5099  2.2557 -2.7113
 5903TIP3   OH239199   4.640   0.642   4.383 -0.1401  0.4260  0.0501
 5903TIP3    H139200   4.548   0.668   4.387 -0.0754  0.5066  1.5360
 5903TIP3    H239201   4.654   0.594   4.465  0.7936 -0.7393 -0.7821
 5904TIP3   OH239202   5.607   6.181  15.327  0.1001 -0.5413  0.0311
 5904TIP3    H139203   5.593   6.275  15.336 -1.0352 -0.6130 -0.8462
 5904TIP3    H239204   5.526   6.142  15.359  0.8212 -1.2494  1.0116
 5905TIP3   OH239205   0.548   2.488  14.034  0.1741 -0.4744 -0.2082
 5905TIP3    H139206   0.615   2.426  14.006 -0.1254 -0.5333 -0.8011
 5905TIP3    H239207   0.494   2.438  14.097 -0.1477 -0.8614 -0.7859
 5906TIP3   OH239208   6.282   3.198  11.235 -0.3434 -0.1452 -0.1619
 5906TIP3    H139209   6.296   3.290  11.260 -0.0290 -0.2065 -0.1205
 5906TIP3    H239210   6.190   3.195  11.208 -0.3246  0.2088 -0.2736
 5907TIP3   OH239211   6.251   6.790  14.031  1.0265  0.1032 -0.2428
 5907TIP3    H139212   6.273   6.734  14.105  1.5907 -0.3541 -0.7516
 5907TIP3    H239213   6.301   6.753  13.958 -1.7307 -1.2523 -1.5307
 5908TIP3   OH239214   1.463   0.978  15.196 -0.2111 -0.2280  0.0428
 5908TIP3    H139215   1.480   1.061  15.152  0.0495 -0.3580 -0.1004
 5908TIP3    H239216   1.381   0.993  15.243  0.7636  0.6880  1.4783
 5909TIP3   OH239217   4.605   5.423   0.663 -0.2243 -0.2574  0.8115
 5909TIP3    H139218   4.607   5.329   0.641 -1.8238 -0.0178 -0.4796
 5909TIP3    H239219   4.516   5.438   0.693 -0.3715  1.1213 -0.2790
 5910TIP3   OH239220   6.791   1.705  12.009 -0.3419 -0.0516  0.4368
 5910TIP3    H139221   6.875   1.728  11.969  0.4242 -1.0982  1.4267
 5910TIP3    H239222   6.727   1.758  11.961  0.8424  0.5637 -0.5026
 5911TIP3   OH239223   5.413   0.359  14.970 -0.0182  0.3371 -0.1141
 5911TIP3    H139224   5.341   0.421  14.981 -0.2410  0.4473 -2.0920
 5911TIP3    H239225   5.491   0.409  14.995 -0.1651  1.5329 -1.9004
 5912TIP3   OH239226   2.722   2.636   1.664  0.7221 -0.1401  0.3153
 5912TIP3    H139227   2.770   2.556   1.641 -0.5955 -1.1883  1.1355
 5912TIP3    H239228   2.699   2.675   1.579  0.7045 -1.0350 -0.1000
 5913TIP3   OH239229   4.554   4.799  11.048 -0.1851  0.5149  0.1378
 5913TIP3    H139230   4.612   4.874  11.056 -1.2570  1.4574 -0.7786
 5913TIP3    H239231   4.502   4.816  10.970 -0.6912 -1.0100  0.1156
 5914TIP3   OH239232   6.491   1.824  13.469  0.0361  0.3473 -0.4722
 5914TIP3    H139233   6.520   1.745  13.422  1.1183 -0.4122  1.4151
 5914TIP3    H239234   6.414   1.796  13.517  0.4766  0.4119  0.2741
 5915TIP3   OH239235   6.263   4.477   3.287 -0.0108  0.1468 -0.1046
 5915TIP3    H139236   6.243   4.506   3.376  0.7576  0.6888 -0.0959
 5915TIP3    H239237   6.205   4.528   3.231  0.2715  0.6197  0.0202
 5916TIP3   OH239238   6.738   5.117   2.831 -0.2965  0.5618  0.3308
 5916TIP3    H139239   6.782   5.055   2.774  1.1593  1.8776 -0.0358
 5916TIP3    H239240   6.751   5.083   2.920 -2.1935 -1.2545 -0.0467
 5917TIP3   OH239241   2.835   3.411  13.752  0.0240  0.0407  0.1119
 5917TIP3    H139242   2.791   3.335  13.790  0.5705 -1.5391 -2.2703
 5917TIP3    H239243   2.772   3.483  13.762 -2.2724 -1.6858 -1.3137
 5918TIP3   OH239244   2.360   5.535  15.922  0.3235 -0.2937 -0.1947
 5918TIP3    H139245   2.332   5.611  15.871  0.1420 -0.5135 -0.4276
 5918TIP3    H239246   2.344   5.460  15.864  2.9537 -0.2914 -0.9798
 5919TIP3   OH239247   5.358   2.043   4.406 -0.0331 -0.2379 -0.2812
 5919TIP3    H139248   5.438   1.990   4.400  0.2848  0.2342 -0.2026
 5919TIP3    H239249   5.299   2.005   4.340  0.0086 -1.0160  0.1325
 5920TIP3   OH239250   1.856   5.500  15.444 -0.2684  0.7820 -0.1984
 5920TIP3    H139251   1.770   5.527  15.477  0.8196  0.6947  2.9503
 5920TIP3    H239252   1.880   5.567  15.381 -2.0752  1.5176 -0.1417
 5921TIP3   OH239253   3.145   0.631  15.181  0.0392  0.4180  0.5963
 5921TIP3    H139254   3.134   0.683  15.261  0.2474  0.9062  0.3091
 5921TIP3    H239255   3.106   0.684  15.112 -0.8969 -0.3826  0.5087
 5922TIP3   OH239256   3.897   0.578  14.580 -0.2651 -0.3012 -0.4648
 5922TIP3    H139257   3.962   0.562  14.648 -0.9780 -0.9035  0.0825
 5922TIP3    H239258   3.813   0.557  14.622 -1.0888  3.0652 -0.2794
 5923TIP3   OH239259   5.670   2.121   4.339  0.6134 -0.3306 -0.7078
 5923TIP3    H139260   5.602   2.120   4.271 -0.3469 -0.2218  0.2332
 5923TIP3    H239261   5.685   2.028   4.358 -0.8756 -0.3216  0.6327
 5924TIP3   OH239262   2.878   5.000  15.501  0.0246 -0.2957 -0.0805
 5924TIP3    H139263   2.903   5.015  15.410  1.1898 -0.2839  0.2399
 5924TIP3    H239264   2.901   5.082  15.546  0.3314 -0.6434  0.4050
 5925TIP3   OH239265   3.515   1.416   5.119  0.4569  0.2355 -0.1539
 5925TIP3    H139266   3.521   1.370   5.203 -1.1560 -1.3227 -0.8733
 5925TIP3    H239267   3.587   1.479   5.122  0.5433  0.0797  2.3189
 5926TIP3   OH239268   1.755   4.933  16.220 -0.9752 -0.1003  0.7220
 5926TIP3    H139269   1.730   4.850  16.179  2.4219  0.0185 -1.7988
 5926TIP3    H239270   1.829   4.910  16.276  0.0606  1.1922 -0.0849
 5927TIP3   OH239271   0.579   1.693  14.528 -0.1753 -0.2191 -0.5539
 5927TIP3    H139272   0.517   1.629  14.562 -0.2001 -0.4077 -0.9501
 5927TIP3    H239273   0.525   1.763  14.492 -0.1599 -0.4369 -1.0013
 5928TIP3   OH239274   2.419   6.529  17.067  0.0844 -0.1269  0.6368
 5928TIP3    H139275   2.467   6.485  16.997 -0.0000  0.9576 -0.1158
 5928TIP3    H239276   2.327   6.520  17.043  0.0642  0.4219  0.4903
 5929TIP3   OH239277   3.153   4.106   2.405  0.5922  0.2736  0.0805
 5929TIP3    H139278   3.211   4.037   2.371  1.7487  1.5494 -0.5745
 5929TIP3    H239279   3.080   4.108   2.343  1.3321  0.7020 -0.7881
 5930TIP3   OH239280   0.453   4.865   3.125  0.3583 -0.3267  0.1774
 5930TIP3    H139281   0.457   4.855   3.030  1.4235 -0.7170  0.2523
 5930TIP3    H239282   0.535   4.826   3.157  0.2669  0.2959  1.2112
 5931TIP3   OH239283   4.712   2.251   2.192 -0.1395 -0.0992  0.0937
 5931TIP3    H139284   4.702   2.293   2.277  2.3448 -1.3256  1.0180
 5931TIP3    H239285   4.803   2.265   2.168 -0.3873 -1.2169 -1.6023
 5932TIP3   OH239286   1.949   4.274   5.112  0.0578  0.3449 -0.1532
 5932TIP3    H139287   2.033   4.235   5.088  0.0904  0.9345 -1.0301
 5932TIP3    H239288   1.899   4.276   5.031 -0.7929  0.0499  0.3538
 5933TIP3   OH239289   4.859   0.108  14.433  0.3278  0.8894 -0.0813
 5933TIP3    H139290   4.794   0.129  14.366 -0.5786  0.0881  0.5307
 5933TIP3    H239291   4.919   0.047  14.389 -1.9882 -2.0503  0.6803
 5934TIP3   OH239292   4.462   6.229  16.736  0.0540 -0.6253  0.1851
 5934TIP3    H139293   4.478   6.196  16.648 -0.6975  1.6002 -0.8064
 5934TIP3    H239294   4.375   6.195  16.759 -0.1719 -0.3900 -0.3238
 5935TIP3   OH239295   6.737   0.262   0.929  0.0512 -0.3477 -0.1492
 5935TIP3    H139296   6.796   0.330   0.960  1.3720 -1.1529 -0.8607
 5935TIP3    H239297   6.650   0.293   0.954  0.6661  1.3959 -0.0967
 5936TIP3   OH239298   0.221   5.990   4.929  0.0890  0.3011  0.1577
 5936TIP3    H139299   0.158   6.056   4.902  0.4836  0.7181  0.2532
 5936TIP3    H239300   0.193   5.965   5.017 -0.6202 -0.3557 -0.2452
 5937TIP3   OH239301   5.624   0.644   0.077  0.3275 -0.1707  0.0258
 5937TIP3    H139302   5.634   0.728   0.031 -1.0406 -0.0757 -0.1319
 5937TIP3    H239303   5.607   0.581   0.007  1.1257 -0.5527  0.1663
 5938TIP3   OH239304   0.297   3.003  13.132 -0.2088 -0.0397 -0.6987
 5938TIP3    H139305   0.316   2.921  13.086 -1.2089  1.3903 -3.7845
 5938TIP3    H239306   0.221   2.982  13.186  0.5486 -1.5626 -0.1679
 5939TIP3   OH239307   5.963   3.940  16.582  0.3656  0.3992 -0.5372
 5939TIP3    H139308   5.888   3.964  16.637 -0.1473 -0.6414 -0.7786
 5939TIP3    H239309   5.952   3.992  16.502  0.6908  1.3299  0.0158
 5940TIP3   OH239310   5.360   2.145  14.306 -0.0343 -0.0950  0.2601
 5940TIP3    H139311   5.318   2.202  14.370 -0.8052  0.3956 -0.6695
 5940TIP3    H239312   5.432   2.197  14.270 -1.3822  0.7064 -1.3453
 5941TIP3   OH239313   0.421   0.721  11.533 -0.7051 -0.1757  0.2756
 5941TIP3    H139314   0.449   0.631  11.516 -0.1839  0.2160 -0.9939
 5941TIP3    H239315   0.450   0.739  11.623 -0.9047 -1.3096  0.5640
 5942TIP3   OH239316   0.144   5.822   2.424  0.2753 -0.0970  0.4202
 5942TIP3    H139317   0.195   5.792   2.349  0.1996 -0.5797  0.5610
 5942TIP3    H239318   0.209   5.845   2.490  0.3400  0.2760  0.2299
 5943TIP3   OH239319   4.680   1.274   6.480  0.0381  0.0068 -0.3505
 5943TIP3    H139320   4.705   1.317   6.562  0.9511 -0.3100 -0.4575
 5943TIP3    H239321   4.587   1.254   6.491  0.0574  0.3373  0.4410
 5944TIP3   OH239322   1.872   0.608   5.400 -0.1104  0.7116 -0.4803
 5944TIP3    H139323   1.802   0.601   5.465 -0.9564  0.7552 -1.3828
 5944TIP3    H239324   1.950   0.630   5.451 -0.7737  0.7762  0.5161
 5945TIP3   OH239325   0.605   5.277   0.532 -0.5993 -0.3717  0.2077
 5945TIP3    H139326   0.693   5.302   0.562  0.1005 -1.1974 -1.1187
 5945TIP3    H239327   0.552   5.275   0.612  0.1532  1.8521  0.8089
 5946TIP3   OH239328   2.604   5.640   0.893 -0.3681  0.6851  0.1242
 5946TIP3    H139329   2.567   5.668   0.977  0.5696 -0.9580  1.1190
 5946TIP3    H239330   2.676   5.581   0.918 -0.1254  0.1397 -1.8366
 5947TIP3   OH239331   6.791   1.845   6.176 -0.2845  0.1158  0.4765
 5947TIP3    H139332   6.750   1.930   6.159 -0.0351  0.3728  1.1432
 5947TIP3    H239333   6.810   1.810   6.089  0.2632  1.0740  0.2037
 5948TIP3   OH239334   1.074   0.279  13.532 -0.3630 -0.8043 -0.3167
 5948TIP3    H139335   1.164   0.248  13.522  0.3092  1.4207 -1.5854
 5948TIP3    H239336   1.068   0.308  13.623  0.6319  0.3072 -0.5975
 5949TIP3   OH239337   4.705   4.860   2.043 -0.1735 -0.0396  0.3820
 5949TIP3    H139338   4.627   4.809   2.022 -0.4408 -0.3936  2.1047
 5949TIP3    H239339   4.675   4.951   2.038  0.2233 -0.0177 -2.3668
 5950TIP3   OH239340   2.203   1.270   6.900 -0.4034 -0.4435  0.1348
 5950TIP3    H139341   2.170   1.270   6.990 -0.1488 -0.2962  0.2270
 5950TIP3    H239342   2.169   1.351   6.862 -0.0584 -0.2379  0.2620
 5951TIP3   OH239343   4.188   5.533   6.371 -0.3672  0.3140 -0.2804
 5951TIP3    H139344   4.252   5.583   6.422 -0.2508 -1.7150  1.6262
 5951TIP3    H239345   4.208   5.442   6.390 -2.8373 -0.3895 -0.8725
 5952TIP3   OH239346   0.678   5.066  15.407 -0.0329 -0.0898 -0.4618
 5952TIP3    H139347   0.724   5.042  15.327 -0.6144 -2.1923 -0.1956
 5952TIP3    H239348   0.726   5.022  15.477 -1.5425 -1.0893 -0.0270
 5953TIP3   OH239349   2.718   2.660  15.281 -0.0364  0.4231 -0.3460
 5953TIP3    H139350   2.641   2.665  15.224  0.3930  0.6570 -0.9118
 5953TIP3    H239351   2.706   2.732  15.343  0.4415  1.4068 -1.3521
 5954TIP3   OH239352   5.172   4.810  15.575 -0.3673 -0.5051 -0.2453
 5954TIP3    H139353   5.153   4.901  15.596 -1.3733 -0.6322 -0.5833
 5954TIP3    H239354   5.135   4.760  15.648  0.7059 -0.6058  0.2360
 5955TIP3   OH239355   0.129   6.513   1.186 -0.1765  0.8390 -0.3655
 5955TIP3    H139356   0.213   6.488   1.224 -1.6420 -0.2594  2.2386
 5955TIP3    H239357   0.153   6.572   1.114  2.7484  1.8761  1.3499
 5956TIP3   OH239358   1.274   2.821  11.512 -1.0138 -0.4298  0.4322
 5956TIP3    H139359   1.259   2.900  11.461 -0.7253 -1.0518 -0.6425
 5956TIP3    H239360   1.277   2.851  11.603 -1.5370  0.6928  0.0842
 5957TIP3   OH239361   0.653   1.040  13.954  0.5174 -0.0891 -0.2294
 5957TIP3    H139362   0.629   0.973  14.017  0.2206  0.4773  0.2578
 5957TIP3    H239363   0.578   1.098  13.950  1.2318  0.8708  0.2136
 5958TIP3   OH239364   6.168   5.875  12.675  0.1912  0.0786 -0.1478
 5958TIP3    H139365   6.093   5.920  12.715 -1.2501 -0.7299 -1.8370
 5958TIP3    H239366   6.224   5.945  12.643 -1.1556  0.7248 -1.1675
 5959TIP3   OH239367   6.230   4.451  14.742 -0.2704 -0.2169 -0.1729
 5959TIP3    H139368   6.325   4.439  14.743 -0.3053 -0.5128 -0.4254
 5959TIP3    H239369   6.195   4.363  14.729 -0.5476  0.0638 -1.3618
 5960TIP3   OH239370   1.475   3.972   5.078  0.1933  0.7070 -0.0253
 5960TIP3    H139371   1.473   3.896   5.136 -0.4789  0.9101  0.2167
 5960TIP3    H239372   1.500   4.045   5.134  1.5299  0.5441 -0.3970
 5961TIP3   OH239373   0.927   2.087   2.122 -0.2515 -0.4509 -0.0433
 5961TIP3    H139374   0.997   2.099   2.186 -1.5747 -0.1566  1.3643
 5961TIP3    H239375   0.900   2.176   2.098 -0.8001 -0.5575  0.1573
 5962TIP3   OH239376   3.731   4.733  16.411  0.2800  0.3785 -0.5090
 5962TIP3    H139377   3.661   4.677  16.378 -0.3335  2.0607 -2.1094
 5962TIP3    H239378   3.716   4.818  16.370  3.7255  0.5657 -1.5371
 5963TIP3   OH239379   6.532   5.185  10.565 -0.5430  0.4690 -0.3106
 5963TIP3    H139380   6.612   5.133  10.565 -1.6092 -1.2537 -1.6108
 5963TIP3    H239381   6.503   5.183  10.474 -1.8630  1.3635  0.0815
 5964TIP3   OH239382   0.101   6.065  10.882  0.0498 -0.2222  0.2522
 5964TIP3    H139383   0.110   6.110  10.966 -1.6266 -2.1591  1.5277
 5964TIP3    H239384   0.031   6.000  10.897 -0.8835 -0.0233 -2.8751
 5965TIP3   OH239385   6.615   2.532  13.990  0.6413  0.5485  0.5799
 5965TIP3    H139386   6.645   2.601  13.930  0.1089 -0.3834 -0.7915
 5965TIP3    H239387   6.590   2.459  13.932 -4.3002  1.2532  1.6088
 5966TIP3   OH239388   3.562   0.551   3.006  0.4962 -0.0554  0.3558
 5966TIP3    H139389   3.575   0.556   3.101  0.9108  0.9704  0.2497
 5966TIP3    H239390   3.639   0.595   2.969 -0.1152  0.3454 -0.4361
 5967TIP3   OH239391   2.122   2.272  12.846 -0.3296  0.4952 -0.2645
 5967TIP3    H139392   2.143   2.217  12.771  0.2011  0.4156 -0.0658
 5967TIP3    H239393   2.104   2.211  12.917  1.0716  0.5610  0.1753
 5968TIP3   OH239394   0.134   0.473   4.140  0.1736 -0.1370  0.5501
 5968TIP3    H139395   0.136   0.504   4.230 -1.5675  0.4924  0.3989
 5968TIP3    H239396   0.088   0.542   4.092  1.4426 -0.2782 -0.8955
 5969TIP3   OH239397   2.738   0.238  14.977  0.5235 -0.4790  0.6683
 5969TIP3    H139398   2.829   0.235  14.946  0.2586 -2.4791  0.0385
 5969TIP3    H239399   2.707   0.148  14.970 -1.2492  0.0258  1.7029
 5970TIP3   OH239400   1.242   4.238   2.979 -0.0803  0.1906  0.2815
 5970TIP3    H139401   1.279   4.318   2.942 -0.7613  0.5425  0.3553
 5970TIP3    H239402   1.153   4.262   3.003 -0.6460 -0.9016 -0.6998
 5971TIP3   OH239403   5.826   2.054   0.813  0.3983  0.4285 -0.0240
 5971TIP3    H139404   5.901   2.029   0.759  1.7434 -0.2521  2.0922
 5971TIP3    H239405   5.864   2.099   0.888 -1.4803  1.8735  0.0989
 5972TIP3   OH239406   2.977   2.888  13.639  0.1753 -0.2137 -0.4008
 5972TIP3    H139407   3.016   2.963  13.595  0.5322 -0.6346 -0.8147
 5972TIP3    H239408   3.006   2.895  13.730 -0.8427  0.8463 -0.1557
 5973TIP3   OH239409   0.313   3.065   3.732  0.0369  0.3415 -0.0755
 5973TIP3    H139410   0.252   3.014   3.784 -0.5812  1.5270  0.3907
 5973TIP3    H239411   0.398   3.023   3.747 -0.4935 -0.6958  0.0857
 5974TIP3   OH239412   2.418   4.160  11.422  0.1555  0.0346 -0.2634
 5974TIP3    H139413   2.477   4.085  11.433  0.7735  0.4949 -0.3909
 5974TIP3    H239414   2.334   4.130  11.458  0.5941 -0.4611  0.3587
 5975TIP3   OH239415   1.183   5.765   5.335 -0.6505  0.1945  0.2846
 5975TIP3    H139416   1.103   5.776   5.387 -0.8982 -1.6683  0.3052
 5975TIP3    H239417   1.153   5.756   5.245 -0.5564 -1.6560  0.4218
 5976TIP3   OH239418   2.243   4.833  11.571  0.1290  0.2892  0.0364
 5976TIP3    H139419   2.243   4.883  11.653  1.7587 -0.5913  0.5959
 5976TIP3    H239420   2.276   4.895  11.506  1.3636  0.2158  0.5700
 5977TIP3   OH239421   3.305   1.765  15.611  0.3404  0.7708  0.2398
 5977TIP3    H139422   3.262   1.844  15.579 -0.2614  0.1500 -0.5282
 5977TIP3    H239423   3.399   1.787  15.611  0.5030  0.4084 -3.2385
 5978TIP3   OH239424   6.029   4.150   1.767  0.1814  0.1727  0.1230
 5978TIP3    H139425   6.013   4.162   1.861  0.6266  1.1040  0.0838
 5978TIP3    H239426   5.942   4.149   1.728 -0.1241 -2.2056  0.7562
 5979TIP3   OH239427   1.024   5.585   2.549  0.1398  0.1997 -0.1303
 5979TIP3    H139428   1.098   5.644   2.559 -0.0390  0.1759  1.4330
 5979TIP3    H239429   1.036   5.546   2.462  0.6464  1.9667 -0.8599
 5980TIP3   OH239430   0.544   4.990  16.689  0.3686 -0.4528  0.3157
 5980TIP3    H139431   0.560   5.072  16.736 -0.3548 -0.5153  0.6633
 5980TIP3    H239432   0.536   4.924  16.758  1.1790 -0.8620  0.0301
 5981TIP3   OH239433   4.753   0.399  14.365 -0.0501 -0.7493  0.0968
 5981TIP3    H139434   4.740   0.327  14.304  0.9009 -1.4731  0.7254
 5981TIP3    H239435   4.782   0.472  14.311  3.4380 -2.1534 -0.0545
 5982TIP3   OH239436   0.875   5.370  15.817  0.2473  0.3796  0.1605
 5982TIP3    H139437   0.930   5.295  15.839  0.5292  0.9643  1.4766
 5982TIP3    H239438   0.859   5.361  15.723  1.8293 -0.3044 -0.0596
 5983TIP3   OH239439   2.408   5.159   1.179  0.2405  0.5407 -0.2951
 5983TIP3    H139440   2.336   5.116   1.226 -1.2794  3.7229  0.4674
 5983TIP3    H239441   2.392   5.139   1.087 -0.7438 -0.0635  0.0016
 5984TIP3   OH239442   5.467   1.069   3.304 -0.8348 -0.8904 -0.2070
 5984TIP3    H139443   5.470   1.076   3.208 -1.2689 -0.3126 -0.1802
 5984TIP3    H239444   5.377   1.043   3.324 -1.0424  0.0358  0.1009
 5985TIP3   OH239445   5.179   1.679  11.350 -0.5783 -0.3855 -0.4520
 5985TIP3    H139446   5.253   1.727  11.312 -1.8735  0.0403 -2.5295
 5985TIP3    H239447   5.193   1.685  11.444  1.8751 -0.0676 -0.8003
 5986TIP3   OH239448   0.249   5.997   2.617  0.1268  0.1721  1.0583
 5986TIP3    H139449   0.198   5.951   2.684 -0.8722 -0.0958  0.1161
 5986TIP3    H239450   0.202   6.079   2.602  0.7274  0.5448  1.1634
 5987TIP3   OH239451   0.889   1.854   4.495 -0.2191  0.3051  0.2830
 5987TIP3    H139452   0.900   1.939   4.536  0.5799  0.4698 -0.2621
 5987TIP3    H239453   0.800   1.827   4.519 -0.4135  1.2098  0.5971
 5988TIP3   OH239454   6.808   1.533  12.443  0.2883 -0.3559 -0.1270
 5988TIP3    H139455   6.839   1.608  12.392  0.4861  0.2003  0.8078
 5988TIP3    H239456   6.886   1.482  12.463  0.3182 -0.1333  0.3297
 5989TIP3   OH239457   4.169   1.796   0.720 -0.1858  0.0841 -0.1521
 5989TIP3    H139458   4.142   1.707   0.743  0.9699 -0.1492  0.3239
 5989TIP3    H239459   4.236   1.783   0.653  0.4157  0.5818  0.3566
 5990TIP3   OH239460   6.391   6.798   5.601  0.2183 -0.1092  0.1804
 5990TIP3    H139461   6.485   6.795   5.581 -0.1870  0.7205 -1.9962
 5990TIP3    H239462   6.375   6.890   5.622 -0.1422 -0.2303  0.4286
 5991TIP3   OH239463   4.349   1.958  11.353  0.0807 -0.0189 -0.0302
 5991TIP3    H139464   4.266   1.963  11.401 -0.0870  0.9564 -0.4094
 5991TIP3    H239465   4.413   1.932  11.419 -0.2757  0.5910  0.5624
 5992TIP3   OH239466   5.536   2.788  13.655 -0.1121 -0.1859  0.5743
 5992TIP3    H139467   5.586   2.712  13.687  1.3372 -0.0950 -1.3770
 5992TIP3    H239468   5.602   2.853  13.634 -1.2528  1.0260  0.6871
 5993TIP3   OH239469   2.377   4.699   1.640  0.1485 -0.1818  0.2242
 5993TIP3    H139470   2.411   4.764   1.579 -1.4562 -1.0762 -1.6620
 5993TIP3    H239471   2.357   4.749   1.719  0.9676  1.2188 -0.4402
 5994TIP3   OH239472   5.644   3.236   3.696 -0.7142  0.2156 -0.3016
 5994TIP3    H139473   5.600   3.151   3.704 -2.1854  0.9091 -0.9774
 5994TIP3    H239474   5.663   3.261   3.787  1.1480 -1.5422 -0.1609
 5995TIP3   OH239475   6.254   6.047  13.206  0.7117 -0.7516 -0.2692
 5995TIP3    H139476   6.177   6.073  13.257  1.2382  0.6770 -0.1707
 5995TIP3    H239477   6.307   5.997  13.269  0.3512 -0.8588 -0.0440
 5996TIP3   OH239478   2.196   2.295   4.986  0.2961 -0.3861  0.6835
 5996TIP3    H139479   2.290   2.309   4.982  0.4741 -1.8337 -0.2484
 5996TIP3    H239480   2.163   2.373   5.031  1.8664  0.3813  0.5515
 5997TIP3   OH239481   3.907   1.124  11.869 -0.1511 -0.4620 -0.5963
 5997TIP3    H139482   3.958   1.144  11.791  0.0930  2.1681  0.1853
 5997TIP3    H239483   3.817   1.112  11.837  0.2546 -1.2288 -1.4736
 5998TIP3   OH239484   0.275   5.231  12.776 -0.4118 -0.1043 -0.2756
 5998TIP3    H139485   0.194   5.214  12.824 -1.0969 -1.5913 -1.8669
 5998TIP3    H239486   0.259   5.313  12.729 -0.5726  0.1894  0.2928
 5999TIP3   OH239487   6.558   4.877  16.109 -0.2585 -0.1784  0.2946
 5999TIP3    H139488   6.563   4.943  16.040  2.3347 -0.0087  0.5843
 5999TIP3    H239489   6.522   4.799  16.066  1.5499 -0.1489 -1.3627
 6000TIP3   OH239490   1.863   4.534  14.974  0.0395  0.3409 -0.0401
 6000TIP3    H139491   1.852   4.598  15.044 -1.7078  2.1016 -1.8817
 6000TIP3    H239492   1.940   4.564  14.925 -0.4649  0.7315 -0.5912
 6001TIP3   OH239493   4.366   6.705  12.334 -0.1959 -0.6263  0.0548
 6001TIP3    H139494   4.332   6.653  12.261  0.8979 -1.1382 -0.1007
 6001TIP3    H239495   4.338   6.794  12.315 -0.2998 -0.8249 -0.7613
 6002TIP3   OH239496   0.477   5.136   0.128 -0.0957  0.1694  0.0787
 6002TIP3    H139497   0.565   5.170   0.110 -0.4192 -0.8377 -3.6588
 6002TIP3    H239498   0.434   5.207   0.177  2.0989  1.5198  0.1129
 6003TIP3   OH239499   0.286   6.499   4.874  0.2992 -0.1793  0.2339
 6003TIP3    H139500   0.198   6.466   4.891  0.3696 -0.4877  0.0052
 6003TIP3    H239501   0.339   6.466   4.947  0.6435 -1.6641 -0.6587
 6004TIP3   OH239502   0.370   6.744   4.815 -0.5865  0.4386  0.4384
 6004TIP3    H139503   0.377   6.778   4.904 -0.1953  0.7770  0.2795
 6004TIP3    H239504   0.344   6.653   4.826  0.7031  0.1213  0.9361
 6005TIP3   OH239505   4.143   0.695  15.464 -0.0758  0.4175  0.1947
 6005TIP3    H139506   4.170   0.639  15.537  2.7284  0.5760 -0.6525
 6005TIP3    H239507   4.108   0.774  15.506 -2.3078 -1.1399  1.3644
 6006TIP3   OH239508   0.946   5.086   1.324  0.1074 -0.5319 -0.1624
 6006TIP3    H139509   0.869   5.052   1.370  0.4750 -1.4092 -0.1943
 6006TIP3    H239510   0.999   5.009   1.305  0.4790 -0.0496 -1.1071
 6007TIP3   OH239511   1.010   6.773  11.726 -0.1629 -0.1630  0.0432
 6007TIP3    H139512   0.916   6.763  11.740 -0.1389 -1.5719 -0.7333
 6007TIP3    H239513   1.046   6.686  11.742  0.8856  0.1316 -0.6980
 6008TIP3   OH239514   0.745   3.970  14.203  0.0187 -0.1768 -0.5452
 6008TIP3    H139515   0.674   3.937  14.147  0.3678  0.6662 -1.5038
 6008TIP3    H239516   0.721   4.061  14.219 -0.3524 -0.5679  1.1258
 6009TIP3   OH239517   2.116   6.599   5.446  0.0105 -0.5805  0.1488
 6009TIP3    H139518   2.073   6.682   5.464 -0.0071 -0.7115  0.7291
 6009TIP3    H239519   2.204   6.608   5.484 -0.0197 -0.8508  0.2853
 6010TIP3   OH239520   5.295   2.339   2.876  0.6874 -0.0689 -0.0708
 6010TIP3    H139521   5.383   2.327   2.912  0.3744  0.7818  0.9861
 6010TIP3    H239522   5.292   2.431   2.849  0.7790 -0.5824 -1.9442
 6011TIP3   OH239523   1.239   0.720   2.393  0.6268  0.2308  0.1850
 6011TIP3    H139524   1.213   0.709   2.301 -2.9500 -0.6651  1.2376
 6011TIP3    H239525   1.250   0.631   2.425 -0.2997  0.4734  1.1898
 6012TIP3   OH239526   3.876   0.714  12.962  0.1020  0.1906  0.2705
 6012TIP3    H139527   3.918   0.782  13.015  1.4615  0.1625 -0.7421
 6012TIP3    H239528   3.886   0.745  12.871 -0.2362 -0.8309 -0.1207
 6013TIP3   OH239529   3.280   4.616   6.326 -0.4919  0.2762 -0.2034
 6013TIP3    H139530   3.303   4.638   6.416 -0.3799 -1.9493  0.3530
 6013TIP3    H239531   3.206   4.673   6.305  2.6793  4.4624 -0.5218
 6014TIP3   OH239532   1.744   0.030   0.203  0.3824 -0.1460  0.3683
 6014TIP3    H139533   1.701  -0.044   0.246 -0.5872  1.1600  1.7331
 6014TIP3    H239534   1.723   0.020   0.110 -1.8601 -0.2451  0.8435
 6015TIP3   OH239535   5.118   3.915  10.639  0.4080  0.4795 -0.0739
 6015TIP3    H139536   5.079   3.834  10.671  1.9783 -0.6198 -0.8962
 6015TIP3    H239537   5.075   3.930  10.555  0.8751 -0.0711 -0.4113
 6016TIP3   OH239538   2.574   2.764   0.700 -0.1240 -0.3655  0.5040
 6016TIP3    H139539   2.551   2.781   0.791 -0.7810 -0.0754  0.2880
 6016TIP3    H239540   2.550   2.844   0.654 -0.9091 -0.9394 -0.1129
 6017TIP3   OH239541   4.526   1.640  12.661 -0.1878 -0.3486 -0.0623
 6017TIP3    H139542   4.591   1.647  12.731  0.1457 -0.3698 -0.3705
 6017TIP3    H239543   4.538   1.719  12.609 -0.7919 -0.0775  0.2051
 6018TIP3   OH239544   2.787   0.611  13.767 -0.3623 -0.3625  0.4882
 6018TIP3    H139545   2.796   0.516  13.774 -0.5434 -0.5245 -1.2180
 6018TIP3    H239546   2.693   0.627  13.771 -0.5089 -0.5015 -1.6044
 6019TIP3   OH239547   0.893   2.606   2.288  0.1085 -0.0054 -0.0402
 6019TIP3    H139548   0.817   2.557   2.255 -0.0144  0.8865 -1.0954
 6019TIP3    H239549   0.862   2.642   2.372 -1.0352  1.2880 -0.9890
 6020TIP3   OH239550   2.537   0.583  16.950  0.1232 -0.0633 -0.5508
 6020TIP3    H139551   2.563   0.506  16.899 -0.2302 -1.2393  1.0162
 6020TIP3    H239552   2.468   0.623  16.898 -2.4379 -2.9940  0.3764
 6021TIP3   OH239553   4.241   2.938  15.800 -0.1708  0.0646 -0.2354
 6021TIP3    H139554   4.228   2.864  15.860  2.2662  0.3593  0.6900
 6021TIP3    H239555   4.327   2.973  15.823 -0.5378  2.1082 -1.8563
 6022TIP3   OH239556   2.858   4.502  15.820  0.3674 -0.3940 -0.0626
 6022TIP3    H139557   2.815   4.479  15.737  0.5627 -0.2575 -0.2037
 6022TIP3    H239558   2.812   4.451  15.886  0.3441 -0.6580 -0.2847
 6023TIP3   OH239559   2.641   1.240  17.084  0.1966 -0.1277  0.1021
 6023TIP3    H139560   2.629   1.314  17.144 -0.4143  0.3129 -0.5494
 6023TIP3    H239561   2.685   1.174  17.136  1.5210  1.0088  0.4603
 6024TIP3   OH239562   6.689   1.187   3.686 -0.3237 -0.2403 -0.1581
 6024TIP3    H139563   6.742   1.109   3.674  1.9307  1.1390  0.4636
 6024TIP3    H239564   6.678   1.196   3.781 -0.9816 -0.0772 -0.2450
 6025TIP3   OH239565   2.003   3.556  12.795 -0.1681  0.4027  0.5686
 6025TIP3    H139566   1.929   3.614  12.814 -0.0071  1.1860 -1.1100
 6025TIP3    H239567   2.070   3.614  12.759 -0.0182 -0.8199 -1.1524
 6026TIP3   OH239568   5.231   2.727  16.770  0.4152  0.4872 -0.2533
 6026TIP3    H139569   5.224   2.730  16.866 -0.8094  0.3484 -0.3308
 6026TIP3    H239570   5.324   2.740  16.753  0.4256  2.2298  0.8957
 6027TIP3   OH239571   0.509   0.256   2.601  0.8520  0.1872 -0.1400
 6027TIP3    H139572   0.506   0.179   2.657  0.3899 -0.1456 -0.6171
 6027TIP3    H239573   0.540   0.326   2.658 -0.0640 -0.0512  0.6550
 6028TIP3   OH239574   6.707   3.274  14.473 -0.0125  0.1637  0.1272
 6028TIP3    H139575   6.764   3.336  14.428 -1.0257  0.3650 -0.9056
 6028TIP3    H239576   6.628   3.324  14.493 -1.2937 -1.0839 -1.7326
 6029TIP3   OH239577   0.837   6.814   1.244  0.7041  0.4373 -0.3555
 6029TIP3    H139578   0.752   6.845   1.213  0.1322  0.5330  1.2553
 6029TIP3    H239579   0.898   6.883   1.218 -0.2225  1.9083  1.2420
 6030TIP3   OH239580   5.556   2.967   1.291  0.6355  0.2417 -0.4813
 6030TIP3    H139581   5.562   2.872   1.284 -1.7420  0.0497 -0.2495
 6030TIP3    H239582   5.531   2.983   1.382  2.6665  1.2163 -0.0445
 6031TIP3   OH239583   1.981   2.031   6.591  0.2564  0.1159 -0.5134
 6031TIP3    H139584   2.068   2.070   6.582 -0.1744  0.8950 -1.3759
 6031TIP3    H239585   1.922   2.106   6.588 -0.5354 -0.5393 -1.4216
 6032TIP3   OH239586   2.917   6.774   3.325 -0.2739 -0.1940  0.5954
 6032TIP3    H139587   2.987   6.712   3.304  0.3544  0.6580  0.1764
 6032TIP3    H239588   2.955   6.834   3.388 -1.0717 -0.5814  1.4613
 6033TIP3   OH239589   6.015   3.018  12.942  0.1916  0.2381 -0.2098
 6033TIP3    H139590   6.058   3.056  12.865 -0.6571  1.6164 -0.0157
 6033TIP3    H239591   6.033   3.081  13.013  0.6451 -0.8302  0.6364
 6034TIP3   OH239592   2.199   4.780   1.873 -0.0810  0.0051 -0.4450
 6034TIP3    H139593   2.176   4.689   1.890 -0.3851 -0.1682 -1.7219
 6034TIP3    H239594   2.206   4.820   1.960 -0.6771 -1.0509  0.0952
 6035TIP3   OH239595   2.587   2.927   5.123 -0.0714 -0.1813  0.2293
 6035TIP3    H139596   2.560   2.902   5.035 -0.9539  0.9204  0.1767
 6035TIP3    H239597   2.631   3.012   5.112  0.6093 -0.4559  0.7377
 6036TIP3   OH239598   6.646   1.231   3.941 -0.3554 -0.5437 -0.3216
 6036TIP3    H139599   6.564   1.272   3.967  0.7047  2.5822 -1.6745
 6036TIP3    H239600   6.714   1.288   3.978  1.1730  0.0984 -3.9331
 6037TIP3   OH239601   2.160   6.456  12.961  0.3127 -0.3047  0.5789
 6037TIP3    H139602   2.077   6.422  12.927  0.1448  0.0073  0.6643
 6037TIP3    H239603   2.210   6.481  12.884 -1.3437  3.3892  0.5596
 6038TIP3   OH239604   3.665   2.998  16.378  0.3211 -0.6402  0.0508
 6038TIP3    H139605   3.693   2.918  16.422 -1.6585 -1.2275  0.2676
 6038TIP3    H239606   3.621   2.969  16.298 -1.3212  0.1481  0.6338
 6039TIP3   OH239607   0.705   0.025  11.225  0.5141  0.0132 -0.0437
 6039TIP3    H139608   0.714  -0.017  11.139  0.2821 -0.1484  0.0131
 6039TIP3    H239609   0.700  -0.047  11.287 -1.7249  0.0696 -0.1092
 6040TIP3   OH239610   5.080   6.431   5.292  0.1280 -0.7043  0.0252
 6040TIP3    H139611   5.001   6.484   5.287  0.5612  0.0024  0.5657
 6040TIP3    H239612   5.058   6.361   5.354  0.7586  0.9671  2.1778
 6041TIP3   OH239613   0.905   6.437   2.459 -0.0333 -0.9884 -0.6163
 6041TIP3    H139614   0.935   6.361   2.411  0.9731 -0.9025 -0.1276
 6041TIP3    H239615   0.879   6.500   2.392 -1.0593 -1.8311 -1.0212
 6042TIP3   OH239616   6.173   1.818   6.177 -0.0863  0.3015 -0.2048
 6042TIP3    H139617   6.210   1.753   6.237  0.8227  2.4806  1.6516
 6042TIP3    H239618   6.247   1.846   6.123  0.3305  2.3242  1.3632
 6043TIP3   OH239619   0.991   1.248  16.656 -0.1372  0.1426  0.3948
 6043TIP3    H139620   1.004   1.240  16.561  0.4723  0.1176  0.4768
 6043TIP3    H239621   0.936   1.326  16.667  1.6447  1.4735  0.1425
 6044TIP3   OH239622   0.370   0.278   5.706  0.5212 -0.1143 -0.2826
 6044TIP3    H139623   0.287   0.243   5.673  0.8794 -1.1057 -0.1651
 6044TIP3    H239624   0.358   0.283   5.800  0.3344  0.4390 -0.3383
 6045TIP3   OH239625   4.115   0.820   2.672  0.2412  0.0095 -0.4349
 6045TIP3    H139626   4.071   0.841   2.590  0.7177 -1.4539 -1.0666
 6045TIP3    H239627   4.171   0.746   2.652  1.0684  0.2233  0.9939
 6046TIP3   OH239628   6.491   5.942  15.747 -0.6098 -0.0101  0.0443
 6046TIP3    H139629   6.487   5.885  15.671  0.7068  1.6360 -1.3074
 6046TIP3    H239630   6.555   5.901  15.805  0.9628  0.5329 -1.2969
 6047TIP3   OH239631   0.513   3.901   4.722  0.2667 -0.4491 -0.0013
 6047TIP3    H139632   0.446   3.913   4.790 -0.2107  0.3675 -0.6183
 6047TIP3    H239633   0.545   3.989   4.704  2.1504 -0.9077  0.9120
 6048TIP3   OH239634   4.262   1.440   0.369 -0.4742  0.1407  0.1618
 6048TIP3    H139635   4.281   1.457   0.461 -0.1403  1.9110 -0.2130
 6048TIP3    H239636   4.264   1.345   0.361 -0.0105 -0.0084  1.8710
 6049TIP3   OH239637   6.508   0.698   3.959  0.6828 -0.1730 -0.1705
 6049TIP3    H139638   6.422   0.689   3.918 -0.0406 -0.1603  1.2947
 6049TIP3    H239639   6.521   0.792   3.969 -0.6084 -0.2419  2.5625
 6050TIP3   OH239640   6.399   3.827   2.955  0.1168 -0.3964 -0.0210
 6050TIP3    H139641   6.437   3.909   2.985 -0.0005  0.1265 -1.2544
 6050TIP3    H239642   6.323   3.813   3.011  0.8932 -0.3462  1.0469
 6051TIP3   OH239643   1.956   2.910   2.742  0.3350  0.4134  0.7273
 6051TIP3    H139644   1.973   2.893   2.650 -0.0460  0.1110  0.7112
 6051TIP3    H239645   1.863   2.891   2.753  0.3846  0.4282  1.1790
 6052TIP3   OH239646   0.587   2.381   3.857  0.0267 -0.3577  0.1230
 6052TIP3    H139647   0.638   2.443   3.804 -0.4229 -0.2120 -0.1423
 6052TIP3    H239648   0.606   2.406   3.948  1.2416 -0.9704  0.0455
 6053TIP3   OH239649   5.748   5.233  14.147 -0.2350  0.6077  0.1155
 6053TIP3    H139650   5.659   5.198  14.154 -0.8428  2.3325  1.3242
 6053TIP3    H239651   5.803   5.165  14.185 -0.8958 -0.9943 -1.7273
 6054TIP3   OH239652   5.902   2.040   5.491  0.0515  0.8006  0.2572
 6054TIP3    H139653   5.845   1.984   5.438  1.7831 -0.6507 -0.1068
 6054TIP3    H239654   5.893   2.007   5.580  1.3169 -0.2938 -0.0070
 6055TIP3   OH239655   2.657   4.643   3.989 -0.6272 -0.4650  0.0096
 6055TIP3    H139656   2.682   4.631   3.898  0.2635  1.1782  0.0256
 6055TIP3    H239657   2.685   4.562   4.033  0.7049 -0.4575 -0.8083
 6056TIP3   OH239658   0.945   4.685   2.931  0.1549 -0.7851 -1.1697
 6056TIP3    H139659   0.912   4.624   2.997 -0.1157  0.6332  0.0243
 6056TIP3    H239660   1.039   4.691   2.949 -0.4565  2.3339  1.4353
 6057TIP3   OH239661   5.365   6.050  10.565  0.1470 -0.8660  0.2123
 6057TIP3    H139662   5.365   5.956  10.553  1.1751 -1.0911  1.7730
 6057TIP3    H239663   5.318   6.064  10.648  0.0244 -0.0072  0.0117
 6058TIP3   OH239664   6.741   1.284   6.567 -0.0811 -0.4627 -0.5472
 6058TIP3    H139665   6.736   1.372   6.603 -1.1741 -0.3365 -0.9937
 6058TIP3    H239666   6.707   1.228   6.637 -1.6098 -0.2824 -1.1354
 6059TIP3   OH239667   6.599   1.818  11.139 -0.1083  0.0062  0.3528
 6059TIP3    H139668   6.645   1.900  11.122 -3.1210  2.1970  2.2824
 6059TIP3    H239669   6.636   1.786  11.221  0.3272 -0.0193  0.1466
 6060TIP3   OH239670   5.586   6.345  11.269  0.3104 -0.6551 -0.0998
 6060TIP3    H139671   5.536   6.273  11.307 -1.2710  0.2495 -0.4241
 6060TIP3    H239672   5.523   6.392  11.214  1.5459  0.4490 -0.6117
 6061TIP3   OH239673   6.365   4.456   4.079  0.2276 -0.3520 -0.4606
 6061TIP3    H139674   6.379   4.364   4.057  1.2220 -0.2943 -0.0675
 6061TIP3    H239675   6.417   4.470   4.158 -0.6423  0.3139  0.0014
 6062TIP3   OH239676   6.534   1.735  11.670  0.4823 -0.5412  0.2883
 6062TIP3    H139677   6.604   1.670  11.665  0.3137 -0.5841 -1.9865
 6062TIP3    H239678   6.574   1.811  11.713  1.8222 -0.6910 -0.6690
 6063TIP3   OH239679   3.329   1.868   5.232 -0.0098  0.2827 -0.0071
 6063TIP3    H139680   3.286   1.925   5.296 -1.0293 -1.9638  1.3553
 6063TIP3    H239681   3.257   1.825   5.185  0.7213 -0.8993 -0.0730
 6064TIP3   OH239682   2.818   1.603   5.856  0.5983  0.3873  0.2756
 6064TIP3    H139683   2.811   1.524   5.910  1.4586  0.1647  0.0735
 6064TIP3    H239684   2.912   1.618   5.848  0.5029  0.2666 -1.3732
 6065TIP3   OH239685   2.668   2.481  13.925  0.0650  0.7172  0.3349
 6065TIP3    H139686   2.687   2.433  14.006 -0.0694  2.3339  1.3403
 6065TIP3    H239687   2.753   2.511  13.894  0.0716  0.4330  0.0643
 6066TIP3   OH239688   0.918   0.811  10.849  0.3396  0.2604  0.2074
 6066TIP3    H139689   0.992   0.800  10.909  0.0739  1.9379  0.8526
 6066TIP3    H239690   0.950   0.776  10.766  0.8635 -1.7003  1.1941
 6067TIP3   OH239691   4.579   6.627   1.375  0.6339  0.0193 -0.4071
 6067TIP3    H139692   4.652   6.686   1.393 -0.7087  1.9770 -1.2981
 6067TIP3    H239693   4.600   6.589   1.290  1.7944 -1.3237  0.4322
 6068TIP3   OH239694   2.595   4.633  16.381  0.7330  0.6811 -0.3227
 6068TIP3    H139695   2.596   4.693  16.455 -0.0423  0.3809 -0.0649
 6068TIP3    H239696   2.569   4.549  16.419  1.6794  0.2140 -0.7024
 6069TIP3   OH239697   1.002   6.229  11.567  0.4123  0.2748 -0.1659
 6069TIP3    H139698   1.000   6.215  11.662  1.7316 -0.3395 -0.2234
 6069TIP3    H239699   1.014   6.142  11.530  2.4604  0.8178 -0.7946
 6070TIP3   OH239700   5.545   0.524  15.734 -0.0487  0.5503  0.2320
 6070TIP3    H139701   5.508   0.592  15.791 -3.1282  1.0033 -2.1668
 6070TIP3    H239702   5.513   0.442  15.771  0.1776  0.6678  0.6921
 6071TIP3   OH239703   5.961   1.556  15.502 -0.6764  0.0315 -0.0772
 6071TIP3    H139704   6.001   1.489  15.447 -1.1650 -0.6883  0.4289
 6071TIP3    H239705   5.932   1.508  15.580 -0.3495  0.9665  0.6214
 6072TIP3   OH239706   0.577   0.093   4.778  0.1207  0.5778  0.0557
 6072TIP3    H139707   0.508   0.030   4.794 -0.0190  0.9358  0.8896
 6072TIP3    H239708   0.592   0.134   4.863  1.4416  0.4113 -0.0859
 6073TIP3   OH239709   1.672   0.746  13.576  0.4062 -0.2295  0.3914
 6073TIP3    H139710   1.629   0.669  13.538 -1.4596  0.9633  0.0065
 6073TIP3    H239711   1.695   0.800  13.501 -2.0798  1.5048  0.7900
 6074TIP3   OH239712   3.385   5.899  13.507  0.2916 -0.7350  0.6817
 6074TIP3    H139713   3.344   5.965  13.450 -0.8341 -2.2653 -0.3413
 6074TIP3    H239714   3.458   5.866  13.456  0.3686 -0.8367  0.8584
 6075TIP3   OH239715   1.772   6.259  16.760  0.6613 -0.4332  0.1787
 6075TIP3    H139716   1.843   6.233  16.819  0.9300 -0.2315 -0.0528
 6075TIP3    H239717   1.770   6.354  16.767 -0.5035 -0.5331  1.2449
 6076TIP3   OH239718   4.542   1.812  13.506  0.0710  0.3745  0.3123
 6076TIP3    H139719   4.619   1.769  13.470 -0.9625 -1.3981  0.1069
 6076TIP3    H239720   4.498   1.851  13.431  0.4040  0.7734  0.3271
 6077TIP3   OH239721   5.555   0.771   4.927  0.6093 -0.1207  0.4693
 6077TIP3    H139722   5.608   0.820   4.989 -0.1364  1.1684  0.0883
 6077TIP3    H239723   5.515   0.837   4.871  1.9909 -1.2848 -2.0038
 6078TIP3   OH239724   5.166   1.301  16.311  0.2748  0.1686  0.1704
 6078TIP3    H139725   5.155   1.246  16.233  0.6409 -0.2701  0.4215
 6078TIP3    H239726   5.261   1.303  16.325  0.2816  1.1325 -0.0243
 6079TIP3   OH239727   3.720   5.705   4.018 -0.4040 -0.5793  0.0379
 6079TIP3    H139728   3.709   5.673   3.929 -3.5948  1.2670 -0.3356
 6079TIP3    H239729   3.641   5.675   4.064 -1.4904  3.0890  0.7369
 6080TIP3   OH239730   4.661   2.699   2.969  0.9925 -0.8452  0.6427
 6080TIP3    H139731   4.624   2.656   3.047  0.4579 -1.1260  0.2390
 6080TIP3    H239732   4.741   2.651   2.950  2.6040  0.9445  2.6489
 6081TIP3   OH239733   1.023   1.591   2.742  0.5175  0.1298 -0.5322
 6081TIP3    H139734   0.972   1.624   2.668  0.0110  0.9674  0.1781
 6081TIP3    H239735   1.098   1.650   2.748 -0.3187  1.1060  0.6587
 6082TIP3   OH239736   4.212   3.447  11.633 -0.4612 -0.1565 -0.4259
 6082TIP3    H139737   4.182   3.413  11.718 -1.6874  0.3898 -0.6313
 6082TIP3    H239738   4.156   3.523  11.617 -0.5167 -0.5006 -1.9148
 6083TIP3   OH239739   1.827   0.368   4.577 -0.3823  0.1870 -0.5783
 6083TIP3    H139740   1.898   0.318   4.536  0.5911  0.5058  0.6909
 6083TIP3    H239741   1.866   0.403   4.658 -1.7121  1.1374 -0.3386
 6084TIP3   OH239742   1.224   6.609  16.740 -0.5374  0.1322  0.4219
 6084TIP3    H139743   1.291   6.677  16.737  0.0279 -0.4537 -0.3335
 6084TIP3    H239744   1.272   6.528  16.726 -1.2021 -0.4282  1.4123
 6085TIP3   OH239745   1.578   4.095   0.026  1.1757 -0.7072  0.6815
 6085TIP3    H139746   1.515   4.114   0.095  2.3820 -1.0733  1.9077
 6085TIP3    H239747   1.645   4.163   0.035  2.3165 -1.8564  1.1080
 6086TIP3   OH239748   0.334   0.439   0.047 -0.0035 -0.1237  0.3258
 6086TIP3    H139749   0.336   0.532   0.068  2.5832  0.0599 -0.6081
 6086TIP3    H239750   0.412   0.403   0.089 -1.1894 -1.9696  1.0157
 6087TIP3   OH239751   0.806   4.174  13.710 -0.0153  0.3978 -0.1731
 6087TIP3    H139752   0.829   4.261  13.678 -1.2015  0.9030  0.3156
 6087TIP3    H239753   0.710   4.174  13.715  0.0601 -0.1290  2.0192
 6088TIP3   OH239754   0.266   4.797  11.638 -0.1578 -0.1096 -0.1476
 6088TIP3    H139755   0.306   4.719  11.599  1.0624  0.3970  0.0758
 6088TIP3    H239756   0.297   4.870  11.585  0.0043  0.3891  0.6223
 6089TIP3   OH239757   4.034   2.561  16.849  0.0451 -0.2350 -0.3378
 6089TIP3    H139758   3.995   2.604  16.926  0.1080 -1.6942  0.5153
 6089TIP3    H239759   4.037   2.631  16.783 -2.6690  0.2962  0.0308
 6090TIP3   OH239760   0.784   3.987   2.582  0.2290  0.2569  0.0825
 6090TIP3    H139761   0.725   4.042   2.530  0.9441  0.7641 -0.1986
 6090TIP3    H239762   0.745   3.987   2.669 -0.1991  0.5772 -0.1032
 6091TIP3   OH239763   5.163   6.550  15.858 -0.5405 -0.4868 -0.6428
 6091TIP3    H139764   5.139   6.458  15.858 -0.8470 -0.4238 -3.0122
 6091TIP3    H239765   5.223   6.559  15.933  1.8171 -3.2445 -2.0883
 6092TIP3   OH239766   5.668   0.700   1.963 -0.2205  0.0258 -0.4999
 6092TIP3    H139767   5.708   0.614   1.975  1.0386  0.5095 -1.0703
 6092TIP3    H239768   5.605   0.708   2.034  0.5095 -0.8864  0.2543
 6093TIP3   OH239769   4.454   1.589   4.053  0.4058 -0.0913 -0.3484
 6093TIP3    H139770   4.457   1.509   4.106  1.8256  0.4928  0.5039
 6093TIP3    H239771   4.411   1.563   3.972 -3.7605 -0.5451  1.8962
 6094TIP3   OH239772   4.997   3.115   5.120 -0.4116  0.0755  0.2016
 6094TIP3    H139773   5.018   3.184   5.183 -1.2272  2.0595 -1.6204
 6094TIP3    H239774   5.043   3.142   5.040 -0.2594 -1.8243 -0.3621
 6095TIP3   OH239775   5.890   2.718  13.576 -0.0773  0.0367  0.1407
 6095TIP3    H139776   5.885   2.797  13.630  2.7203  1.6591 -1.8349
 6095TIP3    H239777   5.968   2.731  13.522 -0.5170 -3.3479 -1.4279
 6096TIP3   OH239778   1.480   4.250   2.367  0.1310  0.0811 -0.0684
 6096TIP3    H139779   1.505   4.207   2.285 -0.9321 -0.4670 -0.1164
 6096TIP3    H239780   1.475   4.178   2.430  0.1973  0.3980  0.2963
 6097TIP3   OH239781   1.979   4.901  10.949  0.1068 -0.3380 -0.4341
 6097TIP3    H139782   2.053   4.944  10.907  0.3738 -0.9140 -0.5585
 6097TIP3    H239783   1.905   4.915  10.890  0.5099 -1.2659 -1.1811
 6098TIP3   OH239784   1.030   2.397   4.798  0.0813  0.0372 -0.1568
 6098TIP3    H139785   0.957   2.392   4.736  0.9649 -0.5850 -1.1686
 6098TIP3    H239786   1.097   2.449   4.752  0.6980 -0.3237  0.3299
 6099TIP3   OH239787   5.846   4.826  14.009  0.1389 -0.8370 -0.3107
 6099TIP3    H139788   5.777   4.862  14.064  1.5816 -1.3621  1.9229
 6099TIP3    H239789   5.800   4.784  13.936 -1.8475 -0.8086  0.9109
 6100TIP3   OH239790   1.452   1.886  11.614  1.0273 -0.3855  0.1683
 6100TIP3    H139791   1.515   1.876  11.543 -1.2665 -2.8016 -1.6637
 6100TIP3    H239792   1.395   1.957  11.586  0.7697 -0.6321  0.0541
 6101TIP3   OH239793   5.406   3.326  11.085  0.4061 -0.1495  0.3569
 6101TIP3    H139794   5.390   3.233  11.102  0.5649 -0.1601  0.4528
 6101TIP3    H239795   5.472   3.326  11.016  1.1777 -0.1138  1.0821
 6102TIP3   OH239796   0.333   2.027  15.011  0.0452 -0.1927 -0.0872
 6102TIP3    H139797   0.306   1.970  15.083  0.5286  0.6413  0.7680
 6102TIP3    H239798   0.309   1.979  14.931  0.5389 -1.6218  0.6186
 6103TIP3   OH239799   4.735   3.055  15.139 -0.1259  0.3425 -0.4630
 6103TIP3    H139800   4.664   3.073  15.077  1.8113  1.9762 -2.2763
 6103TIP3    H239801   4.761   3.141  15.172  1.5527 -0.1545 -0.4400
 6104TIP3   OH239802   3.478   6.028   0.634  0.4669  0.0619 -0.1653
 6104TIP3    H139803   3.545   6.019   0.702  0.9568 -0.1451 -0.6704
 6104TIP3    H239804   3.426   5.948   0.642 -0.7250  0.9590  1.2928
 6105TIP3   OH239805   5.833   2.368   5.587  0.0269 -0.3924 -0.3578
 6105TIP3    H139806   5.773   2.310   5.634  1.3267  0.1257  2.0074
 6105TIP3    H239807   5.829   2.451   5.635 -0.1039  0.8015 -2.3622
 6106TIP3   OH239808   3.042   5.510   1.928  0.5345 -0.0359 -0.1525
 6106TIP3    H139809   3.086   5.509   1.843  0.2525 -1.2090 -0.2886
 6106TIP3    H239810   2.967   5.568   1.916  0.4946 -0.1993 -0.7031
 6107TIP3   OH239811   2.281   0.914   5.256  0.0724  0.5767  0.1997
 6107TIP3    H139812   2.335   0.883   5.183 -0.2948  1.3855 -0.4260
 6107TIP3    H239813   2.234   0.836   5.286 -0.2548  0.3582 -0.8559
 6108TIP3   OH239814   4.378   1.943  13.326 -0.2935 -0.5207 -0.1440
 6108TIP3    H139815   4.358   1.961  13.234  1.2443 -0.0686 -0.4126
 6108TIP3    H239816   4.424   2.021  13.356  1.5576 -1.7352  0.2484
 6109TIP3   OH239817   6.073   6.803  13.493 -0.4983 -0.3054  0.3634
 6109TIP3    H139818   6.091   6.864  13.422  0.9084 -0.0490  0.9286
 6109TIP3    H239819   6.085   6.716  13.454  2.5206 -0.1384  0.8425
 6110TIP3   OH239820   4.022   5.012  12.930  0.3214 -0.0539 -0.4551
 6110TIP3    H139821   3.935   5.021  12.890  1.3240  1.5229 -2.3665
 6110TIP3    H239822   4.020   5.073  13.003 -0.8862 -1.6074  0.8695
 6111TIP3   OH239823   5.087   1.724  13.708 -0.2515  0.3027 -0.1671
 6111TIP3    H139824   5.077   1.767  13.623  1.7823 -1.9196 -1.6136
 6111TIP3    H239825   5.178   1.695  13.709  0.1313  1.3585  3.3438
 6112TIP3   OH239826   6.582   1.563  14.220  0.3727  0.0822  0.0341
 6112TIP3    H139827   6.588   1.516  14.303 -0.6817  0.3945  0.2952
 6112TIP3    H239828   6.644   1.635  14.228  1.2336 -0.6528  0.0376
 6113TIP3   OH239829   6.017   6.493   0.761  0.0200  0.0115  0.7929
 6113TIP3    H139830   5.943   6.531   0.714 -0.2644  1.2800  2.2403
 6113TIP3    H239831   5.999   6.513   0.853  2.9496  1.7238  1.0340
 6114TIP3   OH239832   5.285   4.361  17.026  0.8972 -0.5166 -0.1172
 6114TIP3    H139833   5.314   4.440  17.071  0.6478  0.5622 -1.8038
 6114TIP3    H239834   5.194   4.380  17.003  1.1384 -0.8920 -1.3953
 6115TIP3   OH239835   4.521   2.720  10.956  0.1462  1.0563 -0.6136
 6115TIP3    H139836   4.444   2.768  10.986  0.8105  1.1590  0.9758
 6115TIP3    H239837   4.496   2.628  10.965 -0.4508  1.0741 -1.8954
 6116TIP3   OH239838   5.839   3.103   0.782  0.3244  0.0256  0.1696
 6116TIP3    H139839   5.916   3.131   0.731  0.1930 -1.0165 -0.6146
 6116TIP3    H239840   5.872   3.036   0.841 -0.4814 -2.4803 -2.1240
 6117TIP3   OH239841   1.745   3.376   3.566  0.4522 -0.1451 -0.4980
 6117TIP3    H139842   1.839   3.380   3.580  0.6072  0.4640 -1.6762
 6117TIP3    H239843   1.730   3.425   3.485 -1.0494  1.0880  0.5000
 6118TIP3   OH239844   1.628   4.076  14.298  0.5521  0.1088 -0.0405
 6118TIP3    H139845   1.606   3.984  14.312  1.4824  0.0491  1.1213
 6118TIP3    H239846   1.543   4.121  14.296  0.1205 -0.6903 -0.0782
 6119TIP3   OH239847   4.429   5.744  13.239 -0.1405  0.9702  0.0381
 6119TIP3    H139848   4.350   5.691  13.254 -0.6162  1.8217  0.5511
 6119TIP3    H239849   4.399   5.816  13.184  0.2255  1.4618  0.4852
 6120TIP3   OH239850   0.156   4.753   5.287  0.3159 -0.1520  0.0998
 6120TIP3    H139851   0.124   4.669   5.319 -0.4858 -0.3442 -1.1589
 6120TIP3    H239852   0.144   4.749   5.192 -0.5726  1.7101  0.1016
 6121TIP3   OH239853   3.481   4.402  10.509  0.5149  0.0488  0.2500
 6121TIP3    H139854   3.435   4.404  10.594 -0.1246 -0.6178 -0.0767
 6121TIP3    H239855   3.412   4.418  10.445  0.3610 -3.0913 -0.4049
 6122TIP3   OH239856   1.351   3.666  11.141  0.0410 -0.7479 -0.0607
 6122TIP3    H139857   1.369   3.606  11.213  0.7838  0.2839  0.6472
 6122TIP3    H239858   1.426   3.657  11.083  1.9598  1.9934  1.8130
 6123TIP3   OH239859   1.215   4.005  11.599  0.0590  0.6274 -0.4199
 6123TIP3    H139860   1.163   4.086  11.597 -0.2607  0.4155 -0.7676
 6123TIP3    H239861   1.214   3.974  11.508  2.8494  1.9277 -0.9539
 6124TIP3   OH239862   0.014   5.145  12.811 -0.5394  0.1481 -0.1056
 6124TIP3    H139863  -0.042   5.089  12.864  0.7226 -2.0823 -1.0419
 6124TIP3    H239864  -0.016   5.234  12.829 -2.7928 -0.8449  1.1857
 6125TIP3   OH239865   2.937   5.702   0.715 -0.0352  0.8962 -0.1558
 6125TIP3    H139866   3.013   5.702   0.773 -1.1629 -1.4704  1.3890
 6125TIP3    H239867   2.893   5.786   0.733  0.5346  0.9096  1.1836
 6126TIP3   OH239868   1.025   6.285   1.492 -0.2829  0.3730  0.0256
 6126TIP3    H139869   0.964   6.341   1.540 -2.2537 -1.0423 -0.7683
 6126TIP3    H239870   1.102   6.340   1.478 -1.3655  2.1922  1.0444
 6127TIP3   OH239871   1.586   2.820  11.791 -0.3350 -0.3496 -0.2187
 6127TIP3    H139872   1.664   2.782  11.752 -0.6099 -0.6299 -0.5036
 6127TIP3    H239873   1.556   2.884  11.727  2.0720  2.8731  1.7630
 6128TIP3   OH239874   4.867   6.002   2.443 -0.0425  0.1616 -0.4650
 6128TIP3    H139875   4.828   6.069   2.387 -0.0972 -0.1654 -0.8219
 6128TIP3    H239876   4.960   6.025   2.447  0.4528 -1.2433 -2.7848
 6129TIP3   OH239877   4.387   2.071  16.302 -0.3257 -0.2386  0.4284
 6129TIP3    H139878   4.330   2.147  16.305 -0.9333 -0.7044  0.6885
 6129TIP3    H239879   4.369   2.024  16.384  0.4599 -0.3665  0.5389
 6130TIP3   OH239880   4.443   2.783  17.194  0.2786 -0.7071  0.1148
 6130TIP3    H139881   4.360   2.737  17.182  0.1236 -0.4438  0.1589
 6130TIP3    H239882   4.510   2.715  17.188  0.2453 -0.5726 -2.5741
 6131TIP3   OH239883   4.994   0.335   5.125 -0.1419  0.1372  0.1813
 6131TIP3    H139884   5.027   0.424   5.128 -0.0863  0.1176  0.1502
 6131TIP3    H239885   5.033   0.292   5.202 -0.5145  0.2595  0.4384
 6132TIP3   OH239886   3.657   0.564   0.764 -0.1567 -0.5256  0.4431
 6132TIP3    H139887   3.596   0.505   0.810 -0.1257 -1.4100 -0.6263
 6132TIP3    H239888   3.638   0.550   0.672 -0.0612  1.0756  0.1652
 6133TIP3   OH239889   5.190   2.888   0.213 -0.2912  0.1341  0.4609
 6133TIP3    H139890   5.208   2.980   0.196 -0.0243 -0.2351 -1.4370
 6133TIP3    H239891   5.272   2.843   0.191 -0.2277 -0.5042  1.9408
 6134TIP3   OH239892   6.477   2.560  11.607  0.0616  0.1739  0.2184
 6134TIP3    H139893   6.456   2.652  11.625  0.1505  0.1976  0.2047
 6134TIP3    H239894   6.536   2.535  11.678  0.7859  0.4049 -0.3000
 6135TIP3   OH239895   4.573   1.280   4.091 -0.2892  0.3737  0.0742
 6135TIP3    H139896   4.630   1.225   4.037 -0.6045  1.7953 -1.7708
 6135TIP3    H239897   4.495   1.226   4.106  0.4277 -0.5954  0.3914
 6136TIP3   OH239898   2.378   0.634   5.466 -0.3059  0.0137 -0.1869
 6136TIP3    H139899   2.321   0.655   5.540  1.1580  0.3489  0.8745
 6136TIP3    H239900   2.450   0.584   5.505 -0.4117 -1.3261 -1.6783
 6137TIP3   OH239901   0.636   6.039   1.322 -0.1173  0.3155 -0.4717
 6137TIP3    H139902   0.556   6.062   1.368 -1.2198 -2.6348 -0.8262
 6137TIP3    H239903   0.631   6.087   1.239 -1.4777  0.1852 -0.4678
 6138TIP3   OH239904   0.422   6.499  13.179  0.6543  0.7412 -0.4294
 6138TIP3    H139905   0.450   6.447  13.254  1.3138 -0.2042 -1.3104
 6138TIP3    H239906   0.376   6.574  13.217  0.2110 -0.1797  0.8723
 6139TIP3   OH239907   0.341   2.381   2.392 -0.1895  0.5161 -0.0408
 6139TIP3    H139908   0.346   2.315   2.322 -1.3293 -0.0453  0.3912
 6139TIP3    H239909   0.293   2.453   2.354 -0.6300  0.2958  0.0959
 6140TIP3   OH239910   3.514   4.540  13.084 -0.7702  0.2810 -0.3447
 6140TIP3    H139911   3.418   4.544  13.091 -0.9137 -1.1665 -1.3455
 6140TIP3    H239912   3.534   4.590  13.005 -0.5530  1.7901  0.6263
 6141TIP3   OH239913   4.019   0.121  12.940  0.2060  0.5308  0.0458
 6141TIP3    H139914   3.998   0.061  12.869 -3.8066  0.7504  0.9289
 6141TIP3    H239915   4.047   0.064  13.012 -0.2347 -0.0581 -0.2441
 6142TIP3   OH239916   4.681   5.443   3.926  0.1895  0.0793 -0.7117
 6142TIP3    H139917   4.756   5.390   3.899 -0.7296 -1.0739 -1.0247
 6142TIP3    H239918   4.612   5.419   3.864 -0.1585  1.8568 -1.0319
 6143TIP3   OH239919   1.365   1.639  15.682  0.0071 -0.2887  0.4439
 6143TIP3    H139920   1.329   1.714  15.635  0.4809 -0.7350 -0.6658
 6143TIP3    H239921   1.306   1.566  15.661 -0.2397 -0.3117  1.2068
 6144TIP3   OH239922   6.376   3.055   1.923 -0.4155 -0.5934  0.5912
 6144TIP3    H139923   6.289   3.016   1.932 -0.3014 -0.3924  3.0188
 6144TIP3    H239924   6.362   3.148   1.936  0.0956 -0.5084  0.5496
 6145TIP3   OH239925   2.017   6.671   1.305 -0.2191  0.2481 -0.0469
 6145TIP3    H139926   1.930   6.709   1.300  0.3708  1.7071  0.4939
 6145TIP3    H239927   2.019   6.625   1.389 -0.2818  0.6676  0.1835
 6146TIP3   OH239928   2.303   2.499  14.325 -0.4200  0.6778  0.6965
 6146TIP3    H139929   2.315   2.482  14.232 -1.2281  0.9243  0.5406
 6146TIP3    H239930   2.279   2.414  14.362  1.2170  0.2912  0.9219
 6147TIP3   OH239931   5.034   1.278   1.529 -0.0791 -0.4189  0.3595
 6147TIP3    H139932   5.100   1.345   1.513  0.0277 -0.3913  0.8872
 6147TIP3    H239933   5.082   1.195   1.527 -0.1470 -0.4525  0.0721
 6148TIP3   OH239934   6.449   0.487  15.036 -0.1183 -0.0467 -0.1622
 6148TIP3    H139935   6.465   0.544  15.112  1.2762 -1.5298  0.6694
 6148TIP3    H239936   6.356   0.466  15.041  0.3313 -1.5748  2.1613
 6149TIP3   OH239937   4.186   1.655  14.692  0.0142 -0.0606 -0.3572
 6149TIP3    H139938   4.119   1.609  14.642  0.0600 -0.8489  0.2989
 6149TIP3    H239939   4.248   1.587  14.718 -0.1409  0.2990  0.9897
 6150TIP3   OH239940   4.457   2.940  14.704  0.0769  0.1727  0.1868
 6150TIP3    H139941   4.371   2.930  14.664  0.7376  0.6046 -1.3866
 6150TIP3    H239942   4.508   2.988  14.639  1.0777  1.2049  1.7111
 6151TIP3   OH239943   0.819   6.624  17.286  0.2096 -0.2326 -0.0038
 6151TIP3    H139944   0.901   6.671  17.302  0.0113 -0.3427  1.4273
 6151TIP3    H239945   0.753   6.673  17.335 -0.4835 -0.4568 -0.7092
 6152TIP3   OH239946   2.788   3.698   4.871 -0.1124 -0.5153 -0.3432
 6152TIP3    H139947   2.842   3.701   4.792  1.2951  0.6631  0.6432
 6152TIP3    H239948   2.785   3.789   4.901  2.2194 -1.4208  2.8600
 6153TIP3   OH239949   2.842   6.031  12.415  0.4634 -0.3678 -0.2122
 6153TIP3    H139950   2.754   5.995  12.409 -0.3391  1.4778  0.1423
 6153TIP3    H239951   2.886   6.003  12.335 -0.9831  0.1005 -1.1797
 6154TIP3   OH239952   0.308   3.989  11.288  0.0570 -0.3578 -0.1172
 6154TIP3    H139953   0.387   3.990  11.341 -2.3616  1.5643  3.7314
 6154TIP3    H239954   0.308   4.072  11.241  0.8402 -0.8384 -0.9722
 6155TIP3   OH239955   3.764   4.078  17.179 -0.0191  0.2252  0.6169
 6155TIP3    H139956   3.819   4.101  17.255  0.4956  0.5466  0.1490
 6155TIP3    H239957   3.681   4.051  17.218 -0.3768  2.1181  1.2427
 6156TIP3   OH239958   1.181   3.174   4.123 -0.5538 -0.1041  0.4046
 6156TIP3    H139959   1.092   3.142   4.107 -0.5353 -0.2482  0.5931
 6156TIP3    H239960   1.225   3.101   4.167 -0.3121 -0.0722  0.2147
 6157TIP3   OH239961   5.648   2.711   4.964 -0.4472  0.4979  0.3945
 6157TIP3    H139962   5.703   2.647   4.920 -0.9332  0.5119 -0.2369
 6157TIP3    H239963   5.653   2.790   4.909  0.6260  1.2052  1.4797
 6158TIP3   OH239964   3.695   2.267   0.001 -0.1945 -0.1016  0.0701
 6158TIP3    H139965   3.776   2.297  -0.040 -0.5374 -0.5214 -0.9333
 6158TIP3    H239966   3.626   2.295  -0.059 -0.7261 -0.4397  0.5200
 6159TIP3   OH239967   4.475   5.141   1.552 -0.9373  0.2353 -0.4418
 6159TIP3    H139968   4.543   5.120   1.616 -1.1513  0.8854 -0.0045
 6159TIP3    H239969   4.422   5.209   1.593 -1.4659  0.1984 -1.0451
 6160TIP3   OH239970   1.616   4.645  13.289  0.0718 -0.4745  0.1434
 6160TIP3    H139971   1.637   4.569  13.235  2.4017  0.9999 -1.1159
 6160TIP3    H239972   1.547   4.690  13.240  1.4085  0.2670 -1.1141
 6161TIP3   OH239973   0.512   5.081   4.108 -0.3713 -0.3438 -0.5649
 6161TIP3    H139974   0.556   5.123   4.182  2.3355 -3.2663 -0.3986
 6161TIP3    H239975   0.438   5.138   4.089  0.6101  2.0965  2.4295
 6162TIP3   OH239976   0.501   5.026   0.933 -0.6616 -0.2491  0.0251
 6162TIP3    H139977   0.413   4.989   0.923 -1.3048  0.9587  1.0332
 6162TIP3    H239978   0.504   5.056   1.024  1.5521 -2.1665  0.6334
 6163TIP3   OH239979   0.758   0.209  16.533 -0.2725  0.0499  0.0079
 6163TIP3    H139980   0.826   0.255  16.484 -0.4462 -1.0103 -1.2595
 6163TIP3    H239981   0.754   0.254  16.617  0.6944  1.2968 -0.6056
 6164TIP3   OH239982   3.893   2.363   2.928  0.1774 -0.0061 -0.1586
 6164TIP3    H139983   3.967   2.302   2.928  0.6121  0.5202 -0.3394
 6164TIP3    H239984   3.822   2.315   2.885  0.7733 -0.0820 -1.0563
 6165TIP3   OH239985   2.166   3.834   2.522 -0.1241 -0.0865  0.0121
 6165TIP3    H139986   2.244   3.887   2.540  0.4045 -0.1342 -1.9246
 6165TIP3    H239987   2.198   3.744   2.524 -1.3396 -0.4911  4.8205
 6166TIP3   OH239988   4.237   0.029  15.972 -0.4320  0.3112 -0.1398
 6166TIP3    H139989   4.172   0.031  15.902 -1.3002  1.3551  0.6837
 6166TIP3    H239990   4.230   0.115  16.013  2.5198  1.0043 -0.9868
 6167TIP3   OH239991   3.961   1.528  12.731 -0.2340 -0.4297  0.6568
 6167TIP3    H139992   3.869   1.532  12.705 -0.2118 -2.8166  0.1301
 6167TIP3    H239993   3.967   1.587  12.807 -2.1632 -0.1767  0.6298
 6168TIP3   OH239994   0.172   5.640  14.168  0.0226 -0.2016 -0.0798
 6168TIP3    H139995   0.252   5.683  14.199  0.0483 -0.0042 -0.4302
 6168TIP3    H239996   0.166   5.663  14.076 -0.3043 -0.4272 -0.1134
 6169TIP3   OH239997   4.137   6.548  14.037  0.3894  0.3349  0.1931
 6169TIP3    H139998   4.075   6.491  13.992  0.6546  0.7416 -0.7022
 6169TIP3    H239999   4.095   6.569  14.120 -0.6998  0.6463 -0.4265
 6170TIP3   OH240000   0.225   2.235  16.574  0.1708  0.1561 -0.0670
 6170TIP3    H140001   0.237   2.242  16.479  0.1679 -0.1029 -0.0882
 6170TIP3    H240002   0.169   2.309  16.597  1.2566  0.9913 -0.0685
 6171TIP3   OH240003   3.249   5.785   6.195  0.1552  0.4513  0.3249
 6171TIP3    H140004   3.249   5.741   6.280 -1.8113  0.4867  0.3587
 6171TIP3    H240005   3.229   5.877   6.215 -0.0241  0.5189 -0.1554
 6172TIP3   OH240006   3.546   5.664   2.088 -0.6973 -0.0472  0.3871
 6172TIP3    H140007   3.468   5.708   2.057 -1.1834 -1.3631 -0.2859
 6172TIP3    H240008   3.611   5.677   2.018 -0.4999  0.5041  0.6665
 6173TIP3   OH240009   0.013   5.968   3.106  0.4739  0.3716  0.2853
 6173TIP3    H140010  -0.026   5.962   3.193  0.3689  0.9061  0.2762
 6173TIP3    H240011  -0.063   5.977   3.047  0.6116  1.5695  0.2802
 6174TIP3   OH240012   0.885   4.823  13.469  0.3114  0.0665 -0.4187
 6174TIP3    H140013   0.798   4.803  13.504  0.8829 -1.0339  0.4042
 6174TIP3    H240014   0.935   4.855  13.544  1.2997 -1.5039 -0.3882
 6175TIP3   OH240015   6.593   3.862   5.534 -0.6739 -0.1529  0.6461
 6175TIP3    H140016   6.539   3.812   5.595 -1.7551 -0.2018 -0.3349
 6175TIP3    H240017   6.564   3.833   5.448  0.0861  0.7173  0.0963
 6176TIP3   OH240018   0.733   2.396  15.780 -0.5472 -0.2692  0.2334
 6176TIP3    H140019   0.707   2.487  15.762 -0.3408 -0.0622  0.9467
 6176TIP3    H240020   0.796   2.403  15.852  1.2131 -0.8029 -1.2094
 6177TIP3   OH240021   2.772   4.141   3.698  0.2351  0.6066  0.0754
 6177TIP3    H140022   2.824   4.095   3.764  0.2458 -0.4427 -0.6519
 6177TIP3    H240023   2.692   4.166   3.744  0.0855 -0.4422  0.4046
 6178TIP3   OH240024   1.823   1.588  11.357 -0.2055 -0.6840  0.6174
 6178TIP3    H140025   1.736   1.621  11.378  0.4001  0.7210  0.9781
 6178TIP3    H240026   1.880   1.626  11.424  0.6490 -1.8340  0.5692
 6179TIP3   OH240027   4.430   1.006  13.677 -0.2776  0.2491 -1.0421
 6179TIP3    H140028   4.520   0.998  13.644  0.1792 -0.0588  0.2213
 6179TIP3    H240029   4.380   1.042  13.604  0.7444 -0.1950 -1.9714
 6180TIP3   OH240030   2.447   4.692  12.393  0.9199 -0.3018 -0.4066
 6180TIP3    H140031   2.490   4.610  12.414  0.5249 -0.0364  1.5437
 6180TIP3    H240032   2.518   4.753  12.374  1.5757  0.3993  3.7165
 6181TIP3   OH240033   2.332   5.727   0.605  0.3922  0.3092 -0.4269
 6181TIP3    H140034   2.296   5.802   0.652 -0.2962 -0.0935 -0.2891
 6181TIP3    H240035   2.319   5.748   0.513 -0.4788  0.0479 -0.3747
 6182TIP3   OH240036   6.431   3.077   6.154 -0.5600 -0.1777  0.1039
 6182TIP3    H140037   6.505   3.028   6.119 -1.1514 -2.1964  1.5782
 6182TIP3    H240038   6.357   3.016   6.149 -1.4847  0.8153  1.2756
 6183TIP3   OH240039   6.763   0.926   0.927  0.4147  0.3197  0.4095
 6183TIP3    H140040   6.824   0.858   0.954 -0.0255  0.0972  0.8453
 6183TIP3    H240041   6.734   0.967   1.009  0.1962  0.6087  0.1894
 6184TIP3   OH240042   5.029   3.653   6.254  0.4711 -0.3428  0.1824
 6184TIP3    H140043   5.022   3.558   6.247 -2.4405 -0.1673  0.2128
 6184TIP3    H240044   4.971   3.677   6.327  0.1676  1.5573 -0.6464
 6185TIP3   OH240045   4.403   3.108   4.686 -0.1472  0.6408  0.0838
 6185TIP3    H140046   4.397   3.049   4.761  2.7238  0.2834  0.0856
 6185TIP3    H240047   4.424   3.193   4.725  0.5015  0.6309 -0.2309
 6186TIP3   OH240048   4.622   1.718  13.739 -0.3806 -0.3512  0.5168
 6186TIP3    H140049   4.566   1.744  13.812 -2.1233 -0.3333 -0.8132
 6186TIP3    H240050   4.588   1.765  13.664  1.6200 -0.0989 -0.2763
 6187TIP3   OH240051   4.545   2.070  14.321  0.6361  0.2087  0.5492
 6187TIP3    H140052   4.557   2.004  14.389 -3.1120 -1.8039 -0.5461
 6187TIP3    H240053   4.480   2.130  14.357  0.7666  0.7726 -0.1506
 6188TIP3   OH240054   5.055   3.220   2.952 -0.0611 -0.2550 -0.6481
 6188TIP3    H140055   5.112   3.155   2.992 -0.8653 -0.9989 -0.6967
 6188TIP3    H240056   5.114   3.282   2.909  0.8306  0.5686  1.7060
 6189TIP3   OH240057   2.123   5.831   2.046 -0.6140  0.2852  0.3682
 6189TIP3    H140058   2.110   5.889   2.121  0.2248 -1.4368  1.9011
 6189TIP3    H240059   2.214   5.844   2.022 -0.4445 -0.3492  0.6725
 6190TIP3   OH240060   3.196   1.312   5.231 -0.6990  0.3886  0.6969
 6190TIP3    H140061   3.270   1.296   5.289 -0.2441  2.3384  0.6832
 6190TIP3    H240062   3.234   1.353   5.154 -1.8248  1.6622  0.8086
 6191TIP3   OH240063   4.190   4.815   6.012  0.1817  0.1613  0.0681
 6191TIP3    H140064   4.204   4.771   6.095  0.9393 -0.4894 -0.3886
 6191TIP3    H240065   4.174   4.744   5.950 -1.5767  0.7101 -0.1180
 6192TIP3   OH240066   0.576   0.334  11.828  0.5031 -0.5371  0.6447
 6192TIP3    H140067   0.499   0.331  11.771  1.4705  0.4435 -0.7469
 6192TIP3    H240068   0.542   0.357  11.914 -0.6638  0.7882 -0.1652
 6193TIP3   OH240069   3.169   1.103  15.066 -0.8281 -0.2506 -0.3262
 6193TIP3    H140070   3.181   1.179  15.008  0.7978 -0.7706 -0.7085
 6193TIP3    H240071   3.203   1.133  15.151 -1.8599  0.0351 -0.0113
 6194TIP3   OH240072   3.359   6.591   5.894  0.7594 -0.4296 -0.8242
 6194TIP3    H140073   3.320   6.525   5.836 -1.0991  0.6950 -0.8889
 6194TIP3    H240074   3.379   6.543   5.974  1.8179 -1.6303 -1.7638
 6195TIP3   OH240075   3.347   1.503  13.716 -0.2870  0.0893  0.4277
 6195TIP3    H140076   3.333   1.474  13.806  0.7958 -0.1442  0.5328
 6195TIP3    H240077   3.442   1.515  13.709 -0.5325  1.8460 -0.1508
 6196TIP3   OH240078   4.896   4.910  14.480 -0.0534 -0.3071  0.3681
 6196TIP3    H140079   4.876   4.816  14.476  1.1657 -0.5520 -0.2538
 6196TIP3    H240080   4.933   4.930  14.394 -0.5132  0.8000  0.4259
 6197TIP3   OH240081   6.024   0.320  15.903  0.0683 -0.2924 -0.2243
 6197TIP3    H140082   5.995   0.373  15.830  0.8190 -0.4756 -0.6556
 6197TIP3    H240083   6.072   0.247  15.863 -1.0684 -1.3822  0.3392
 6198TIP3   OH240084   5.402   2.558   0.764  0.0509 -0.2386  0.0882
 6198TIP3    H140085   5.347   2.623   0.807 -1.7512 -1.2162 -0.7072
 6198TIP3    H240086   5.474   2.609   0.726  0.4016  0.9015  2.1938
 6199TIP3   OH240087   5.166   5.782  11.787 -0.1502  0.3416  0.2066
 6199TIP3    H140088   5.084   5.733  11.777  0.5741 -0.9219  0.2257
 6199TIP3    H240089   5.142   5.873  11.771 -1.9886  0.2928  2.4805
 6200TIP3   OH240090   0.119   5.395  10.904 -0.1529 -0.0614 -0.4266
 6200TIP3    H140091   0.088   5.483  10.882 -1.0828 -0.4520 -0.7294
 6200TIP3    H240092   0.148   5.402  10.995  0.6284  0.7746 -0.7350
 6201TIP3   OH240093   1.720   5.035   3.018 -0.1101  0.3290 -0.0960
 6201TIP3    H140094   1.705   4.954   3.066  2.1886  0.0843  0.3065
 6201TIP3    H240095   1.701   5.105   3.081 -2.1598  0.1380 -0.4666
 6202TIP3   OH240096   5.913   2.931   4.581 -0.3703  0.0341  0.1853
 6202TIP3    H140097   5.963   2.950   4.502 -1.8782 -0.2015 -0.8603
 6202TIP3    H240098   5.914   3.014   4.630  1.4625 -0.1268  0.4506
 6203TIP3   OH240099   6.818   5.232  12.143 -0.0460 -0.1463  0.1044
 6203TIP3    H140100   6.776   5.154  12.107  1.0782 -0.3925 -0.7058
 6203TIP3    H240101   6.903   5.201  12.174 -0.3602  0.3802  1.5560
 6204TIP3   OH240102   5.712   4.570  15.731  0.2279 -0.6437  0.0434
 6204TIP3    H140103   5.621   4.597  15.722  0.4947  0.3917  0.4191
 6204TIP3    H240104   5.762   4.650  15.715  1.1345 -1.5407 -1.7443
 6205TIP3   OH240105   3.223   6.104   1.985 -0.0212  0.1582  0.3441
 6205TIP3    H140106   3.301   6.147   2.021 -0.1753 -0.2881  1.1944
 6205TIP3    H240107   3.250   6.077   1.897  1.8706 -2.9545  1.7970
 6206TIP3   OH240108   1.040   0.785   3.780 -0.1832 -0.1754  0.1539
 6206TIP3    H140109   1.077   0.849   3.719 -1.2091  0.2331 -0.0494
 6206TIP3    H240110   1.032   0.705   3.728  0.0774 -0.1692  0.1008
 6207TIP3   OH240111   2.758   0.366  12.200  0.0171 -0.0489 -0.3350
 6207TIP3    H140112   2.745   0.392  12.291 -0.9559  0.7583 -0.6899
 6207TIP3    H240113   2.704   0.288  12.189  3.7476 -2.9582  1.0147
 6208TIP3   OH240114   5.851   3.904  12.927  0.0465  0.2413 -0.0174
 6208TIP3    H140115   5.827   3.893  13.020  0.2389 -0.3827 -0.0407
 6208TIP3    H240116   5.772   3.940  12.887  0.3425  1.6135  0.6127
 6209TIP3   OH240117   6.045   1.792   2.004 -0.4509  0.8449 -0.6826
 6209TIP3    H140118   6.028   1.723   1.940  0.5006  0.7459 -0.8214
 6209TIP3    H240119   6.083   1.864   1.954  1.8273  0.1537  0.0179
 6210TIP3   OH240120   1.221   4.627  14.163  0.3529 -0.3986 -0.2246
 6210TIP3    H140121   1.212   4.538  14.130  0.7035  0.3575 -2.5037
 6210TIP3    H240122   1.284   4.668  14.104  0.9017  1.0984  1.3422
 6211TIP3   OH240123   3.652   5.114  14.906  0.6873  0.1555 -0.0122
 6211TIP3    H140124   3.659   5.164  14.987  2.8257 -0.2906  0.1263
 6211TIP3    H240125   3.611   5.031  14.932  1.8872 -0.2192  0.7570
 6212TIP3   OH240126   6.210   6.280  15.294  0.0970  0.4283  0.1740
 6212TIP3    H140127   6.175   6.354  15.244 -0.2223  1.6613  2.1791
 6212TIP3    H240128   6.163   6.283  15.377  1.5827 -0.7683  1.0748
 6213TIP3   OH240129   2.350   3.652  14.858  0.2937 -0.3408  0.3060
 6213TIP3    H140130   2.358   3.702  14.777 -0.4678  0.2332  0.5848
 6213TIP3    H240131   2.423   3.590  14.855  0.4273 -0.1415 -0.6910
 6214TIP3   OH240132   4.357   5.238  15.756 -0.1815  0.1411  0.4774
 6214TIP3    H140133   4.354   5.322  15.803  0.5041  0.7368 -0.5427
 6214TIP3    H240134   4.450   5.212  15.759 -0.4776 -0.8978  1.3174
 6215TIP3   OH240135   1.377   0.973   3.277 -0.8318 -0.3023  0.2578
 6215TIP3    H140136   1.436   0.918   3.226 -0.5213 -0.8750  1.2289
 6215TIP3    H240137   1.395   1.062   3.246  2.1281 -0.2067  2.0888
 6216TIP3   OH240138   2.432   6.576   1.775  0.5230 -0.0047 -0.4037
 6216TIP3    H140139   2.437   6.501   1.834 -1.1542 -0.5648 -0.9573
 6216TIP3    H240140   2.444   6.540   1.688 -1.0194  0.2652 -0.7321
 6217TIP3   OH240141   3.844   5.057  13.712  0.2817 -0.4567  0.1447
 6217TIP3    H140142   3.754   5.052  13.742 -0.6931 -0.6743 -2.6819
 6217TIP3    H240143   3.878   4.968  13.722 -1.1814 -1.3793 -2.7514
 6218TIP3   OH240144   4.535   0.719   4.119  0.8802 -0.2308  0.2420
 6218TIP3    H140145   4.539   0.643   4.060 -2.0526 -2.1367  2.3629
 6218TIP3    H240146   4.609   0.706   4.179  1.3318 -0.5497 -0.3771
 6219TIP3   OH240147   0.632   3.086   4.226  0.5084 -0.2904 -0.4040
 6219TIP3    H140148   0.604   3.134   4.148  0.1197  0.9789  0.4931
 6219TIP3    H240149   0.631   3.151   4.296  3.2295 -0.8466  0.1887
 6220TIP3   OH240150   3.946   3.776   3.260 -0.2015  0.1023 -0.3784
 6220TIP3    H140151   3.963   3.861   3.220 -0.3683 -0.2751 -1.2603
 6220TIP3    H240152   3.852   3.773   3.273 -0.1864  0.0816 -0.2710
 6221TIP3   OH240153   5.512   6.278  10.614 -0.3855 -0.6954 -0.2458
 6221TIP3    H140154   5.461   6.204  10.582  2.9777 -4.1922  1.9628
 6221TIP3    H240155   5.589   6.280  10.557  1.8449 -2.0442  2.5844
 6222TIP3   OH240156   5.993   4.782  15.203 -0.3641 -0.5248  0.2798
 6222TIP3    H140157   5.960   4.769  15.292 -2.2633  0.3325 -0.2654
 6222TIP3    H240158   5.974   4.874  15.184  1.0531 -0.4038 -0.6116
 6223TIP3   OH240159   5.475   2.957   1.005  0.1434  0.5625  0.2920
 6223TIP3    H140160   5.462   2.961   1.099  0.4512  1.8760  0.2922
 6223TIP3    H240161   5.543   3.023   0.987  0.9546 -0.5095 -0.6947
 6224TIP3   OH240162   1.697   2.318   6.775  0.7476 -0.0523 -0.0665
 6224TIP3    H140163   1.688   2.247   6.712  1.3117  0.3692 -0.6376
 6224TIP3    H240164   1.689   2.276   6.861  0.6048 -0.7256 -0.4053
 6225TIP3   OH240165   0.735   6.316   6.081  0.5965  0.3283  0.7690
 6225TIP3    H140166   0.718   6.231   6.040 -2.2277  0.5985  1.2709
 6225TIP3    H240167   0.723   6.380   6.012  2.0266  0.4062  0.5659
 6226TIP3   OH240168   0.224   5.203  14.752 -0.3393 -0.3173 -0.0537
 6226TIP3    H140169   0.130   5.185  14.751 -0.5371  0.6641  0.6917
 6226TIP3    H240170   0.255   5.170  14.668 -1.9647  2.6313 -1.8859
 6227TIP3   OH240171   0.281   0.645   3.797  0.2436 -0.1590 -0.7897
 6227TIP3    H140172   0.338   0.613   3.867 -1.5149 -0.0591  0.7247
 6227TIP3    H240173   0.335   0.641   3.718  1.3155 -3.1618  0.0332
 6228TIP3   OH240174   5.480   5.076  12.291  0.2879  0.2404 -0.5153
 6228TIP3    H140175   5.462   4.984  12.311 -1.9389  1.4458  3.5796
 6228TIP3    H240176   5.560   5.096  12.339 -0.7644  1.1132  0.9253
 6229TIP3   OH240177   0.636   4.129   3.468  0.2721 -0.3926 -1.1444
 6229TIP3    H140178   0.614   4.077   3.545 -0.6394  0.2134 -0.9829
 6229TIP3    H240179   0.718   4.092   3.436  2.1715  1.1239  1.7321
 6230TIP3   OH240180   0.403   1.528   2.155  0.2361 -0.0863 -0.0391
 6230TIP3    H140181   0.482   1.583   2.163 -0.1240  0.5024 -0.4660
 6230TIP3    H240182   0.359   1.537   2.239  0.2319  0.1929 -0.0713
 6231TIP3   OH240183   0.779   1.745  16.311 -0.3242  0.3553 -0.1512
 6231TIP3    H140184   0.790   1.714  16.221  2.7359  0.8909 -0.0042
 6231TIP3    H240185   0.797   1.668  16.365 -2.0389  0.0663  0.0532
 6232TIP3   OH240186   3.393   4.943  10.174 -0.1665  0.1324  0.1767
 6232TIP3    H140187   3.366   5.027  10.139  0.8860  0.6559  0.5977
 6232TIP3    H240188   3.342   4.933  10.255 -0.3784  0.3127  0.0648
 6233TIP3   OH240189   4.757   3.773  14.845 -0.0569  0.0422 -0.2225
 6233TIP3    H140190   4.803   3.727  14.776  1.8480  2.2776 -0.4999
 6233TIP3    H240191   4.820   3.778  14.917 -0.7497  0.8886  0.3397
 6234TIP3   OH240192   4.584   0.631   3.025  0.1970  0.2718  0.2239
 6234TIP3    H140193   4.506   0.582   2.997  0.6791  0.5694 -1.6900
 6234TIP3    H240194   4.556   0.677   3.104 -1.6005  0.4430 -0.4831
 6235TIP3   OH240195   1.953   1.489  15.860 -0.0900  0.3722  0.1257
 6235TIP3    H140196   1.937   1.477  15.766  0.2985  2.2788 -0.1975
 6235TIP3    H240197   1.916   1.410  15.900  0.5305 -0.8799 -1.6989
 6236TIP3   OH240198   1.360   0.116   2.034  0.4711  0.1440 -0.4810
 6236TIP3    H140199   1.318   0.037   2.000 -0.1209  1.1119 -2.0525
 6236TIP3    H240200   1.436   0.129   1.978 -0.0645  1.3147 -0.9544
 6237TIP3   OH240201   6.153   5.670  16.105 -0.5127 -0.0416 -0.3787
 6237TIP3    H140202   6.170   5.677  16.199  1.2082  0.4943 -0.7240
 6237TIP3    H240203   6.199   5.744  16.066  0.7246 -1.5380 -1.8705
 6238TIP3   OH240204   1.597   0.224   1.897  0.0118  0.0589 -0.2397
 6238TIP3    H140205   1.532   0.268   1.843 -0.5303  0.0022  0.3534
 6238TIP3    H240206   1.637   0.159   1.840 -0.9148 -0.3501 -0.4205
 6239TIP3   OH240207   3.277   2.299   0.664 -0.2719 -0.1222  0.3929
 6239TIP3    H140208   3.192   2.341   0.680 -0.3843 -0.3277  0.3413
 6239TIP3    H240209   3.309   2.339   0.584 -0.2490  0.0671  0.4965
 6240TIP3   OH240210   4.097   2.206  11.646 -0.4813 -0.2931  0.3512
 6240TIP3    H140211   4.183   2.217  11.686  0.4302 -2.1890 -1.0023
 6240TIP3    H240212   4.069   2.295  11.623  0.3000  0.5017  2.4371
 6241TIP3   OH240213   5.535   5.968   2.353 -0.7510  0.2891 -0.8381
 6241TIP3    H140214   5.501   5.922   2.430  0.5785 -0.3998 -0.6393
 6241TIP3    H240215   5.630   5.952   2.356 -0.5879  0.9576 -2.1565
 6242TIP3   OH240216   3.555   4.633   4.839 -0.3033 -0.0901 -0.1447
 6242TIP3    H140217   3.471   4.607   4.800 -0.7249  0.3205  0.4824
 6242TIP3    H240218   3.558   4.586   4.922 -0.2365  0.4337  0.1533
 6243TIP3   OH240219   1.327   3.253  15.836 -0.4859 -0.1508 -0.3643
 6243TIP3    H140220   1.245   3.300  15.823 -1.2763 -0.3785  3.4469
 6243TIP3    H240221   1.394   3.321  15.827 -1.1771  0.4230 -1.3896
 6244TIP3   OH240222   5.970   0.757   3.693  0.2402  0.4350 -0.3827
 6244TIP3    H140223   6.049   0.807   3.673  0.9108 -0.6122 -0.3895
 6244TIP3    H240224   5.973   0.683   3.632 -0.6172  0.2600 -0.2143
 6245TIP3   OH240225   0.793   3.284  13.018  0.4113  0.2296 -0.2418
 6245TIP3    H140226   0.793   3.299  13.112  1.2892  2.7169 -0.5892
 6245TIP3    H240227   0.886   3.271  12.996  0.3360  0.6942 -0.8691
 6246TIP3   OH240228   1.091   1.831   2.382 -0.5785 -0.0351 -0.2038
 6246TIP3    H140229   1.168   1.803   2.432 -1.0794 -1.5939 -0.2775
 6246TIP3    H240230   1.102   1.925   2.373 -0.3865  0.2529  2.6604
 6247TIP3   OH240231   6.119   2.172  17.220  0.1809 -0.3745  0.7759
 6247TIP3    H140232   6.184   2.238  17.242  1.1975 -0.5441 -1.5910
 6247TIP3    H240233   6.065   2.212  17.152 -0.8371 -1.0379  1.1757
 6248TIP3   OH240234   2.565   5.354  15.450  0.0897 -0.0554  0.2611
 6248TIP3    H140235   2.541   5.331  15.539 -0.3250 -0.0652  0.1490
 6248TIP3    H240236   2.559   5.272  15.401  1.0511 -0.2022  0.3781
 6249TIP3   OH240237   4.091   4.577   3.290  0.0675  0.5203 -0.1977
 6249TIP3    H140238   4.123   4.555   3.203  2.1081  1.7829  0.2219
 6249TIP3    H240239   4.151   4.532   3.350 -0.6100  0.6322  0.5758
 6250TIP3   OH240240   3.121   4.747   3.093 -0.4689  0.7732  0.0876
 6250TIP3    H140241   3.177   4.735   3.017 -2.2027 -1.5375 -0.9022
 6250TIP3    H240242   3.181   4.760   3.166  1.3780 -1.4826 -0.9581
 6251TIP3   OH240243   0.406   1.432   5.993 -0.2978  0.1899 -0.4075
 6251TIP3    H140244   0.408   1.490   6.068  0.7793 -0.3912  0.0173
 6251TIP3    H240245   0.394   1.344   6.031  1.8905 -0.2955 -0.8001
 6252TIP3   OH240246   0.949   3.552   5.586  0.0812  0.2284  0.0048
 6252TIP3    H140247   0.911   3.581   5.668  0.3702  0.4710  0.0537
 6252TIP3    H240248   0.978   3.632   5.542 -2.0113  0.2853 -1.3102
 6253TIP3   OH240249   5.406   3.594  12.976 -0.1600  0.5239 -0.3522
 6253TIP3    H140250   5.355   3.676  12.970 -0.9673  0.1035  0.6486
 6253TIP3    H240251   5.456   3.603  13.057  1.5268  1.0050 -1.4140
 6254TIP3   OH240252   0.885   0.392   4.091  0.0816  0.3702  0.2315
 6254TIP3    H140253   0.808   0.343   4.121  0.6059 -2.0252 -2.1238
 6254TIP3    H240254   0.951   0.377   4.160  0.1334 -2.0668 -0.2790
 6255TIP3   OH240255   4.015   6.474  11.151 -0.5342  0.4584  0.1563
 6255TIP3    H140256   4.063   6.532  11.092 -1.2106 -0.1510 -1.0239
 6255TIP3    H240257   3.936   6.524  11.174 -1.0383  0.0745 -0.7303
 6256TIP3   OH240258   3.716   1.060  14.120  0.7748 -0.6485  0.3321
 6256TIP3    H140259   3.761   1.140  14.146 -1.0386  0.2760  0.7164
 6256TIP3    H240260   3.625   1.087  14.108  0.3615 -2.4223 -0.6397
 6257TIP3   OH240261   5.340   3.615  12.273  0.1399 -0.0194 -0.2237
 6257TIP3    H140262   5.260   3.627  12.323 -0.0256  2.7020 -1.1061
 6257TIP3    H240263   5.406   3.591  12.339 -1.1139 -1.1771  0.6401
 6258TIP3   OH240264   2.100   2.518   3.094 -0.2543 -0.4586  0.5664
 6258TIP3    H140265   2.095   2.540   3.001  1.1808 -1.0699  0.3185
 6258TIP3    H240266   2.022   2.464   3.110  0.2374 -1.5678 -0.6439
 6259TIP3   OH240267   2.353   0.367   1.614  0.1607  0.2141  0.0684
 6259TIP3    H140268   2.263   0.380   1.586 -0.2340  0.5598  1.4607
 6259TIP3    H240269   2.402   0.437   1.570 -0.5989  1.3228  0.9742
 6260TIP3   OH240270   3.709   2.749   3.597 -0.8203 -0.3527 -0.1133
 6260TIP3    H140271   3.683   2.743   3.505 -2.2069 -1.0388  0.3149
 6260TIP3    H240272   3.719   2.843   3.613 -0.1332 -0.2512 -1.0656
 6261TIP3   OH240273   3.320   0.900  11.848  0.1325 -0.4488  0.9219
 6261TIP3    H140274   3.411   0.903  11.877  0.6971 -2.2345 -0.5382
 6261TIP3    H240275   3.324   0.916  11.754 -0.7675 -3.1073  0.3843
 6262TIP3   OH240276   2.613   5.764   4.794 -0.4211  0.5369  0.2397
 6262TIP3    H140277   2.604   5.744   4.888 -0.4447 -0.6324 -0.0017
 6262TIP3    H240278   2.529   5.738   4.756  0.6681 -1.8691 -0.5875
 6263TIP3   OH240279   3.555   0.117  12.843 -0.2271  0.2620 -0.0836
 6263TIP3    H140280   3.618   0.120  12.915  0.0667  0.3039 -0.3403
 6263TIP3    H240281   3.508   0.200  12.848 -2.3986 -1.0313  2.0050
 6264TIP3   OH240282   3.348   0.413  17.107  0.4384 -0.4031  0.0384
 6264TIP3    H140283   3.413   0.483  17.095  0.5307 -0.5374 -0.2570
 6264TIP3    H240284   3.368   0.376  17.193 -1.0141  1.3950  1.1866
 6265TIP3   OH240285   0.834   4.543  14.674  0.3193  0.1240  0.2432
 6265TIP3    H140286   0.800   4.545  14.585  0.2168  0.0909  0.2815
 6265TIP3    H240287   0.776   4.601  14.723  0.0379 -0.2962  0.4070
 6266TIP3   OH240288   4.597   5.002   5.252 -0.7055  0.4782 -0.4440
 6266TIP3    H140289   4.676   4.971   5.299 -0.8894 -1.4709 -1.3628
 6266TIP3    H240290   4.551   5.055   5.317  0.5090  0.2382  0.6609
 6267TIP3   OH240291   4.675   0.892   0.037  0.2496 -0.1218  0.0392
 6267TIP3    H140292   4.770   0.897   0.038  0.2936 -0.4167 -1.2480
 6267TIP3    H240293   4.656   0.816  -0.019 -0.7102 -1.0092  1.5567
 6268TIP3   OH240294   3.694   4.640   5.975 -0.7278  0.2056 -0.0414
 6268TIP3    H140295   3.661   4.706   6.035  1.1934 -0.1073  1.4167
 6268TIP3    H240296   3.658   4.664   5.890 -2.2294  1.5501  0.9549
 6269TIP3   OH240297   6.295   5.338   3.168 -0.2463  0.0323 -0.3181
 6269TIP3    H140298   6.292   5.432   3.146 -1.1591  0.3154  0.9762
 6269TIP3    H240299   6.211   5.320   3.209  1.2774 -0.5247  2.6994
 6270TIP3   OH240300   1.724   3.117  11.554 -0.0933 -0.2424 -0.1238
 6270TIP3    H140301   1.772   3.090  11.632 -0.0896 -0.2267 -0.1206
 6270TIP3    H240302   1.767   3.199  11.527 -0.9143  0.4324  0.5908
 6271TIP3   OH240303   1.847   3.875   2.895  0.4356 -0.1357  0.5053
 6271TIP3    H140304   1.899   3.955   2.885 -0.0446  0.1071 -0.0892
 6271TIP3    H240305   1.911   3.804   2.890  1.0965  0.2510  2.6656
 6272TIP3   OH240306   1.730   4.855  13.686  0.2288 -0.3196  0.4299
 6272TIP3    H140307   1.641   4.868  13.719 -0.4587 -3.2364 -0.1191
 6272TIP3    H240308   1.737   4.915  13.611 -1.1199  0.2553  0.7515
 6273TIP3   OH240309   0.964   2.880   0.304  0.3660 -0.8579 -0.2054
 6273TIP3    H140310   0.971   2.909   0.213  2.4400  0.7322  0.4160
 6273TIP3    H240311   0.972   2.960   0.356  1.0928 -1.9554  1.4280
 6274TIP3   OH240312   2.560   3.898  14.914  0.5977 -0.1593  0.6251
 6274TIP3    H140313   2.493   3.955  14.950 -1.6735 -1.4792 -1.3155
 6274TIP3    H240314   2.589   3.942  14.834  0.2449 -0.7788  0.1517
 6275TIP3   OH240315   1.931   2.387  14.543  0.0909  0.3994 -0.1971
 6275TIP3    H140316   1.866   2.344  14.598  2.5118 -0.7121  1.8657
 6275TIP3    H240317   1.948   2.470  14.587  0.0062  0.7251 -0.7775
 6276TIP3   OH240318   4.311   5.389   0.715  0.1202  0.0989  0.8910
 6276TIP3    H140319   4.298   5.394   0.809 -2.2580  1.1157  0.5466
 6276TIP3    H240320   4.250   5.321   0.685 -0.5595  1.1219 -0.1236
 6277TIP3   OH240321   3.276   4.719   4.415  0.1021  0.7482 -0.4913
 6277TIP3    H140322   3.258   4.807   4.448 -0.4385  0.2606  0.5327
 6277TIP3    H240323   3.233   4.716   4.330  1.5570  2.0375 -1.3137
 6278TIP3   OH240324   5.481   3.085  11.518 -0.1007  0.3712  0.3109
 6278TIP3    H140325   5.443   3.172  11.517 -4.8252 -1.5646  0.4682
 6278TIP3    H240326   5.439   3.040  11.591  0.2197 -2.8300 -1.3337
 6279TIP3   OH240327   3.243   3.705   1.163  0.1067 -0.3839  0.1819
 6279TIP3    H140328   3.325   3.677   1.122 -1.3291 -2.3906 -1.4328
 6279TIP3    H240329   3.259   3.695   1.257  1.9098 -0.1671 -0.0820
 6280TIP3   OH240330   2.256   4.296  10.995 -0.2150  0.3404  0.2335
 6280TIP3    H140331   2.242   4.217  10.942  1.8165 -0.6137  1.0592
 6280TIP3    H240332   2.322   4.346  10.947  1.5187 -0.4535  1.7020
 6281TIP3   OH240333   6.243   6.162   2.786  0.1107  0.4055 -0.3367
 6281TIP3    H140334   6.159   6.179   2.829  1.0478 -1.2942  2.2652
 6281TIP3    H240335   6.239   6.069   2.763  1.5005  0.1779  0.3189
 6282TIP3   OH240336   4.485   1.213   5.292 -0.2109  0.2725  0.2387
 6282TIP3    H140337   4.487   1.232   5.386 -0.5733 -3.1533  0.9983
 6282TIP3    H240338   4.406   1.257   5.261 -1.6497 -0.8801  2.1136
 6283TIP3   OH240339   0.730   6.497  16.254 -0.2924 -0.0587  0.4610
 6283TIP3    H140340   0.802   6.481  16.193 -1.7045 -2.1225 -0.6738
 6283TIP3    H240341   0.707   6.589  16.240 -0.8067 -0.5769 -2.3440
 6284TIP3   OH240342   4.657   2.550   0.965  0.1325  0.2055  0.2701
 6284TIP3    H140343   4.674   2.538   1.059 -1.0277 -1.1644  0.3213
 6284TIP3    H240344   4.573   2.507   0.950  1.0391 -0.9335 -1.7126
 6285TIP3   OH240345   2.275   5.105   5.823 -0.4452  0.3558 -0.5765
 6285TIP3    H140346   2.219   5.088   5.899  0.3844 -0.3425 -0.1136
 6285TIP3    H240347   2.341   5.036   5.826  0.2151  0.9450 -1.3381
 6286TIP3   OH240348   1.096   5.786  16.012 -0.2811  0.0871 -0.4318
 6286TIP3    H140349   1.159   5.735  15.962  1.4921  0.1270  1.6786
 6286TIP3    H240350   1.043   5.721  16.057 -0.4572  0.0784 -0.6506
 6287TIP3   OH240351   3.214   5.958   4.579  0.0361  0.2641  0.2241
 6287TIP3    H140352   3.165   5.892   4.627  0.3708 -0.7696 -0.8530
 6287TIP3    H240353   3.153   5.992   4.514  0.3555 -0.1260 -0.2827
 6288TIP3   OH240354   4.845   6.452   2.048  0.0113  0.1803  0.2971
 6288TIP3    H140355   4.931   6.433   2.009  0.8886 -0.6022  2.5218
 6288TIP3    H240356   4.794   6.372   2.033 -0.0297  0.3082 -0.2444
 6289TIP3   OH240357   3.001   2.859   5.600 -0.1093  0.4398 -0.3613
 6289TIP3    H140358   2.922   2.865   5.547 -0.6298  1.1275  0.4843
 6289TIP3    H240359   3.072   2.854   5.536 -0.9773 -3.0706 -1.1909
 6290TIP3   OH240360   3.404   4.338  11.787 -0.0702  0.6078  0.4069
 6290TIP3    H140361   3.357   4.297  11.860 -1.1546 -1.0309 -1.1525
 6290TIP3    H240362   3.338   4.391  11.743  0.3529  0.9038  0.1261
 6291TIP3   OH240363   4.187   5.932   1.675 -0.5389  0.1598  0.0872
 6291TIP3    H140364   4.228   5.845   1.681  0.0999  0.4555  0.0468
 6291TIP3    H240365   4.199   5.970   1.762  1.6169  1.2800 -0.6603
 6292TIP3   OH240366   1.675   0.183   3.144 -0.1822 -0.0837  0.2105
 6292TIP3    H140367   1.619   0.210   3.071 -1.1635 -1.9313  0.2460
 6292TIP3    H240368   1.627   0.112   3.186  2.2292 -1.8306  0.1504
 6293TIP3   OH240369   6.172   2.931  11.657  0.1273  0.3015  0.4700
 6293TIP3    H140370   6.169   2.945  11.751 -1.0510  0.2442  0.4457
 6293TIP3    H240371   6.262   2.952  11.632  0.0364  1.8171  1.3829
 6294TIP3   OH240372   3.997   0.796  12.715 -0.1619 -0.1732  0.3417
 6294TIP3    H140373   4.058   0.723  12.700 -0.1457 -0.2328  0.6791
 6294TIP3    H240374   4.054   0.872  12.729 -0.1956  0.2021 -1.4423
 6295TIP3   OH240375   5.338   5.384   1.555  0.0134 -0.3867 -0.0721
 6295TIP3    H140376   5.401   5.439   1.600 -0.5180  1.4242 -1.4728
 6295TIP3    H240377   5.389   5.338   1.488 -0.0143  0.5556 -0.7520
 6296TIP3   OH240378   6.675   5.690   6.219 -0.5141 -0.6603  0.1865
 6296TIP3    H140379   6.731   5.767   6.217  0.4759 -1.3756 -0.0840
 6296TIP3    H240380   6.670   5.666   6.312 -2.8550  1.1712  0.5725
 6297TIP3   OH240381   6.697   3.922  12.672 -0.3832  0.2714 -0.0813
 6297TIP3    H140382   6.781   3.938  12.629 -1.4032 -0.0103 -2.2120
 6297TIP3    H240383   6.715   3.854  12.736  1.3431  1.3012  0.5540
 6298TIP3   OH240384   5.872   2.087  14.236 -0.1867 -0.0864 -0.5159
 6298TIP3    H140385   5.931   2.043  14.297  1.1695 -0.9427 -2.4029
 6298TIP3    H240386   5.789   2.040  14.244 -0.1709  0.1314  1.0185
 6299TIP3   OH240387   6.619   4.563  15.255  0.6196  0.0674 -0.7245
 6299TIP3    H140388   6.669   4.494  15.211  1.3705  1.2532 -1.7840
 6299TIP3    H240389   6.529   4.551  15.224  0.7686 -0.3659 -0.9995
 6300TIP3   OH240390   0.798   0.522   1.994  0.2734  0.1902 -0.2863
 6300TIP3    H140391   0.835   0.603   2.030  0.5813 -0.0313 -0.0976
 6300TIP3    H240392   0.803   0.533   1.899 -1.2880  1.1223 -0.2681
 6301TIP3   OH240393   5.235   1.788  15.620 -0.0089  0.0018  0.2571
 6301TIP3    H140394   5.149   1.828  15.611 -0.2201 -0.0624  1.8363
 6301TIP3    H240395   5.264   1.813  15.708  1.7163  0.2705 -0.3606
 6302TIP3   OH240396   3.713   0.320   3.545  0.5832  0.2220 -0.1054
 6302TIP3    H140397   3.714   0.225   3.545  0.4695  0.2225 -0.7326
 6302TIP3    H240398   3.651   0.344   3.476  0.7511  0.7515 -0.0753
 6303TIP3   OH240399   2.935   1.027  12.098 -0.1667  0.3367  0.0064
 6303TIP3    H140400   2.924   1.103  12.155  0.0444 -0.6847  1.4251
 6303TIP3    H240401   2.867   0.965  12.125  0.0756 -0.2514 -0.6924
 6304TIP3   OH240402   4.338   5.021  13.452  0.4587  0.1513  0.2438
 6304TIP3    H140403   4.244   5.013  13.435  0.4390  0.4935  0.1765
 6304TIP3    H240404   4.377   4.948  13.405  0.1748 -0.3113  0.7221
 6305TIP3   OH240405   4.943   1.454  15.858 -0.5517 -0.0036 -0.4600
 6305TIP3    H140406   4.963   1.484  15.947 -1.6528  0.0600 -0.2231
 6305TIP3    H240407   4.915   1.533  15.812  0.5822  0.0729 -1.0430
 6306TIP3   OH240408   1.273   5.784   1.299 -0.0305 -0.6581 -0.2338
 6306TIP3    H140409   1.257   5.696   1.266 -2.9602  0.5300 -2.2042
 6306TIP3    H240410   1.332   5.824   1.236 -1.8591  0.0353 -1.5721
 6307TIP3   OH240411   5.665   4.057  17.173 -0.5822  0.4257 -0.0884
 6307TIP3    H140412   5.584   4.050  17.222 -0.3097  2.4695  0.7220
 6307TIP3    H240413   5.645   4.119  17.102 -0.3296 -0.7189 -1.1703
 6308TIP3   OH240414   6.540   3.624  11.165 -0.2159 -0.1645 -0.2668
 6308TIP3    H140415   6.513   3.698  11.110  2.0505  2.4429  1.9768
 6308TIP3    H240416   6.600   3.574  11.110 -0.1191  0.8632 -1.1190
 6309TIP3   OH240417   3.826   1.324   4.421  0.4727  0.1680 -0.1362
 6309TIP3    H140418   3.865   1.240   4.446  0.1195  0.5349  1.7096
 6309TIP3    H240419   3.791   1.359   4.502 -0.2411  1.6682 -1.0751
 6310TIP3   OH240420   1.725   1.310  13.746  0.0786  0.1137 -0.0358
 6310TIP3    H140421   1.792   1.252  13.712 -0.2029 -0.4472  0.3561
 6310TIP3    H240422   1.773   1.385  13.780  0.6546 -1.0798  1.8556
 6311TIP3   OH240423   3.675   3.800   1.622  0.2573 -0.3113 -0.2375
 6311TIP3    H140424   3.612   3.733   1.594  0.0033  0.2119 -0.9406
 6311TIP3    H240425   3.714   3.831   1.540 -1.2302  1.9755 -0.1086
 6312TIP3   OH240426   0.669   5.007  12.631  0.1802 -0.4173 -0.1372
 6312TIP3    H140427   0.594   4.970  12.584  0.5079 -1.6620  0.3018
 6312TIP3    H240428   0.676   4.954  12.710  1.2721 -0.0420  0.0186
 6313TIP3   OH240429   3.976   1.335   2.577 -0.5719 -0.2379  0.1065
 6313TIP3    H140430   4.062   1.346   2.535 -0.9712 -1.4356 -1.0540
 6313TIP3    H240431   3.927   1.414   2.553 -0.3305 -0.2862 -0.5568
 6314TIP3   OH240432   6.209   4.013  12.262  0.2236  0.2069  0.2612
 6314TIP3    H140433   6.269   3.981  12.329 -1.9002 -0.0897  2.0634
 6314TIP3    H240434   6.206   4.108  12.277 -0.1035  0.1665  0.4328
 6315TIP3   OH240435   1.365   4.764  16.559  0.4327 -0.6544  0.2982
 6315TIP3    H140436   1.306   4.840  16.562  1.8112  0.3709  2.5333
 6315TIP3    H240437   1.437   4.793  16.503  0.2180 -0.8656 -0.0874
 6316TIP3   OH240438   2.424   4.394  12.888 -0.1773  0.7342  0.0747
 6316TIP3    H140439   2.346   4.340  12.877 -0.4219  0.9647  0.6540
 6316TIP3    H240440   2.496   4.339  12.855 -0.2389 -0.4673  1.8352
 6317TIP3   OH240441   2.545   6.503   5.879  0.7239  0.1405 -0.0874
 6317TIP3    H140442   2.480   6.529   5.944  0.8299  0.1275  0.0217
 6317TIP3    H240443   2.538   6.571   5.811 -0.6920 -0.8407 -0.9654
 6318TIP3   OH240444   2.544   6.082   6.729 -0.0854 -0.1837 -0.1806
 6318TIP3    H140445   2.467   6.136   6.743 -0.5852 -0.3557 -2.1174
 6318TIP3    H240446   2.587   6.120   6.652  0.9491 -0.9824 -0.0213
 6319TIP3   OH240447   1.892   6.144  13.221  0.2019 -0.3853 -0.0814
 6319TIP3    H140448   1.859   6.156  13.132  0.0072  0.1927  0.0692
 6319TIP3    H240449   1.979   6.105  13.209  0.2316 -0.1870 -0.5271
 6320TIP3   OH240450   3.017   0.935   2.588  0.4233 -0.4145 -0.1620
 6320TIP3    H140451   3.032   0.841   2.594  0.1425 -0.2977  2.6732
 6320TIP3    H240452   3.103   0.972   2.567  0.6645 -1.2116 -0.5895
 6321TIP3   OH240453   1.072   6.143  11.827  0.4725  0.8160 -0.4376
 6321TIP3    H140454   1.138   6.094  11.876 -0.9022 -0.1225  0.4997
 6321TIP3    H240455   0.988   6.115  11.865 -0.6878 -0.4348 -3.7579
 6322TIP3   OH240456   3.123   4.391  12.531 -0.4308  0.0396  0.3921
 6322TIP3    H140457   3.197   4.382  12.472 -1.0882  0.6838 -0.5545
 6322TIP3    H240458   3.157   4.439  12.606  0.4928 -1.0768  0.6941
 6323TIP3   OH240459   0.492   2.153   4.572  0.1489 -0.0213 -0.0818
 6323TIP3    H140460   0.398   2.139   4.566  0.3456 -1.6845  0.5505
 6323TIP3    H240461   0.513   2.209   4.497 -0.9380 -1.6718 -1.6392
 6324TIP3   OH240462   3.951   0.834  14.754 -0.7366  0.2689  0.0265
 6324TIP3    H140463   3.876   0.893  14.757  0.1743  1.5431 -1.3680
 6324TIP3    H240464   4.025   0.890  14.729  0.0850 -1.5031 -1.6920
 6325TIP3   OH240465   0.614   0.170   0.175 -0.1287  0.6182  0.4746
 6325TIP3    H140466   0.558   0.138   0.246 -1.7032  0.9390 -0.6112
 6325TIP3    H240467   0.670   0.235   0.217 -1.3026  1.0872  1.3518
 6326TIP3   OH240468   1.019   4.876  11.599 -0.1699 -0.1584  0.1555
 6326TIP3    H140469   1.100   4.849  11.643  0.0994  0.3137 -0.0416
 6326TIP3    H240470   1.009   4.814  11.527  1.4082  1.3001 -1.3883
 6327TIP3   OH240471   0.438   4.531  14.038  0.2177  0.0076 -0.3059
 6327TIP3    H140472   0.442   4.444  14.077  0.0834  0.0063 -0.2936
 6327TIP3    H240473   0.508   4.532  13.973  0.8327  0.2225  0.3567
 6328TIP3   OH240474   2.359   0.267   2.937  0.2622  0.0467  0.4423
 6328TIP3    H140475   2.284   0.230   2.890 -1.3337  1.1713  2.0920
 6328TIP3    H240476   2.433   0.215   2.906 -0.9971 -0.3698 -2.0369
 6329TIP3   OH240477   2.560   4.689  11.502  0.2047 -0.2085  0.3136
 6329TIP3    H140478   2.515   4.611  11.534  2.0939 -0.4176  2.6177
 6329TIP3    H240479   2.646   4.657  11.475 -1.0517  0.0886 -4.4712
 6330TIP3   OH240480   6.754   4.241  16.381  0.1372  0.2596  0.0776
 6330TIP3    H140481   6.760   4.336  16.386  1.3778  0.2389 -0.8749
 6330TIP3    H240482   6.663   4.224  16.355  0.1359  1.2203 -0.5572
 6331TIP3   OH240483   1.429   5.862   0.884 -0.2055 -0.3069 -0.1234
 6331TIP3    H140484   1.422   5.951   0.917  0.9916 -0.0802 -0.4405
 6331TIP3    H240485   1.434   5.807   0.963 -1.7000 -0.1834  0.0798
 6332TIP3   OH240486   5.258   5.401   0.305 -1.0532 -0.1751  0.0671
 6332TIP3    H140487   5.304   5.383   0.387 -0.3350  0.2323 -0.2445
 6332TIP3    H240488   5.261   5.497   0.296 -1.7485 -0.1603 -0.0801
 6333TIP3   OH240489   3.792   4.307  14.742 -0.4777  0.9996 -0.0873
 6333TIP3    H140490   3.760   4.281  14.828 -0.7318  1.2378 -0.1062
 6333TIP3    H240491   3.853   4.238  14.717 -0.0122  1.1901  0.5080
 6334TIP3   OH240492   6.010   3.170  11.160 -0.0651  0.8539 -0.2987
 6334TIP3    H140493   6.003   3.108  11.233  2.5235  0.1552 -0.6186
 6334TIP3    H240494   5.928   3.220  11.163 -1.2465 -1.1274  1.2890
 6335TIP3   OH240495   1.529   2.406   1.334 -0.2003 -0.0632 -0.0449
 6335TIP3    H140496   1.508   2.406   1.427 -1.4957  1.2869 -0.3070
 6335TIP3    H240497   1.624   2.392   1.330  0.0296  0.9799  1.5199
 6336TIP3   OH240498   6.052   2.617  13.967  0.1901 -0.0571  0.0510
 6336TIP3    H140499   6.121   2.596  14.030  1.4937  0.9920 -1.0022
 6336TIP3    H240500   6.007   2.534  13.951 -0.0361 -0.3700  2.2167
 6337TIP3   OH240501   0.980   2.618  11.995 -0.2023  0.0428 -0.5268
 6337TIP3    H140502   1.012   2.544  11.944 -0.5548 -2.2452  2.4583
 6337TIP3    H240503   1.051   2.682  11.993  1.0915 -1.4068 -1.1003
 6338TIP3   OH240504   2.789   5.084  13.530 -0.2978 -0.1247  0.2661
 6338TIP3    H140505   2.821   5.143  13.462 -0.7257  0.4578  0.5707
 6338TIP3    H240506   2.796   5.134  13.611 -0.9014 -0.3992  0.4897
 6339TIP3   OH240507   2.297   4.820  13.079 -0.2153  0.1994  0.0438
 6339TIP3    H140508   2.353   4.753  13.117  0.6020  0.0755 -1.3426
 6339TIP3    H240509   2.269   4.784  12.995 -0.5547  1.1941 -0.2810
 6340TIP3   OH240510   3.710   4.196  10.939 -0.3066 -0.5454  0.4772
 6340TIP3    H140511   3.643   4.195  10.870 -0.1151  0.9372  0.2606
 6340TIP3    H240512   3.758   4.278  10.925  1.2201 -1.3402  0.9543
 6341TIP3   OH240513   6.152   4.226   0.279  0.6810 -0.2274  0.1943
 6341TIP3    H140514   6.094   4.192   0.210  0.8465 -0.7600  0.3232
 6341TIP3    H240515   6.236   4.183   0.264  0.3972 -1.2455  1.4438
 6342TIP3   OH240516   1.612   0.269   1.581 -0.3968 -0.8676  0.0264
 6342TIP3    H140517   1.666   0.232   1.511 -0.2059  0.4124 -0.5226
 6342TIP3    H240518   1.615   0.364   1.566 -1.1992 -0.6504  1.1571
 6343TIP3   OH240519   3.709   6.019   0.819 -0.0164 -0.1551  0.2553
 6343TIP3    H140520   3.677   6.107   0.835 -0.4096 -0.5341  1.6668
 6343TIP3    H240521   3.714   5.979   0.906  1.1947 -1.1666 -0.2571
 6344TIP3   OH240522   0.700   6.035   5.314 -0.1849  0.1206  0.3936
 6344TIP3    H140523   0.705   5.957   5.259 -0.5212  2.7745 -3.5368
 6344TIP3    H240524   0.610   6.066   5.303  0.3945  1.9293  0.6816
 6345TIP3   OH240525   2.154   4.928  16.539 -0.1878 -0.1842 -0.2255
 6345TIP3    H140526   2.207   5.007  16.532 -0.2320 -0.1782 -0.5181
 6345TIP3    H240527   2.217   4.860  16.564 -0.5506  0.3884  2.3491
 6346TIP3   OH240528   0.457   3.653  14.513 -0.0633  0.4826  0.5847
 6346TIP3    H140529   0.388   3.607  14.465 -0.3796  1.0611  0.4776
 6346TIP3    H240530   0.467   3.604  14.595 -0.5339  0.3423  0.5550
 6347TIP3   OH240531   4.402   3.163  11.842  0.1710  0.3148  0.5947
 6347TIP3    H140532   4.489   3.131  11.865  0.1609 -1.4978 -1.6512
 6347TIP3    H240533   4.342   3.102  11.886  0.1033 -0.2716 -0.2864
 6348TIP3   OH240534   6.309   0.414   5.158  0.5495 -0.8647  0.0831
 6348TIP3    H140535   6.260   0.348   5.110  0.3704 -0.1790 -0.6961
 6348TIP3    H240536   6.278   0.498   5.122 -0.2673 -0.3012  2.0363
 6349TIP3   OH240537   6.700   4.532   3.815  0.1996  0.2445 -0.5278
 6349TIP3    H140538   6.693   4.444   3.779 -0.7122 -0.6605  1.7437
 6349TIP3    H240539   6.612   4.552   3.848  0.0813  2.5005 -2.0831
 6350TIP3   OH240540   3.481   6.602  13.965  0.4242 -0.1103 -0.2469
 6350TIP3    H140541   3.470   6.600  13.869  0.8380  1.1219 -0.3382
 6350TIP3    H240542   3.470   6.695  13.987  0.7843 -0.3306  0.8482
 6351TIP3   OH240543   0.582   1.063  14.840 -0.4457 -0.2024  0.6695
 6351TIP3    H140544   0.599   1.029  14.752 -1.2329 -1.1328  0.8575
 6351TIP3    H240545   0.568   0.984  14.893 -2.5425  0.3987  1.0784
 6352TIP3   OH240546   0.095   1.006  17.101  0.4719  0.3772  0.1262
 6352TIP3    H140547   0.105   1.004  17.005  2.4016 -0.8986  0.3198
 6352TIP3    H240548   0.096   1.099  17.122  0.2198  0.6716 -1.0865
 6353TIP3   OH240549   3.599   1.917   0.814 -0.4435  0.3543 -0.3220
 6353TIP3    H140550   3.611   1.942   0.906 -1.7219  0.5795 -0.2124
 6353TIP3    H240551   3.563   1.995   0.773 -1.6331 -0.3504 -0.6224
 6354TIP3   OH240552   0.386   1.268   2.058  0.4181 -0.3434 -0.1514
 6354TIP3    H140553   0.387   1.361   2.081 -0.8243 -0.3380 -0.0623
 6354TIP3    H240554   0.466   1.233   2.097  2.1803  1.1551 -2.3004
 6355TIP3   OH240555   6.666   0.160   2.192 -0.3523  0.1111  0.0406
 6355TIP3    H140556   6.653   0.087   2.132  1.4846 -1.0581  1.0163
 6355TIP3    H240557   6.745   0.137   2.241 -1.1938  1.5624  2.1415
 6356TIP3   OH240558   2.647   2.251   5.430  0.1876 -0.3011 -0.0416
 6356TIP3    H140559   2.695   2.171   5.453 -1.8584 -1.3917  0.5579
 6356TIP3    H240560   2.606   2.279   5.511  1.3878  1.7563 -0.1057
 6357TIP3   OH240561   5.426   2.395  10.284 -1.3039 -0.4814  0.2872
 6357TIP3    H140562   5.367   2.470  10.294 -0.6105  0.1143 -0.0567
 6357TIP3    H240563   5.372   2.328  10.241 -2.0193 -0.2957  0.8871
 6358TIP3   OH240564   2.929   1.219  12.289  0.2601  0.2866  0.1352
 6358TIP3    H140565   2.926   1.305  12.246  0.2925  0.9644  1.4785
 6358TIP3    H240566   3.005   1.224  12.347  0.3010 -0.6788  0.1665
 6359TIP3   OH240567   0.565   5.227  12.245 -0.1098  0.4434  0.5769
 6359TIP3    H140568   0.660   5.227  12.255  0.0155  0.9301 -0.4916
 6359TIP3    H240569   0.537   5.139  12.270  0.6223  0.3055  0.8930
 6360TIP3   OH240570   0.909   5.398  13.900  0.4405 -0.0479 -0.5050
 6360TIP3    H140571   0.975   5.386  13.968  0.1591 -1.4583 -0.4669
 6360TIP3    H240572   0.826   5.404  13.947  0.3479 -0.1025 -0.6615
 6361TIP3   OH240573   4.501   0.513  10.681 -0.4259  0.0942 -0.3082
 6361TIP3    H140574   4.594   0.522  10.703  0.1147 -0.2264 -2.3380
 6361TIP3    H240575   4.464   0.600  10.698  0.5012  0.5567 -0.6302
 6362TIP3   OH240576   2.273   0.710  12.564 -0.3913 -0.2623 -0.4136
 6362TIP3    H140577   2.272   0.796  12.606  0.7387 -0.3439 -0.2104
 6362TIP3    H240578   2.219   0.722  12.486 -1.1968  0.3131  0.2272
 6363TIP3   OH240579   5.498   0.053  16.025  1.1341  0.1032  0.4237
 6363TIP3    H140580   5.412   0.077  16.058  1.1908  0.6186  0.1956
 6363TIP3    H240581   5.492  -0.042  16.011  0.2037  0.3265 -0.7725
 6364TIP3   OH240582   4.103   3.214  13.038 -0.1186  0.3562  0.0253
 6364TIP3    H140583   4.059   3.262  13.108  0.6087  1.1553 -0.0590
 6364TIP3    H240584   4.090   3.122  13.060 -0.4101  0.6013  0.8893
 6365TIP3   OH240585   6.028   2.518   3.355  0.2533  0.1784  0.3204
 6365TIP3    H140586   5.987   2.553   3.434  1.6983 -0.1069  1.2182
 6365TIP3    H240587   5.998   2.428   3.351  0.4661  0.0848  0.7574
 6366TIP3   OH240588   0.167   0.285  17.144 -0.1813 -0.6249  0.0748
 6366TIP3    H140589   0.090   0.263  17.197 -1.8697  1.2625 -1.5146
 6366TIP3    H240590   0.215   0.349  17.196 -1.8670  1.2667 -0.6540
 6367TIP3   OH240591   0.016   3.781   1.985 -0.1578 -0.1667  0.0050
 6367TIP3    H140592   0.032   3.756   2.076  2.7236  1.0138 -0.1276
 6367TIP3    H240593  -0.041   3.858   1.991 -1.2089 -0.9864  0.7240
 6368TIP3   OH240594   0.659   3.421  15.148  0.1035  0.9028 -0.2643
 6368TIP3    H140595   0.666   3.472  15.229  0.4890 -0.7696  0.7810
 6368TIP3    H240596   0.661   3.487  15.078 -0.1209  2.3630  1.0709
 6369TIP3   OH240597   4.091   3.320  10.557 -0.1717 -0.3435 -0.2618
 6369TIP3    H140598   4.117   3.412  10.551  2.4249 -0.8767  1.7232
 6369TIP3    H240599   4.021   3.319  10.621 -0.2108  0.2511 -0.2891
 6370TIP3   OH240600   6.025   4.357   4.332 -0.2518  0.2534 -0.2080
 6370TIP3    H140601   6.079   4.281   4.311  0.4978  0.7760 -0.2121
 6370TIP3    H240602   6.085   4.417   4.377 -0.9922  0.5723  0.3573
 6371TIP3   OH240603   0.960   5.705  16.987  0.0177 -0.7757  0.2505
 6371TIP3    H140604   0.951   5.611  16.997 -1.4930 -1.0781 -3.0881
 6371TIP3    H240605   0.893   5.729  16.923 -0.1175  2.6935  1.5587
 6372TIP3   OH240606   4.300   5.734   5.587 -0.4883  0.4120  0.6138
 6372TIP3    H140607   4.370   5.772   5.640 -1.9662  2.0853  1.4333
 6372TIP3    H240608   4.285   5.647   5.625  1.9911 -0.4879 -0.3963
 6373TIP3   OH240609   5.598   2.725   5.224  0.2279  0.0978  0.3759
 6373TIP3    H140610   5.613   2.713   5.130  3.0163 -3.4904  1.1746
 6373TIP3    H240611   5.663   2.791   5.250 -0.9767  1.5727 -0.2831
 6374TIP3   OH240612   2.748   4.282  16.264 -0.2041 -0.0317 -0.0531
 6374TIP3    H140613   2.674   4.222  16.273 -0.1303 -0.1912 -0.4991
 6374TIP3    H240614   2.817   4.243  16.317 -0.8766  0.8451  1.5262
 6375TIP3   OH240615   2.340   5.442  16.982 -0.0610 -0.1103 -0.4134
 6375TIP3    H140616   2.286   5.363  16.969 -0.1409 -0.2224  0.5792
 6375TIP3    H240617   2.348   5.450  17.077 -1.3160  1.9515 -0.4753
 6376TIP3   OH240618   3.720   3.224   3.939  0.7156 -0.1769  0.0386
 6376TIP3    H140619   3.686   3.139   3.967 -0.6656  0.3535  0.0166
 6376TIP3    H240620   3.707   3.282   4.014 -0.7802  0.6491 -0.8255
 6377TIP3   OH240621   0.228   5.606   5.564 -0.0283 -0.3907 -0.5200
 6377TIP3    H140622   0.213   5.693   5.526  0.2777  0.0179  0.2919
 6377TIP3    H240623   0.153   5.592   5.622  0.2385 -0.4067 -0.1773
 6378TIP3   OH240624   4.076   5.444   4.049 -0.0987 -0.0257 -0.2146
 6378TIP3    H140625   4.010   5.476   4.111  0.5331 -0.7250  0.8384
 6378TIP3    H240626   4.038   5.459   3.963 -1.9000 -0.9931  0.3967
 6379TIP3   OH240627   2.396   2.837   2.455 -0.1572 -0.4727 -0.4639
 6379TIP3    H140628   2.487   2.850   2.484 -0.4680  0.5474  0.0694
 6379TIP3    H240629   2.353   2.797   2.530 -0.5441  0.5811 -0.1126
 6380TIP3   OH240630   5.805   0.501   1.856  0.0223 -0.6325 -0.1536
 6380TIP3    H140631   5.820   0.407   1.846 -0.1841 -0.5553 -1.1554
 6380TIP3    H240632   5.855   0.541   1.785 -0.3502 -0.0174 -0.0676
 6381TIP3   OH240633   5.588   6.589  15.152  0.3601 -0.0302  0.0785
 6381TIP3    H140634   5.605   6.537  15.073  1.4179 -0.7352  0.7539
 6381TIP3    H240635   5.523   6.539  15.201  0.8149 -0.3545  0.3623
 6382TIP3   OH240636   6.448   2.380  15.217 -0.3012  0.4640  0.0966
 6382TIP3    H140637   6.431   2.395  15.310  0.3980  0.8435  0.1664
 6382TIP3    H240638   6.479   2.290  15.213 -4.1029 -0.9500 -0.2674
 6383TIP3   OH240639   5.874   1.157   4.506  0.1779 -0.1864 -0.7355
 6383TIP3    H140640   5.918   1.079   4.473  0.7821 -0.2680  0.2601
 6383TIP3    H240641   5.926   1.230   4.472  0.3890 -0.2504 -0.5495
 6384TIP3   OH240642   1.368   2.875  13.591 -0.4238 -0.0401  0.3499
 6384TIP3    H140643   1.276   2.893  13.574 -0.5496 -1.5199 -0.5725
 6384TIP3    H240644   1.391   2.934  13.663 -2.2383 -0.0882  0.9778
 6385TIP3   OH240645   2.997   3.919   5.478  0.6632  0.0087  0.0352
 6385TIP3    H140646   2.937   3.962   5.539  0.6657 -0.7653  0.5905
 6385TIP3    H240647   3.044   3.855   5.532  0.7152 -0.6309 -0.7686
 6386TIP3   OH240648   1.191   0.439   5.071  0.3465  0.4163  0.2013
 6386TIP3    H140649   1.285   0.430   5.087  0.4243  0.1838 -0.3679
 6386TIP3    H240650   1.185   0.456   4.977 -0.0551  2.3681  0.5599
 6387TIP3   OH240651   6.358   1.642  13.167  0.4769 -0.2307  0.4575
 6387TIP3    H140652   6.426   1.628  13.233 -0.8629 -1.3674  1.6106
 6387TIP3    H240653   6.366   1.567  13.108  1.6336  0.7530 -0.6818
 6388TIP3   OH240654   1.607   4.124  16.503  0.2119 -0.2072  0.2582
 6388TIP3    H140655   1.596   4.193  16.569  1.7009 -1.7795  2.2434
 6388TIP3    H240656   1.526   4.074  16.508  0.2633 -0.2462  0.8505
 6389TIP3   OH240657   3.772   6.638  16.849 -0.1936 -0.1728 -0.1680
 6389TIP3    H140658   3.837   6.601  16.909 -0.4918 -0.4171  0.0018
 6389TIP3    H240659   3.706   6.570  16.840 -1.1938  0.6505  0.8316
 6390TIP3   OH240660   3.435   5.696   3.713  0.2146  0.5148  0.2600
 6390TIP3    H140661   3.362   5.672   3.655  2.6392  0.1804 -2.8380
 6390TIP3    H240662   3.511   5.651   3.675  2.6850  3.6118  1.2828
 6391TIP3   OH240663   4.074   3.286  12.359  0.1136 -0.1129 -0.2155
 6391TIP3    H140664   4.013   3.224  12.318  1.3653 -1.7519  0.3603
 6391TIP3    H240665   4.146   3.232  12.391  0.6953  1.5226  1.3088
 6392TIP3   OH240666   4.349   2.388  12.086 -0.3894  0.0310 -0.3626
 6392TIP3    H140667   4.276   2.376  12.146 -2.6455  1.3839 -2.7553
 6392TIP3    H240668   4.406   2.313  12.102 -2.4951 -1.2529  1.2743
 6393TIP3   OH240669   5.500   4.378   0.969  0.0140  0.4302  0.7330
 6393TIP3    H140670   5.486   4.429   0.889 -0.2892  0.5749  0.8747
 6393TIP3    H240671   5.595   4.368   0.976  0.0768  1.0303  0.7354
 6394TIP3   OH240672   1.494   4.042  13.519  0.2243 -0.3735  0.2617
 6394TIP3    H140673   1.456   4.128  13.537  1.2875 -0.0366  0.9051
 6394TIP3    H240674   1.587   4.052  13.538  0.3300 -1.7062  0.4762
 6395TIP3   OH240675   3.988   3.086   4.950  0.3658  0.9479  0.4148
 6395TIP3    H140676   4.013   3.120   4.864  2.3054 -0.8997  0.2155
 6395TIP3    H240677   4.064   3.105   5.006  0.8301 -1.5127  0.6837
 6396TIP3   OH240678   0.559   1.198   5.209 -0.1117  0.7976  0.0393
 6396TIP3    H140679   0.608   1.209   5.127  0.5667 -1.7203  0.0680
 6396TIP3    H240680   0.626   1.192   5.277 -0.5352 -0.2184  0.3823
 6397TIP3   OH240681   2.477   4.442  11.574 -0.1140 -0.2888 -0.1586
 6397TIP3    H140682   2.410   4.403  11.518  0.8293 -1.0356 -0.7988
 6397TIP3    H240683   2.500   4.372  11.635 -1.0047  0.4617  1.0544
 6398TIP3   OH240684   6.462   1.402   5.653  0.2299  0.2481  0.0758
 6398TIP3    H140685   6.390   1.360   5.607  0.3084  0.5933 -0.3664
 6398TIP3    H240686   6.511   1.330   5.692 -0.1916 -0.0031  0.1311
 6399TIP3   OH240687   1.165   0.961  16.583 -0.0904  0.4798  0.0938
 6399TIP3    H140688   1.201   1.041  16.545 -2.1100  0.3762 -2.0964
 6399TIP3    H240689   1.074   0.959  16.556 -0.7663 -1.2828  2.2769
 6400TIP3   OH240690   2.575   1.299   1.044 -0.3091  0.4547 -0.3168
 6400TIP3    H140691   2.640   1.360   1.010  0.2461  0.3446  0.5321
 6400TIP3    H240692   2.563   1.324   1.136 -2.1933  1.0928 -0.7095
 6401TIP3   OH240693   2.364   1.187  14.080  0.2566  0.2358 -0.2023
 6401TIP3    H140694   2.451   1.149  14.091  0.2151  0.0961 -0.3552
 6401TIP3    H240695   2.305   1.113  14.083  0.1321  0.3458  0.0230
 6402TIP3   OH240696   4.144   3.478   4.794 -0.4767  0.4548 -0.1962
 6402TIP3    H140697   4.211   3.495   4.728  0.3713 -0.4727  0.4184
 6402TIP3    H240698   4.169   3.533   4.868 -0.8684  0.7301 -0.2642
 6403TIP3   OH240699   4.673   2.371  12.895  0.5544  0.9368 -0.6970
 6403TIP3    H140700   4.609   2.320  12.944  0.9731 -0.1678 -1.2925
 6403TIP3    H240701   4.736   2.400  12.961  0.8976 -0.2093 -0.5094
 6404TIP3   OH240702   4.965   0.086  17.101  0.2416 -0.2641 -0.0762
 6404TIP3    H140703   4.991   0.104  17.011 -2.0194  0.2822 -0.6456
 6404TIP3    H240704   4.873   0.113  17.106  0.3121 -0.3480  2.3759
 6405TIP3   OH240705   3.437   2.837  10.540 -0.2934  0.4942 -0.5577
 6405TIP3    H140706   3.446   2.743  10.528 -0.3276  0.2231  1.2843
 6405TIP3    H240707   3.347   2.849  10.568  0.4178  0.7477  1.7341
 6406TIP3   OH240708   3.984   3.236  14.333 -0.0921  0.4286 -0.4656
 6406TIP3    H140709   3.959   3.300  14.399  1.9498  1.0921 -0.2981
 6406TIP3    H240710   4.027   3.287  14.265 -2.0448 -0.2551 -2.2886
 6407TIP3   OH240711   2.572   1.868   4.101  0.8673  0.3293 -0.2463
 6407TIP3    H140712   2.638   1.928   4.068 -1.1607  1.6133 -2.0788
 6407TIP3    H240713   2.508   1.924   4.146 -0.8929 -0.4393 -1.7145
 6408TIP3   OH240714   2.875   5.434   1.547 -0.1913  0.1151  0.0088
 6408TIP3    H140715   2.869   5.343   1.578 -0.9555 -0.4874 -1.8004
 6408TIP3    H240716   2.784   5.457   1.526 -0.0098  1.3408  0.6004
 6409TIP3   OH240717   6.516   2.257  14.961 -0.2212  0.7404  0.1224
 6409TIP3    H140718   6.486   2.195  15.028 -0.3374  1.5042  0.7795
 6409TIP3    H240719   6.553   2.330  15.010 -1.1361  1.7234 -0.6300
 6410TIP3   OH240720   1.685   2.109  11.848 -0.1941 -0.4298 -0.2253
 6410TIP3    H140721   1.682   2.119  11.753 -0.5646 -1.2241 -0.3042
 6410TIP3    H240722   1.637   2.028  11.865  0.7004 -0.8086  0.5530
 6411TIP3   OH240723   5.756   3.717   2.220 -0.2015  0.3833  0.3613
 6411TIP3    H140724   5.722   3.651   2.160 -2.1764  1.4400  0.2653
 6411TIP3    H240725   5.810   3.667   2.282  0.5304 -0.9306 -1.2800
 6412TIP3   OH240726   4.625   4.084  11.106 -0.7712 -0.2910  0.0523
 6412TIP3    H140727   4.618   4.143  11.181 -1.9605 -0.8392  0.3787
 6412TIP3    H240728   4.719   4.080  11.088 -0.5477  0.4679  1.0128
 6413TIP3   OH240729   3.602   1.622   3.579 -0.6078  0.1747 -0.3745
 6413TIP3    H140730   3.508   1.606   3.564 -1.2485  1.0404  2.4242
 6413TIP3    H240731   3.607   1.646   3.671  2.3365  0.6658 -0.6400
 6414TIP3   OH240732   0.679   2.940  14.089  0.0960  0.1337  0.2681
 6414TIP3    H140733   0.655   2.960  13.999  1.6526  3.8136  0.5967
 6414TIP3    H240734   0.768   2.972  14.098  0.2475 -0.8780  2.9348
 6415TIP3   OH240735   3.373   3.658  15.506  0.1117  0.4688  0.3743
 6415TIP3    H140736   3.360   3.706  15.425 -2.2411 -0.2903  0.2655
 6415TIP3    H240737   3.373   3.566  15.480 -0.4148  0.2297  1.1891
 6416TIP3   OH240738   0.886   0.712   0.956 -0.8975  0.1012  0.0903
 6416TIP3    H140739   0.934   0.753   1.028 -0.9155  0.3095 -0.0174
 6416TIP3    H240740   0.846   0.785   0.909 -0.3075  0.0242 -0.5465
 6417TIP3   OH240741   3.131   4.835   0.149 -0.2652  0.0781 -0.0033
 6417TIP3    H140742   3.071   4.768   0.116 -0.8397  1.1949 -1.2730
 6417TIP3    H240743   3.204   4.785   0.186 -2.2334 -1.3258  2.1249
 6418TIP3   OH240744   1.317   3.561   4.696  0.2927  0.2686  0.6779
 6418TIP3    H140745   1.320   3.656   4.689  0.3510  0.2317  0.2066
 6418TIP3    H240746   1.389   3.531   4.641 -0.8864 -0.1236 -0.6692
 6419TIP3   OH240747   5.952   1.179   5.394  0.3655 -0.4039  0.4513
 6419TIP3    H140748   6.004   1.210   5.469 -0.8512  0.9190  0.7793
 6419TIP3    H240749   5.916   1.095   5.423 -1.4890  0.8876  2.0621
 6420TIP3   OH240750   4.469   6.269   3.624  0.3792 -0.2754 -0.2170
 6420TIP3    H140751   4.525   6.273   3.701 -1.2965  1.7795  0.9540
 6420TIP3    H240752   4.385   6.304   3.654 -0.5492 -0.2415 -2.7617
 6421TIP3   OH240753   4.933   5.915  13.964 -0.1259  0.8020  0.4287
 6421TIP3    H140754   5.011   5.900  13.912 -0.4889  0.5295 -0.0418
 6421TIP3    H240755   4.933   5.844  14.029 -1.0680 -0.4224 -0.8785
 6422TIP3   OH240756   5.749   3.298   6.151  0.1684 -0.4194  0.1963
 6422TIP3    H140757   5.729   3.355   6.226 -1.1843 -0.0007 -0.4671
 6422TIP3    H240758   5.699   3.218   6.169  1.4922 -1.1222  0.7690
 6423TIP3   OH240759   3.111   1.718   2.618 -0.1613 -0.3075  0.7064
 6423TIP3    H140760   3.114   1.723   2.522 -0.4703 -2.6443  0.5538
 6423TIP3    H240761   3.101   1.809   2.646 -1.9950  0.2250 -1.5593
 6424TIP3   OH240762   2.828   5.295   3.436 -0.4883 -0.2919  0.7056
 6424TIP3    H140763   2.855   5.215   3.481  0.8202 -0.3581 -0.1596
 6424TIP3    H240764   2.845   5.277   3.344 -1.4971  0.4819  0.3595
 6425TIP3   OH240765   3.144   6.034   0.401  0.3579  0.2573 -0.1490
 6425TIP3    H140766   3.149   6.129   0.413 -1.3073  0.1383  1.8140
 6425TIP3    H240767   3.084   6.023   0.327 -0.2465  0.7294  0.2614
 6426TIP3   OH240768   0.770   4.124  17.144 -0.4426 -0.5161  0.1800
 6426TIP3    H140769   0.792   4.179  17.068 -1.0375 -1.6266 -0.8197
 6426TIP3    H240770   0.848   4.070  17.158 -0.0009  0.3014  0.9240
 6427TIP3   OH240771   4.972   6.675  11.480  0.4901 -0.2317 -0.2654
 6427TIP3    H140772   4.951   6.583  11.463  0.0440 -0.5495  1.9484
 6427TIP3    H240773   4.921   6.698  11.557  0.6415  1.8793 -0.7540
 6428TIP3   OH240774   4.356   4.175  12.924  0.0770  0.3098  0.2475
 6428TIP3    H140775   4.332   4.167  12.831  0.1214  1.9116  0.0905
 6428TIP3    H240776   4.406   4.096  12.942 -1.1906 -0.7439 -0.7057
 6429TIP3   OH240777   6.459   3.562   5.626  0.1827 -0.1603  0.0313
 6429TIP3    H140778   6.438   3.632   5.688  1.4628 -0.2298  0.5611
 6429TIP3    H240779   6.390   3.566   5.560  0.7743  2.2323 -0.4720
 6430TIP3   OH240780   0.478   6.017  13.429  0.7946  0.8328  0.2350
 6430TIP3    H140781   0.478   5.929  13.390 -1.4078  0.5828  0.6977
 6430TIP3    H240782   0.543   6.013  13.499  0.6212 -0.4783  0.3299
 6431TIP3   OH240783   2.537   5.760   6.315  0.4959 -0.0019 -0.7904
 6431TIP3    H140784   2.592   5.835   6.340 -0.2480  0.3213 -0.0888
 6431TIP3    H240785   2.588   5.683   6.338  0.9397  0.2957 -0.7855
 6432TIP3   OH240786   3.058   4.008  12.226  0.8572 -0.0641 -0.1426
 6432TIP3    H140787   3.085   4.029  12.316  0.4128 -0.3343  0.0576
 6432TIP3    H240788   3.066   4.091  12.179  0.1306  0.3157  0.3894
 6433TIP3   OH240789   0.269   4.368   0.341  0.5976 -0.3276 -0.6571
 6433TIP3    H140790   0.323   4.291   0.356 -0.5441 -1.2316 -1.1139
 6433TIP3    H240791   0.331   4.438   0.320  1.7610 -0.7230  1.3182
 6434TIP3   OH240792   1.272   4.761  16.867  0.3219 -0.2139 -0.3659
 6434TIP3    H140793   1.289   4.674  16.831  2.9522 -0.0067  0.2297
 6434TIP3    H240794   1.312   4.821  16.804 -0.4437  0.4956 -0.1846
 6435TIP3   OH240795   2.064   2.882  13.640  0.4799  0.1223 -0.0292
 6435TIP3    H140796   1.985   2.861  13.591  0.5279 -0.4464  0.1428
 6435TIP3    H240797   2.100   2.798  13.668  0.7960  0.4065  0.4446
 6436TIP3   OH240798   4.338   2.026   5.971 -0.2741  0.1548 -0.6419
 6436TIP3    H140799   4.428   2.023   6.005  0.0267  2.0255 -1.1856
 6436TIP3    H240800   4.286   2.056   6.046 -0.0074  1.7193 -1.0552
 6437TIP3   OH240801   3.634   4.750   5.677  0.1130 -0.1409 -0.7071
 6437TIP3    H140802   3.569   4.795   5.730  2.4545  1.1858  1.1480
 6437TIP3    H240803   3.639   4.802   5.596 -0.5112  0.2594 -0.4871
 6438TIP3   OH240804   2.884   2.437  15.992 -0.0021 -0.6195 -0.1063
 6438TIP3    H140805   2.920   2.350  15.972  0.0796 -0.7203  0.4570
 6438TIP3    H240806   2.961   2.493  16.001 -0.1107 -0.1313 -2.0405
 6439TIP3   OH240807   2.329   3.948  16.079 -0.1933 -0.1343 -0.2730
 6439TIP3    H140808   2.396   4.016  16.085  0.3899 -0.9092  3.1009
 6439TIP3    H240809   2.354   3.895  16.004  1.9160  0.6944 -0.1801
 6440TIP3   OH240810   4.054   0.211  16.119  0.1522 -0.0316  0.2527
 6440TIP3    H140811   3.962   0.198  16.095  0.2623  0.8580 -0.7219
 6440TIP3    H240812   4.061   0.179  16.208 -0.7575 -1.5538 -0.2183
 6441TIP3   OH240813   1.791   2.132   3.079  0.0484  0.0358 -0.3241
 6441TIP3    H140814   1.847   2.172   3.012 -0.1537 -0.4712 -0.7993
 6441TIP3    H240815   1.801   2.038   3.066  0.1204 -0.0715  0.4584
 6442TIP3   OH240816   6.777   1.763  16.896  0.4492 -0.3462  0.4540
 6442TIP3    H140817   6.705   1.825  16.887 -0.0127 -0.6673  1.8312
 6442TIP3    H240818   6.834   1.802  16.962  0.1885 -1.3322  1.2877
 6443TIP3   OH240819   3.062   0.377   5.964  0.6380 -0.4707 -0.3613
 6443TIP3    H140820   3.075   0.408   5.875 -1.2328  1.1076 -0.1236
 6443TIP3    H240821   2.967   0.364   5.972  0.5226  1.3133  1.9594
 6444TIP3   OH240822   0.731   3.484  16.388  0.5715 -0.0086  0.1057
 6444TIP3    H140823   0.774   3.530  16.460  1.0587  0.0704 -0.2350
 6444TIP3    H240824   0.800   3.472  16.323  0.8851 -2.8031  0.9152
 6445TIP3   OH240825   4.470   3.396   1.548  0.1629 -0.1085 -0.0762
 6445TIP3    H140826   4.394   3.359   1.593 -0.3831  1.5317  0.3855
 6445TIP3    H240827   4.435   3.432   1.467  0.8425 -1.3872 -0.9575
 6446TIP3   OH240828   5.416   0.931   3.890  0.2847 -0.4497 -0.3485
 6446TIP3    H140829   5.483   0.865   3.879  1.1303  0.4048 -0.3804
 6446TIP3    H240830   5.399   0.963   3.801 -1.4933 -1.9389 -0.5838
 6447TIP3   OH240831   3.127   2.152  16.627  0.2160  0.2747 -0.0389
 6447TIP3    H140832   3.056   2.214  16.610 -0.2408 -0.2551 -0.1119
 6447TIP3    H240833   3.094   2.097  16.699  0.6467  0.1735  0.0831
 6448TIP3   OH240834   4.062   5.339  15.713 -0.6683  0.2544  0.4756
 6448TIP3    H140835   4.069   5.365  15.621 -2.1168 -0.0686  0.2685
 6448TIP3    H240836   4.151   5.314  15.737 -0.1825  0.7831 -0.6987
 6449TIP3   OH240837   3.226   4.107  15.480  0.1255 -0.2842 -0.5878
 6449TIP3    H140838   3.219   4.013  15.464 -2.4785 -0.2077 -0.1485
 6449TIP3    H240839   3.206   4.117  15.573 -0.4742  0.7730 -0.8204
 6450TIP3   OH240840   0.270   1.560  15.107 -0.2012  0.6556 -0.2381
 6450TIP3    H140841   0.201   1.494  15.111 -1.2838  1.6815 -1.2646
 6450TIP3    H240842   0.301   1.557  15.016 -0.5391  1.8083 -0.3991
 6451TIP3   OH240843   1.196   4.444  12.395 -0.1868 -0.3588 -0.1973
 6451TIP3    H140844   1.224   4.511  12.332 -0.4190 -1.2540 -1.2663
 6451TIP3    H240845   1.259   4.451  12.467  1.7580 -1.1744 -1.7748
 6452TIP3   OH240846   0.659   6.439   0.534  0.2835  0.4081 -0.0743
 6452TIP3    H140847   0.602   6.367   0.561  0.6392 -0.3945 -1.3823
 6452TIP3    H240848   0.609   6.518   0.551 -0.1640 -0.1585  1.2704
 6453TIP3   OH240849   1.733   5.337   0.591 -0.0108 -0.0842 -0.0842
 6453TIP3    H140850   1.816   5.294   0.613 -0.1514 -0.3456 -0.0729
 6453TIP3    H240851   1.760   5.422   0.556  0.3080 -0.5942 -1.0940
 6454TIP3   OH240852   1.139   0.995  10.967  0.3459  0.2865  0.2945
 6454TIP3    H140853   1.143   0.999  10.871  0.6680  0.7337  0.3247
 6454TIP3    H240854   1.113   0.905  10.987 -1.1629  0.5752 -0.2707
 6455TIP3   OH240855   4.621   6.251   3.840  0.4401  0.5752  0.4253
 6455TIP3    H140856   4.716   6.241   3.833  0.0704 -2.5452 -1.2541
 6455TIP3    H240857   4.600   6.217   3.928  0.9045  1.7463  1.0000
 6456TIP3   OH240858   3.849   2.864   2.888 -0.5305 -0.4042 -0.4627
 6456TIP3    H140859   3.842   2.779   2.845  1.0758 -0.5991 -0.3421
 6456TIP3    H240860   3.803   2.924   2.829 -2.2115 -1.4378 -0.2483
 6457TIP3   OH240861   2.676   4.636   0.416 -0.3250  0.0400  0.1520
 6457TIP3    H140862   2.676   4.730   0.397 -0.3477  0.4429  2.0283
 6457TIP3    H240863   2.678   4.594   0.330  1.1435  1.7628 -0.6997
 6458TIP3   OH240864   1.498   3.135  14.115 -0.0102 -0.0755 -0.5716
 6458TIP3    H140865   1.492   3.051  14.069  0.9490 -0.8349  0.6595
 6458TIP3    H240866   1.590   3.141  14.140 -0.3915  0.6395  0.6611
 6459TIP3   OH240867   6.509   3.882   2.139 -0.5107 -0.2521  0.0235
 6459TIP3    H140868   6.577   3.933   2.096 -1.5032 -1.8180 -3.6874
 6459TIP3    H240869   6.427   3.924   2.112 -1.1423 -0.3372  1.7486
 6460TIP3   OH240870   5.704   4.459  17.022 -0.4208 -0.0564 -0.3796
 6460TIP3    H140871   5.675   4.376  16.985  1.8887 -0.4021 -1.4599
 6460TIP3    H240872   5.702   4.520  16.948 -3.0273  1.1310  0.6066
 6461TIP3   OH240873   3.845   2.476  13.630  0.6080  0.1904  0.7507
 6461TIP3    H140874   3.765   2.440  13.590  1.8044 -1.1643 -0.4928
 6461TIP3    H240875   3.869   2.410  13.695  0.5249  0.7761  1.3746
 6462TIP3   OH240876   5.296   6.243  11.092  0.0494  0.4103  0.0773
 6462TIP3    H140877   5.368   6.302  11.067  0.0900  0.4648  0.3137
 6462TIP3    H240878   5.336   6.182  11.154  0.1630 -0.2787 -0.6767
 6463TIP3   OH240879   5.154   1.038   3.028 -0.5520  0.5016 -0.5704
 6463TIP3    H140880   5.085   1.095   3.061 -2.5753 -0.1201 -3.4933
 6463TIP3    H240881   5.152   1.050   2.933  2.0435 -1.0341 -0.8740
 6464TIP3   OH240882   0.001   2.265  12.071  0.2622 -0.5274  0.9560
 6464TIP3    H140883  -0.057   2.316  12.128  1.8316  0.9912  1.2412
 6464TIP3    H240884   0.081   2.253  12.123  1.0903 -0.5241 -0.3069
 6465TIP3   OH240885   4.786   3.060   5.701  0.3508 -0.5273  0.0457
 6465TIP3    H140886   4.765   3.046   5.793  2.8165 -0.7171  0.6070
 6465TIP3    H240887   4.765   2.977   5.658 -1.5155 -0.1966  0.2706
 6466TIP3   OH240888   4.813   3.351  14.602  0.4239 -0.5428  0.0786
 6466TIP3    H140889   4.790   3.322  14.514  1.2592 -1.9792  0.3145
 6466TIP3    H240890   4.896   3.306  14.621  1.2827  1.2856  0.8366
 6467TIP3   OH240891   6.312   4.308  12.266  0.1236  0.0298 -0.2832
 6467TIP3    H140892   6.384   4.247  12.257  0.0700  0.2228 -2.1792
 6467TIP3    H240893   6.341   4.371  12.332  0.8700 -1.0216  0.3969
 6468TIP3   OH240894   3.205   0.909   2.836  0.0795  0.3094  0.7565
 6468TIP3    H140895   3.159   0.825   2.842  1.6990 -0.6222  0.3647
 6468TIP3    H240896   3.218   0.923   2.742 -1.3053  1.6341  0.7458
 6469TIP3   OH240897   6.533   1.148   5.768  0.0451 -0.4582 -0.7562
 6469TIP3    H140898   6.603   1.111   5.823  1.5335 -0.0031 -2.3054
 6469TIP3    H240899   6.503   1.074   5.716 -0.2439 -0.5315 -0.4850
 6470TIP3   OH240900   3.654   5.971  16.924  0.1573  0.2730 -0.1872
 6470TIP3    H140901   3.648   5.924  17.007  0.3207 -0.9090 -0.8293
 6470TIP3    H240902   3.602   5.918  16.863  1.5948  0.1127 -1.2821
 6471TIP3   OH240903   4.866   6.100   6.311 -0.1161  0.1877  0.2134
 6471TIP3    H140904   4.774   6.081   6.294  0.2204 -0.4786 -0.8957
 6471TIP3    H240905   4.868   6.194   6.332 -0.9296  0.3882 -0.5919
 6472TIP3   OH240906   6.354   4.983  11.546  0.0505  0.0029  0.1257
 6472TIP3    H140907   6.260   4.969  11.556  0.2330 -0.0913  1.7570
 6472TIP3    H240908   6.393   4.896  11.558  0.4109  0.1676  0.1522
 6473TIP3   OH240909   1.812   4.069  15.154 -0.3886  0.1803  0.4341
 6473TIP3    H140910   1.746   4.138  15.163 -0.8551 -0.3359  1.0018
 6473TIP3    H240911   1.894   4.116  15.139 -0.6391  0.8774  1.2000
 6474TIP3   OH240912   5.843   5.487   3.755  0.0226  0.1409 -0.1833
 6474TIP3    H140913   5.847   5.431   3.832  0.1176 -1.3922 -1.2954
 6474TIP3    H240914   5.925   5.537   3.759  0.2100 -0.2045  0.4944
 6475TIP3   OH240915   0.562   3.152  11.959  0.4961 -0.2139 -0.3991
 6475TIP3    H140916   0.566   3.246  11.945  0.2115  0.2346  2.2844
 6475TIP3    H240917   0.610   3.115  11.885  1.8003  2.0862 -0.7620
 6476TIP3   OH240918   4.291   1.998   1.358 -0.0338  1.0001  0.0499
 6476TIP3    H140919   4.230   1.933   1.395 -1.2404  2.1507  0.1248
 6476TIP3    H240920   4.357   2.011   1.426 -0.5407  0.8544  0.5754
 6477TIP3   OH240921   5.318   4.204   2.262 -0.2734  0.0993 -0.8704
 6477TIP3    H140922   5.247   4.209   2.199 -0.9820  0.2705 -0.0613
 6477TIP3    H240923   5.313   4.287   2.310 -1.8827 -1.4392  1.7077
 6478TIP3   OH240924   5.152   2.205   5.921 -0.3469 -0.3913  0.3841
 6478TIP3    H140925   5.094   2.276   5.946  1.0577  0.5476  1.0347
 6478TIP3    H240926   5.239   2.245   5.917  0.2842 -1.7985 -0.4286
 6479TIP3   OH240927   3.894   3.974   0.139  0.5657  0.4862 -0.3969
 6479TIP3    H140928   3.979   3.965   0.180 -0.1104 -1.7780  0.5464
 6479TIP3    H240929   3.831   3.948   0.206 -0.5473 -3.7267 -2.9136
 6480TIP3   OH240930   1.731   4.400  10.985  0.7262  0.3291 -0.3694
 6480TIP3    H140931   1.819   4.392  11.022  0.3748  1.0709  0.6340
 6480TIP3    H240932   1.679   4.335  11.032  0.4914  0.6310 -0.2112
 6481TIP3   OH240933   0.070   1.808  13.939 -0.4008 -0.2379 -0.3485
 6481TIP3    H140934   0.110   1.859  13.869 -2.6447 -0.3938 -1.7945
 6481TIP3    H240935   0.024   1.737  13.894 -0.3888 -1.3826  1.3994
 6482TIP3   OH240936   5.563   5.489   3.833  0.3585  0.0041 -0.1329
 6482TIP3    H140937   5.622   5.416   3.856 -0.5907 -2.4016 -4.6484
 6482TIP3    H240938   5.616   5.545   3.776  0.5019  1.9583  1.8489
 6483TIP3   OH240939   2.770   5.211   5.411 -0.2057  0.3473  0.6378
 6483TIP3    H140940   2.709   5.194   5.340 -0.4749  0.8566  0.7381
 6483TIP3    H240941   2.804   5.299   5.393 -0.1144  0.3920  1.0157
 6484TIP3   OH240942   0.674   1.126  12.371  0.2874  0.3811  0.7822
 6484TIP3    H140943   0.751   1.070  12.358  0.7236  0.9425  0.9580
 6484TIP3    H240944   0.673   1.183  12.294 -0.7810 -0.5843  0.0498
 6485TIP3   OH240945   3.177   3.767   2.180 -0.2418 -0.3136 -0.0546
 6485TIP3    H140946   3.143   3.764   2.269 -1.3423 -0.5318 -0.4785
 6485TIP3    H240947   3.102   3.749   2.124  0.3745  0.1242 -1.0482
 6486TIP3   OH240948   6.109   3.577  16.078  0.0699 -0.1579  0.0190
 6486TIP3    H140949   6.032   3.587  16.022 -0.7747  0.5253  1.2940
 6486TIP3    H240950   6.147   3.665  16.083  0.0093 -0.1683  0.6997
 6487TIP3   OH240951   0.351   2.719  12.667  0.3502  0.3778  0.3678
 6487TIP3    H140952   0.275   2.662  12.676  1.3629 -1.2607 -1.2076
 6487TIP3    H240953   0.425   2.659  12.657  1.7221  1.9611  0.8330
 6488TIP3   OH240954   6.750   0.228   1.764  0.6812  0.1680  0.4720
 6488TIP3    H140955   6.695   0.157   1.798 -0.2551  0.6619  0.0048
 6488TIP3    H240956   6.829   0.184   1.731 -0.3732 -0.7705 -0.8349
 6489TIP3   OH240957   6.485   3.860   0.764  0.4630 -0.0436  0.0090
 6489TIP3    H140958   6.445   3.793   0.818  0.9481 -1.6050 -1.5078
 6489TIP3    H240959   6.424   3.934   0.768 -0.5837 -0.9399  0.8811
 6490TIP3   OH240960   4.218   0.781   0.345 -0.1137  0.2216  0.2227
 6490TIP3    H140961   4.139   0.810   0.300 -0.6599  0.5399  1.3770
 6490TIP3    H240962   4.209   0.815   0.434  1.0360 -0.2553  0.5269
 6491TIP3   OH240963   3.926   3.043  16.674 -0.2572  0.2639 -0.7734
 6491TIP3    H140964   3.906   3.118  16.618 -0.2696 -0.4019 -1.6788
 6491TIP3    H240965   3.890   2.968  16.626 -0.7207 -0.2538  0.3739
 6492TIP3   OH240966   3.016   4.117  15.665 -0.2815  0.3196  0.4380
 6492TIP3    H140967   2.972   4.087  15.745 -0.2241  0.1441  0.4035
 6492TIP3    H240968   2.958   4.186  15.631 -1.1464 -0.7217 -0.2443
 6493TIP3   OH240969   3.670   3.066  13.724 -0.0198  0.5806 -0.0872
 6493TIP3    H140970   3.617   3.089  13.800  1.4207  1.9250  0.5551
 6493TIP3    H240971   3.628   3.111  13.651 -0.7128  0.2777  0.1221
 6494TIP3   OH240972   2.234   3.415  15.572  0.3267 -0.2734 -0.0609
 6494TIP3    H140973   2.237   3.341  15.633 -1.5635 -1.2004 -1.0617
 6494TIP3    H240974   2.220   3.374  15.487 -2.9010  1.3376 -0.3744
 6495TIP3   OH240975   4.043   2.526  13.214 -0.0244  0.4493 -0.1546
 6495TIP3    H140976   4.046   2.510  13.308 -2.2597  0.3100 -0.0821
 6495TIP3    H240977   4.080   2.446  13.175 -2.1780 -0.9175  0.5194
 6496TIP3   OH240978   2.863   6.792   3.787 -0.2405  0.2239  0.3332
 6496TIP3    H140979   2.944   6.767   3.743 -1.1010 -1.3665 -0.3949
 6496TIP3    H240980   2.802   6.720   3.769 -1.1523  0.3478  2.6843
 6497TIP3   OH240981   1.108   3.573   1.578  0.9542 -1.0978  0.2264
 6497TIP3    H140982   1.199   3.594   1.596  0.4985  0.5622  0.7198
 6497TIP3    H240983   1.063   3.589   1.661  0.0141 -0.6204 -0.3557
 6498TIP3   OH240984   2.719   5.149   2.961  0.8137 -0.2563 -0.5604
 6498TIP3    H140985   2.679   5.234   2.945  0.8600 -0.1075  0.0856
 6498TIP3    H240986   2.796   5.148   2.905  3.1343  1.8204  2.4436
 6499TIP3   OH240987   4.392   6.147   2.575  0.7108  0.3253  0.2063
 6499TIP3    H140988   4.377   6.161   2.668 -1.6389  1.0528 -0.2410
 6499TIP3    H240989   4.335   6.211   2.532  3.1811  1.3170 -1.7201
 6500TIP3   OH240990   3.830   0.691   4.075  0.2017  0.4059 -0.4289
 6500TIP3    H140991   3.843   0.770   4.129 -3.1507  0.2567  0.7254
 6500TIP3    H240992   3.835   0.619   4.138  0.2733 -0.0870 -1.0018
 6501TIP3   OH240993   4.640   0.687   3.830 -0.1210  0.1363 -0.2367
 6501TIP3    H140994   4.608   0.623   3.766 -3.0963  1.5462 -0.2227
 6501TIP3    H240995   4.735   0.688   3.816 -0.5358 -0.6657 -3.6389
 6502TIP3   OH240996   4.947   4.568   3.439  0.1322 -0.2562  0.6251
 6502TIP3    H140997   5.031   4.553   3.395  0.3199 -0.3115  0.9981
 6502TIP3    H240998   4.918   4.481   3.466 -0.0390 -0.2346  0.5149
 6503TIP3   OH240999   6.220   4.820  10.701 -0.0268  0.2944  0.2291
 6503TIP3    H141000   6.129   4.790  10.695  0.4712 -1.0983 -0.4743
 6503TIP3    H241001   6.269   4.744  10.733  1.2585  0.3059 -1.6493
 6504TIP3   OH241002   4.767   1.612   3.590  0.1267 -0.0162 -0.3016
 6504TIP3    H141003   4.793   1.675   3.523  0.6037  0.9157  0.7457
 6504TIP3    H241004   4.764   1.663   3.671  0.1388 -1.2564  0.4926
 6505TIP3   OH241005   4.890   2.454   5.510  0.1988 -0.1174 -0.2041
 6505TIP3    H141006   4.814   2.423   5.559  0.1841  1.3478  0.7603
 6505TIP3    H241007   4.921   2.378   5.461 -2.5483 -0.4516 -1.4914
 6506TIP3   OH241008   2.460   6.385   2.853 -0.0558  0.6267 -0.4537
 6506TIP3    H141009   2.484   6.459   2.909  0.6724 -1.1812  1.6847
 6506TIP3    H241010   2.365   6.393   2.843 -0.1733  1.0836  0.8758
 6507TIP3   OH241011   0.933   5.843  11.829 -0.3258 -0.5123 -0.0611
 6507TIP3    H141012   0.939   5.844  11.924  0.4875  0.7330 -0.1001
 6507TIP3    H241013   1.012   5.796  11.800  0.0139  0.0954 -0.1371
 6508TIP3   OH241014   2.325   2.772  16.382 -0.1909  0.5844 -0.2050
 6508TIP3    H141015   2.386   2.738  16.448 -1.0459  0.7876  0.7074
 6508TIP3    H241016   2.318   2.865  16.402  0.4979  0.8940 -1.3713
 6509TIP3   OH241017   0.442   0.814  10.624 -0.1791 -0.3029  0.3834
 6509TIP3    H141018   0.363   0.759  10.623  0.1136 -0.7166 -0.1255
 6509TIP3    H241019   0.408   0.903  10.634 -0.8336 -0.3050 -1.6476
 6510TIP3   OH241020   3.677   0.687  10.813 -0.3717  0.0679 -0.0981
 6510TIP3    H141021   3.680   0.608  10.759 -2.0019 -1.4737  1.9913
 6510TIP3    H241022   3.762   0.688  10.858 -0.8185 -1.2132  0.8060
 6511TIP3   OH241023   1.910   0.464   6.749  0.1618 -0.0426 -0.1731
 6511TIP3    H141024   1.993   0.493   6.787 -0.2795  1.5799 -0.3944
 6511TIP3    H241025   1.935   0.397   6.686  1.2623  0.0596  0.1330
 6512TIP3   OH241026   5.568   2.219   2.673  0.2784 -0.2659 -0.1573
 6512TIP3    H141027   5.515   2.141   2.656 -0.7988  0.4871 -0.3099
 6512TIP3    H241028   5.543   2.280   2.604  0.7683  0.3880  0.2378
 6513TIP3   OH241029   1.812   5.173  11.562 -0.2914  0.0912  0.2967
 6513TIP3    H141030   1.865   5.108  11.516 -0.7495 -0.6725  0.8329
 6513TIP3    H241031   1.860   5.255  11.552 -0.4005 -0.0564 -1.5606
 6514TIP3   OH241032   0.935   0.330  14.986  0.2183  0.3635  0.8013
 6514TIP3    H141033   0.972   0.244  15.007  1.0534  0.4076 -0.4121
 6514TIP3    H241034   0.990   0.392  15.034 -0.7311  0.1896  2.1192
 6515TIP3   OH241035   6.117   1.566   2.191  0.0369  0.2069  0.9887
 6515TIP3    H141036   6.156   1.483   2.161  0.0820 -0.4525  2.7977
 6515TIP3    H241037   6.116   1.622   2.113 -1.6085 -2.0797 -0.7061
 6516TIP3   OH241038   0.793   0.625  10.379 -0.1833 -0.9283  0.0663
 6516TIP3    H141039   0.780   0.668  10.464  0.2896  0.6081 -0.6228
 6516TIP3    H241040   0.880   0.586  10.386  0.0970 -0.3065  0.0827
 6517TIP3   OH241041   3.731   4.863  16.862 -0.3002 -0.1901  0.2462
 6517TIP3    H141042   3.764   4.922  16.929  0.2888  0.0134 -0.2130
 6517TIP3    H241043   3.653   4.905  16.828 -1.2736 -0.8449  1.5975
 6518TIP3   OH241044   4.949   0.434   0.678 -0.3348 -0.1151  0.7585
 6518TIP3    H141045   4.873   0.384   0.648 -0.6939  0.6887  0.3255
 6518TIP3    H241046   5.024   0.387   0.642 -0.7348  0.5041 -0.9202
 6519TIP3   OH241047   1.294   2.112  16.370  0.0979 -0.7367 -0.0393
 6519TIP3    H141048   1.215   2.057  16.371 -0.4754  0.0644  1.3908
 6519TIP3    H241049   1.366   2.051  16.360 -0.6972 -1.5088 -1.1001
 6520TIP3   OH241050   3.367   1.478   0.039  0.5630  0.1896 -0.7797
 6520TIP3    H141051   3.381   1.407  -0.024  2.4573 -0.0084 -0.1887
 6520TIP3    H241052   3.446   1.476   0.094 -1.4964 -0.2717  2.2329
 6521TIP3   OH241053   5.612   1.808   5.788 -0.6629 -0.1346  0.1531
 6521TIP3    H141054   5.562   1.889   5.802  0.1543  0.2954  0.6307
 6521TIP3    H241055   5.698   1.839   5.758 -0.4168 -0.8396  0.1364
 6522TIP3   OH241056   6.064   1.763   4.720 -0.2218 -0.8704 -0.6767
 6522TIP3    H141057   5.998   1.711   4.765  0.0112  0.5235  1.3285
 6522TIP3    H241058   6.142   1.707   4.720 -0.8712 -1.8004 -1.4575
 6523TIP3   OH241059   2.850   5.144  14.343 -0.1384 -0.0113  0.3857
 6523TIP3    H141060   2.761   5.136  14.309  0.2344  0.3406 -0.7251
 6523TIP3    H241061   2.884   5.054  14.343 -1.0446 -0.3725  2.4130
 6524TIP3   OH241062   6.101   2.508  12.452  0.2860 -0.3537  0.0087
 6524TIP3    H141063   6.142   2.563  12.519  1.1653 -0.7941 -0.1526
 6524TIP3    H241064   6.122   2.551  12.369  0.3015 -0.5007 -0.0644
 6525TIP3   OH241065   2.257   3.909   6.110 -0.1497  0.4921 -0.2933
 6525TIP3    H141066   2.255   3.925   6.205 -0.9026  0.7702 -0.3550
 6525TIP3    H241067   2.344   3.871   6.094  0.5565  1.8384  0.2864
 6526TIP3   OH241068   1.839   6.032  11.376 -0.0668  0.4022  0.1416
 6526TIP3    H141069   1.931   6.031  11.403 -0.5381  1.1809  1.8546
 6526TIP3    H241070   1.793   5.983  11.444 -1.3892  3.1293  1.3084
 6527TIP3   OH241071   2.763   5.095  15.774 -0.5460 -0.5705 -0.6445
 6527TIP3    H141072   2.771   5.002  15.752 -0.2861 -0.6258 -0.3123
 6527TIP3    H241073   2.815   5.140  15.708  0.3461 -0.7463 -0.0619
 6528TIP3   OH241074   1.545   0.365  16.385  0.2244 -0.5009  0.5732
 6528TIP3    H141075   1.527   0.282  16.342  1.0746 -0.7050  0.5972
 6528TIP3    H241076   1.512   0.354  16.474 -0.8253 -0.3541  0.2092
 6529TIP3   OH241077   1.768   3.380  12.862 -0.3088  0.5996  0.4595
 6529TIP3    H141078   1.862   3.389  12.851 -0.3446 -0.0898 -0.4212
 6529TIP3    H241079   1.741   3.461  12.906  0.9210  0.0689  2.2297
 6530TIP3   OH241080   4.907   5.982  12.890  0.4445 -0.0862  0.1904
 6530TIP3    H141081   4.916   5.953  12.799 -1.0569  0.9093 -0.2943
 6530TIP3    H241082   4.954   6.066  12.893  1.5586 -0.7135  0.6595
 6531TIP3   OH241083   1.397   5.615   3.124 -0.4359  0.4727  0.1252
 6531TIP3    H141084   1.461   5.554   3.159  0.1714  1.0514  0.0306
 6531TIP3    H241085   1.339   5.561   3.070 -1.0665 -0.3295  1.5887
 6532TIP3   OH241086   6.048   3.672  13.672  0.3215  0.1897  0.4106
 6532TIP3    H141087   6.086   3.700  13.755  1.4912 -1.8382  0.6101
 6532TIP3    H241088   6.122   3.670  13.611 -0.6989  2.6529 -0.9915
 6533TIP3   OH241089   6.238   3.784   3.496 -0.2917  0.0577  0.0845
 6533TIP3    H141090   6.263   3.691   3.497  1.2786  0.4652 -0.1319
 6533TIP3    H241091   6.222   3.805   3.588  1.6035  0.1444  0.4159
 6534TIP3   OH241092   1.419   3.820  13.693 -0.2872  0.0207  0.7079
 6534TIP3    H141093   1.418   3.896  13.636  0.1293 -0.7565 -0.3617
 6534TIP3    H241094   1.328   3.805  13.717 -0.6338 -0.4799 -0.8953
 6535TIP3   OH241095   4.949   4.657   0.028 -0.2652  0.3065 -0.9898
 6535TIP3    H141096   5.014   4.592   0.056  0.8084  1.9889  0.5285
 6535TIP3    H241097   4.884   4.657   0.099 -1.7712 -1.1111 -2.3326
 6536TIP3   OH241098   5.740   0.950  14.420 -0.0574  0.0251  0.0453
 6536TIP3    H141099   5.753   0.897  14.499  1.0553  0.3596  0.0955
 6536TIP3    H241100   5.665   0.910  14.376  0.1597 -0.9801  0.5820
 6537TIP3   OH241101   4.508   4.147  15.839 -0.1494  0.2286 -0.4862
 6537TIP3    H141102   4.511   4.064  15.791  2.0117  0.6826 -1.1768
 6537TIP3    H241103   4.580   4.199  15.803 -1.8518  2.6606 -0.4859
 6538TIP3   OH241104   4.635   6.183   1.136  0.1007 -0.2870 -0.0793
 6538TIP3    H141105   4.559   6.237   1.113  0.9706 -0.0297 -2.4678
 6538TIP3    H241106   4.702   6.247   1.160  0.8171 -0.3176 -1.9364
 6539TIP3   OH241107   5.597   6.534  17.291  0.1901 -0.4411 -0.0624
 6539TIP3    H141108   5.541   6.456  17.291 -0.6418  0.0585 -3.0799
 6539TIP3    H241109   5.683   6.502  17.264 -0.1195 -0.3671 -1.1719
 6540TIP3   OH241110   6.441   4.885  13.133  0.2008  0.4051  0.1678
 6540TIP3    H141111   6.379   4.958  13.124 -0.1738  0.2650  1.4452
 6540TIP3    H241112   6.406   4.833  13.206  2.3010  0.7996  1.4990
 6541TIP3   OH241113   1.924   4.583  16.795 -0.5311 -0.2787  0.1898
 6541TIP3    H141114   1.862   4.520  16.832 -1.2512  0.1223 -0.3054
 6541TIP3    H241115   2.001   4.577  16.852 -0.1785 -2.3323 -0.4786
 6542TIP3   OH241116   0.523   6.121   2.696  0.5246  0.0298 -0.0333
 6542TIP3    H141117   0.536   6.200   2.645 -0.3211  0.4581  0.3899
 6542TIP3    H241118   0.436   6.089   2.669 -0.0105  0.3689  1.2532
 6543TIP3   OH241119   0.621   1.853   4.531 -0.2681 -0.2731  0.5532
 6543TIP3    H141120   0.553   1.802   4.573 -1.5961  1.3463  0.4291
 6543TIP3    H241121   0.623   1.936   4.580  2.0942 -0.5417  1.0074
 6544TIP3   OH241122   5.943   0.942  15.169  0.1967  0.0567  0.4289
 6544TIP3    H141123   5.923   1.036  15.159 -3.4416 -0.6520  0.3738
 6544TIP3    H241124   5.982   0.935  15.256  0.3348  1.5705  0.5131
 6545TIP3   OH241125   2.244   0.801   6.826 -0.1282  0.1113  0.2608
 6545TIP3    H141126   2.237   0.788   6.731  0.5696 -0.8867  0.3298
 6545TIP3    H241127   2.162   0.767   6.861  0.2897 -1.0422  0.1424
 6546TIP3   OH241128   6.520   0.895  14.692  0.0812 -0.8550 -0.3621
 6546TIP3    H141129   6.443   0.839  14.681  0.2602 -0.7125 -2.5602
 6546TIP3    H241130   6.514   0.958  14.620  2.0137 -0.5710 -0.2949
 6547TIP3   OH241131   5.057   6.257  14.688 -0.0266  0.5423 -0.0277
 6547TIP3    H141132   5.055   6.198  14.614 -0.3514 -0.6703  0.9339
 6547TIP3    H241133   4.974   6.304  14.684  0.8290  1.9814 -1.6058
 6548TIP3   OH241134   4.925   0.895   0.131  0.1474  0.2537 -0.1649
 6548TIP3    H141135   5.012   0.858   0.113 -0.1744 -1.0819  0.9628
 6548TIP3    H241136   4.942   0.966   0.193  0.4070 -0.0986  0.1677
 6549TIP3   OH241137   2.667   4.635   1.919  0.5286  0.0782  0.1886
 6549TIP3    H141138   2.633   4.558   1.874  0.6842 -0.7570  1.4707
 6549TIP3    H241139   2.600   4.657   1.984 -0.5105  2.3366 -1.5838
 6550TIP3   OH241140   4.947   2.264   4.837  0.3305 -0.1853  0.4236
 6550TIP3    H141141   4.972   2.349   4.802 -3.4708  0.4278 -1.0913
 6550TIP3    H241142   4.907   2.284   4.922 -1.4842 -0.2987 -0.3819
 6551TIP3   OH241143   3.555   6.344   1.778 -0.8792 -0.2808  0.3254
 6551TIP3    H141144   3.598   6.281   1.720 -0.9899 -0.2819  0.2448
 6551TIP3    H241145   3.464   6.344   1.749 -0.8099  0.1651  0.1065
 6552TIP3   OH241146   4.276   3.590  11.050 -0.4892  0.0887  0.1803
 6552TIP3    H141147   4.294   3.530  10.978 -0.4530 -0.7528  0.8743
 6552TIP3    H241148   4.298   3.676  11.016  1.6727 -0.5398 -0.0917
 6553TIP3   OH241149   3.088   2.652  12.940 -0.4149 -0.2846  0.4606
 6553TIP3    H141150   3.011   2.652  12.997 -0.2712 -1.0565  0.6699
 6553TIP3    H241151   3.157   2.613  12.994  0.0353  0.1081  0.1662
 6554TIP3   OH241152   6.779   0.587   3.952 -0.1453 -0.8623 -0.0076
 6554TIP3    H141153   6.789   0.533   3.874  1.8418  2.0309 -1.8698
 6554TIP3    H241154   6.689   0.620   3.948 -0.1946 -1.0933 -0.8279
 6555TIP3   OH241155   1.882   4.076  15.663 -0.3037 -0.1418  0.7709
 6555TIP3    H141156   1.908   3.992  15.625  0.5185 -0.5454  2.2058
 6555TIP3    H241157   1.787   4.070  15.673 -0.6489  0.2869 -1.9537
 6556TIP3   OH241158   5.070   0.022   2.397 -0.0878  0.0040  0.1544
 6556TIP3    H141159   5.021  -0.012   2.472 -3.9314 -0.9052 -2.6462
 6556TIP3    H241160   5.055   0.116   2.400 -0.3347 -0.0422  0.4592
 6557TIP3   OH241161   1.975   0.044   3.836 -0.3001 -0.0039  0.1745
 6557TIP3    H141162   2.054   0.035   3.890  0.5245 -3.1619 -1.4264
 6557TIP3    H241163   1.906   0.065   3.898  1.0926 -1.0645  2.1388
 6558TIP3   OH241164   5.916   1.314   2.020 -0.4043 -0.0189 -0.1665
 6558TIP3    H141165   6.005   1.279   2.011 -1.3081 -2.8613  1.2288
 6558TIP3    H241166   5.884   1.323   1.930  0.6616 -0.6685 -0.6175
 6559TIP3   OH241167   0.966   4.820   0.610 -0.1785 -0.2140 -0.4543
 6559TIP3    H141168   0.920   4.896   0.646 -1.0771 -0.4985 -0.9950
 6559TIP3    H241169   0.989   4.767   0.687 -1.9963 -0.7643 -0.2605
 6560TIP3   OH241170   2.507   5.349   6.782 -0.2814 -0.0991 -0.0936
 6560TIP3    H141171   2.553   5.416   6.833 -0.9721 -0.6322  1.2756
 6560TIP3    H241172   2.425   5.391   6.755  1.1707  1.0184 -2.9607
 6561TIP3   OH241173   2.517   5.639   1.148  0.4445 -0.1246  0.2578
 6561TIP3    H141174   2.577   5.644   1.222 -0.5090  1.7293  0.9459
 6561TIP3    H241175   2.441   5.592   1.182  0.2546  0.1980  0.2813
 6562TIP3   OH241176   4.536   4.319   5.865 -0.3140  0.7947  1.5623
 6562TIP3    H141177   4.580   4.386   5.917 -1.5317  2.0692  0.9778
 6562TIP3    H241178   4.457   4.299   5.915  0.1710 -0.4425  1.8748
 6563TIP3   OH241179   1.089   1.590   5.409 -0.2478 -0.4828  0.0859
 6563TIP3    H141180   1.149   1.541   5.353  0.1253  0.8305 -0.6967
 6563TIP3    H241181   1.141   1.609   5.488  0.9797  2.0330 -1.2405
 6564TIP3   OH241182   1.552   6.794  15.493 -0.1528 -0.1253  0.3484
 6564TIP3    H141183   1.517   6.844  15.419 -0.5329  0.0956  0.6714
 6564TIP3    H241184   1.543   6.853  15.568  2.0203  0.3846  0.2419
 6565TIP3   OH241185   5.374   0.755  11.063 -0.6588  0.6206  0.6157
 6565TIP3    H141186   5.340   0.835  11.024 -0.4809 -0.0718 -0.9871
 6565TIP3    H241187   5.313   0.687  11.036 -0.9276  0.2400  2.1435
 6566TIP3   OH241188   6.277   4.147   5.320 -0.4455  0.0773  0.4659
 6566TIP3    H141189   6.350   4.094   5.354 -0.7450 -1.0585 -0.6442
 6566TIP3    H241190   6.227   4.171   5.398 -0.3059 -1.2670  0.9728
 6567TIP3   OH241191   0.873   2.609   4.590 -0.6121 -0.1436 -0.0512
 6567TIP3    H141192   0.839   2.551   4.522  0.1333 -0.4441 -0.1816
 6567TIP3    H241193   0.813   2.598   4.664 -1.2825 -0.0094 -0.5731
 6568TIP3   OH241194   4.655   2.921   4.720 -0.3836 -0.5820  0.2052
 6568TIP3    H141195   4.583   2.926   4.657  0.4827 -1.2892 -0.8752
 6568TIP3    H241196   4.613   2.913   4.805 -1.5853  0.8389 -0.2356
 6569TIP3   OH241197   5.731   3.446   6.374 -0.2123  0.3589 -0.3165
 6569TIP3    H141198   5.736   3.394   6.455  3.0360  0.4976 -0.3780
 6569TIP3    H241199   5.740   3.537   6.404 -2.8453  0.7283 -0.5120
 6570TIP3   OH241200   0.729   4.335  10.952  0.2720  0.2664  0.5170
 6570TIP3    H141201   0.755   4.247  10.980  0.0614  0.6129  1.8576
 6570TIP3    H241202   0.634   4.331  10.944  0.2927  0.2808  0.2702
 6571TIP3   OH241203   1.974   4.395  16.034 -0.0966  0.3044 -0.0021
 6571TIP3    H141204   2.056   4.445  16.041  0.3250 -0.3785  0.0211
 6571TIP3    H241205   1.959   4.361  16.122 -0.1988  0.1193 -0.0901
 6572TIP3   OH241206   4.384   3.301   5.828  0.2522 -0.7042  0.1325
 6572TIP3    H141207   4.382   3.347   5.912  1.9130  0.9862 -0.7106
 6572TIP3    H241208   4.476   3.302   5.803 -0.4264  0.1988 -2.4458
 6573TIP3   OH241209   6.178   2.425   5.538  0.1780 -0.1947 -0.0008
 6573TIP3    H141210   6.218   2.488   5.597 -0.6434  0.4144 -0.0874
 6573TIP3    H241211   6.251   2.388   5.489  0.6163  0.9932 -0.2526
 6574TIP3   OH241212   2.444   1.443   6.202  0.2651 -0.3660  0.0429
 6574TIP3    H141213   2.483   1.505   6.140  1.2012  1.8237  2.6907
 6574TIP3    H241214   2.471   1.476   6.288 -1.1686 -3.1759  1.6266
 6575TIP3   OH241215   0.306   6.105  17.255  0.1443  0.3202  0.5213
 6575TIP3    H141216   0.231   6.067  17.301 -0.0994  0.8672  0.5891
 6575TIP3    H241217   0.283   6.198  17.246  0.5522  0.3720  0.0125
 6576TIP3   OH241218   0.884   2.763  13.768  0.1526 -0.2457 -0.6159
 6576TIP3    H141219   0.834   2.836  13.732  0.1276 -0.9833 -2.1183
 6576TIP3    H241220   0.845   2.748  13.854 -0.6211  0.7450 -0.7796
 6577TIP3   OH241221   3.326   5.846  14.904 -0.2564  0.1001 -0.1345
 6577TIP3    H141222   3.263   5.808  14.844  0.0503  1.7568 -1.5306
 6577TIP3    H241223   3.274   5.901  14.963 -0.3494 -0.1451  0.0132
 6578TIP3   OH241224   3.204   2.846   1.297  1.1344 -0.1102  0.6478
 6578TIP3    H141225   3.241   2.927   1.262 -0.3607  0.4383  0.3006
 6578TIP3    H241226   3.120   2.873   1.336  2.2132 -0.8796  3.6730
 6579TIP3   OH241227   3.797   3.255   0.412  0.2722 -0.0444 -0.0045
 6579TIP3    H141228   3.883   3.296   0.403 -0.7032  1.8039 -1.3278
 6579TIP3    H241229   3.773   3.231   0.322 -0.5623 -0.6231  0.3699
 6580TIP3   OH241230   0.953   0.445   5.193 -0.3723 -0.2345 -0.1013
 6580TIP3    H141231   0.913   0.359   5.176 -1.9779  0.6216 -0.7653
 6580TIP3    H241232   1.044   0.435   5.167 -0.6458 -1.6340 -0.5478
 6581TIP3   OH241233   1.970   4.424   0.537 -0.0598  0.9178 -0.1029
 6581TIP3    H141234   1.998   4.460   0.621  1.1751 -1.6693  0.6418
 6581TIP3    H241235   2.040   4.363   0.513 -2.0634 -0.9556 -1.3126
 6582TIP3   OH241236   1.970   2.689  14.622 -0.3091 -0.2060 -0.3412
 6582TIP3    H141237   1.916   2.767  14.629 -1.1424 -0.9170  1.6626
 6582TIP3    H241238   2.059   2.720  14.635 -0.5663  0.4971 -0.2271
 6583TIP3   OH241239   2.856   5.764  16.479  0.6906  0.8590 -0.3415
 6583TIP3    H141240   2.788   5.768  16.546 -0.2653  1.7040 -1.3217
 6583TIP3    H241241   2.885   5.855  16.469  0.5766  0.7968 -1.3044
 6584TIP3   OH241242   4.204   4.831  17.223 -0.2771 -0.3180  0.1677
 6584TIP3    H141243   4.164   4.751  17.259 -0.0374  0.4646  2.2466
 6584TIP3    H241244   4.291   4.804  17.195 -0.9201 -1.2255 -1.0164
 6585TIP3   OH241245   2.020   3.514   5.632  0.1515 -0.2811 -0.0384
 6585TIP3    H141246   2.079   3.495   5.559  1.6501 -2.1745  1.5967
 6585TIP3    H241247   1.965   3.436   5.639 -0.4986  0.2111  0.3840
 6586TIP3   OH241248   0.348   2.831   0.938  0.7098  0.2916 -0.0657
 6586TIP3    H141249   0.278   2.867   0.993  1.3247 -0.0545  0.9442
 6586TIP3    H241250   0.412   2.796   1.000  0.5291 -1.7880 -1.0191
 6587TIP3   OH241251   1.633   3.601  12.240 -0.0274 -0.0786 -0.0096
 6587TIP3    H141252   1.571   3.567  12.304 -0.1160 -1.2155 -0.6904
 6587TIP3    H241253   1.687   3.664  12.289 -1.3222  0.4728  0.7137
 6588TIP3   OH241254   6.221   3.718  15.061 -0.5788  0.3518  0.0878
 6588TIP3    H141255   6.276   3.794  15.080  0.5123 -0.2136 -0.7658
 6588TIP3    H241256   6.269   3.643  15.095 -1.3774 -0.0311  0.3922
 6589TIP3   OH241257   0.367   0.940  16.671 -0.1504  0.0610  0.5645
 6589TIP3    H141258   0.411   0.967  16.751 -0.0266 -1.6482  1.1052
 6589TIP3    H241259   0.437   0.936  16.606 -0.4795  2.7748  0.0058
 6590TIP3   OH241260   3.444   4.854   3.040 -0.5844 -0.1512 -0.3264
 6590TIP3    H141261   3.439   4.846   3.136 -0.9495  2.4816 -0.1022
 6590TIP3    H241262   3.526   4.809   3.018 -1.0192 -1.7162  1.0869
 6591TIP3   OH241263   1.246   2.098  11.780 -0.0639  0.3018  0.6554
 6591TIP3    H141264   1.160   2.139  11.771 -0.3947 -0.7022 -0.8829
 6591TIP3    H241265   1.300   2.140  11.713  0.0226 -0.6452  0.1210
 6592TIP3   OH241266   1.975   4.462   3.897  0.0756  0.3054  0.4002
 6592TIP3    H141267   2.007   4.483   3.809 -0.8783  1.1514  0.2467
 6592TIP3    H241268   2.054   4.456   3.951  0.6429  0.1222 -0.4394
 6593TIP3   OH241269   6.632   1.754   4.640  0.2656  0.7630  0.4292
 6593TIP3    H141270   6.571   1.736   4.568 -1.0290 -0.2423  1.7563
 6593TIP3    H241271   6.661   1.844   4.625 -0.1984  0.6559 -1.1947
 6594TIP3   OH241272   4.457   2.547  11.303 -0.3109  0.2298 -0.2436
 6594TIP3    H141273   4.527   2.485  11.324  2.1971  3.1811  0.4546
 6594TIP3    H241274   4.428   2.521  11.215  1.4639 -1.2002 -0.4330
 6595TIP3   OH241275   0.920   1.258   5.663 -0.2616  0.2749 -0.1468
 6595TIP3    H141276   0.830   1.262   5.696 -0.6289  1.4441 -1.2581
 6595TIP3    H241277   0.959   1.184   5.709 -1.6732  0.0076  0.6449
 6596TIP3   OH241278   2.526   1.089   0.485 -0.0510  0.1587 -0.2353
 6596TIP3    H141279   2.449   1.083   0.427  1.7713 -2.6518 -2.5047
 6596TIP3    H241280   2.491   1.071   0.572 -1.8442 -2.3572 -1.3864
 6597TIP3   OH241281   3.170   2.910   4.775  0.2912  0.2641 -0.1445
 6597TIP3    H141282   3.172   2.816   4.796  1.3114  0.2526 -0.2736
 6597TIP3    H241283   3.148   2.912   4.682  0.5340  0.1467 -0.2042
 6598TIP3   OH241284   0.463   4.768   2.798  0.1079 -0.3241 -0.1896
 6598TIP3    H141285   0.441   4.859   2.776 -0.8546 -0.5536 -0.1889
 6598TIP3    H241286   0.525   4.742   2.730 -0.0637  0.1453 -0.5288
 6599TIP3   OH241287   5.203   4.072  11.132 -0.5298  0.3333 -0.0862
 6599TIP3    H141288   5.210   4.153  11.182  0.9715 -0.3128  0.8046
 6599TIP3    H241289   5.129   4.026  11.171 -0.3488  0.5372  0.5111
 6600TIP3   OH241290   3.798   1.694   4.435  0.2863 -0.1950 -0.0016
 6600TIP3    H141291   3.889   1.683   4.465  0.9450  2.9516 -0.6085
 6600TIP3    H241292   3.759   1.751   4.501 -1.3712 -1.7465  0.3843
 6601TIP3   OH241293   6.769   0.471  15.835 -0.4326 -0.1535 -0.0610
 6601TIP3    H141294   6.747   0.396  15.891 -0.7204 -0.5575 -0.7013
 6601TIP3    H241295   6.690   0.525  15.836 -2.3308 -2.5864 -3.9358
 6602TIP3   OH241296   1.036   0.932   1.786 -0.1234  0.1417 -0.0164
 6602TIP3    H141297   1.034   0.945   1.691 -1.0610 -2.5521 -0.4281
 6602TIP3    H241298   0.948   0.956   1.815 -0.3703 -0.6001 -0.1121
 6603TIP3   OH241299   4.833   4.360  12.597 -0.4749  0.0586  0.3398
 6603TIP3    H141300   4.833   4.448  12.634 -0.7853 -1.1705  3.4100
 6603TIP3    H241301   4.914   4.321  12.628 -0.9505 -1.1648  0.0570
 6604TIP3   OH241302   5.524   3.264  10.793  0.5967 -0.1330  0.9387
 6604TIP3    H141303   5.489   3.178  10.815  0.2813  0.3732  2.5025
 6604TIP3    H241304   5.605   3.246  10.747 -0.8589 -1.2977 -1.2346
 6605TIP3   OH241305   2.420   3.937   2.647  0.2548  0.1960  0.2801
 6605TIP3    H141306   2.443   3.872   2.713  0.8776  1.4658  1.3381
 6605TIP3    H241307   2.368   4.002   2.694  0.8299  1.1841 -0.4364
 6606TIP3   OH241308   5.047   1.005   3.847  0.6549  0.1319 -0.1846
 6606TIP3    H141309   5.079   0.944   3.914  0.4847  0.3140  0.0626
 6606TIP3    H241310   5.114   1.072   3.842  1.0786 -0.3281 -0.8044
 6607TIP3   OH241311   3.102   3.076   1.464 -0.1221 -0.0978 -0.0189
 6607TIP3    H141312   3.021   3.033   1.437  0.3651 -1.1558  0.1895
 6607TIP3    H241313   3.085   3.169   1.450 -1.1645 -0.3539 -0.5261
 6608TIP3   OH241314   0.257   0.182   3.132  0.1083  0.1476  0.0091
 6608TIP3    H141315   0.186   0.122   3.152  0.0929  0.8540  2.2465
 6608TIP3    H241316   0.301   0.197   3.216  0.2488  3.0541 -0.5061
 6609TIP3   OH241317   0.496   4.813   3.989 -0.6721 -0.2010  0.3935
 6609TIP3    H141318   0.467   4.898   4.024  0.7164 -0.1803  1.5389
 6609TIP3    H241319   0.476   4.751   4.059  1.1638 -0.3291  0.8169
 6610TIP3   OH241320   0.179   6.784   5.708  0.1339  0.1039 -0.5199
 6610TIP3    H141321   0.119   6.747   5.643  0.7631 -1.0365 -0.4594
 6610TIP3    H241322   0.163   6.878   5.703 -2.1757 -0.2257  0.0041
 6611TIP3   OH241323   3.509   0.647   4.903 -0.0566  0.4273 -0.4591
 6611TIP3    H141324   3.427   0.691   4.880 -0.0017  2.0155  2.1436
 6611TIP3    H241325   3.483   0.556   4.919 -1.1162  0.6715 -0.7302
 6612TIP3   OH241326   0.389   3.161   1.635 -0.2245  0.1392  0.2557
 6612TIP3    H141327   0.438   3.218   1.694  0.1900 -0.9283  0.9630
 6612TIP3    H241328   0.318   3.126   1.690  0.8771 -1.8105  0.4700
 6613TIP3   OH241329   0.710   6.475   2.238 -0.3288  0.2980 -0.1111
 6613TIP3    H141330   0.648   6.499   2.170  0.2466  1.0053 -0.3878
 6613TIP3    H241331   0.678   6.519   2.317  0.3122  1.4162 -0.4545
 6614TIP3   OH241332   3.178   5.844   2.453  0.3032  0.1616 -0.0661
 6614TIP3    H141333   3.152   5.801   2.372  2.7733 -2.6416  0.5561
 6614TIP3    H241334   3.273   5.856   2.444  0.4119  0.9077  1.9222
 6615TIP3   OH241335   3.710   1.378   6.105 -0.2721 -0.0554  0.0416
 6615TIP3    H141336   3.787   1.328   6.131 -1.2207 -1.8949 -0.6027
 6615TIP3    H241337   3.741   1.434   6.034  0.9024  0.5889  1.0561
 6616TIP3   OH241338   1.120   4.784  15.993 -0.4995 -0.5400 -0.6562
 6616TIP3    H141339   1.183   4.785  16.065  0.4831  1.4050 -1.5022
 6616TIP3    H241340   1.172   4.805  15.915 -2.2690  1.9194 -1.2546
 6617TIP3   OH241341   5.881   2.460  11.113 -0.2785  0.2892 -0.2092
 6617TIP3    H141342   5.818   2.479  11.045  0.3151  1.1856 -0.5198
 6617TIP3    H241343   5.877   2.536  11.172 -0.4646 -0.2689  0.5002
 6618TIP3   OH241344   4.389   0.965  11.483 -0.6665 -0.2618 -0.2215
 6618TIP3    H141345   4.350   0.900  11.425  0.0072 -1.6846  0.8862
 6618TIP3    H241346   4.315   1.001  11.532 -0.9770 -0.6620 -0.3904
 6619TIP3   OH241347   4.023   6.558  12.520  0.0922  0.3529  0.3604
 6619TIP3    H141348   3.970   6.635  12.541 -1.5743 -0.2099 -1.6293
 6619TIP3    H241349   3.986   6.488  12.573  0.3530  0.4821  0.7138
 6620TIP3   OH241350   3.243   5.340  16.836  0.2589  0.1072 -0.0997
 6620TIP3    H141351   3.174   5.371  16.894  0.7356 -0.7813  0.9797
 6620TIP3    H241352   3.247   5.245  16.853  0.7359 -0.0804 -1.2310
 6621TIP3   OH241353   1.024   6.694   1.571 -0.0635 -0.1185 -0.6782
 6621TIP3    H141354   1.098   6.643   1.605 -0.4641 -0.3582 -0.1685
 6621TIP3    H241355   0.947   6.639   1.587 -0.3204  0.0238 -1.4419
 6622TIP3   OH241356   1.454   6.041  12.571  0.0185 -0.2748  0.0164
 6622TIP3    H141357   1.377   6.041  12.514  0.7138  1.2931 -0.9495
 6622TIP3    H241358   1.418   6.046  12.660 -1.0101 -0.4905 -0.3797
 6623TIP3   OH241359   1.567   5.477   5.128 -0.3946 -0.0787 -0.6613
 6623TIP3    H141360   1.623   5.528   5.187 -0.6373 -0.9310  0.3342
 6623TIP3    H241361   1.505   5.541   5.093 -1.3981  0.1412  1.4147
 6624TIP3   OH241362   0.058   3.602   0.778  0.0482  0.0143  1.1013
 6624TIP3    H141363   0.080   3.511   0.800  0.5680 -0.1332  0.0138
 6624TIP3    H241364  -0.026   3.596   0.732  1.4115 -0.2227 -1.4161
 6625TIP3   OH241365   4.889   6.297   3.765  0.3017 -0.1168  0.0700
 6625TIP3    H141366   4.943   6.280   3.688  1.7658 -2.7900  1.6127
 6625TIP3    H241367   4.875   6.392   3.764 -0.8082 -0.2311 -4.1510
 6626TIP3   OH241368   2.548   3.983   1.162 -0.2063 -0.5390 -0.1810
 6626TIP3    H141369   2.622   3.923   1.152 -0.0191  0.2193 -3.7384
 6626TIP3    H241370   2.483   3.953   1.099 -1.4573  1.0306  0.3196
 6627TIP3   OH241371   4.188   3.072  13.636  0.2550 -0.3813  0.2800
 6627TIP3    H141372   4.098   3.044  13.655 -0.0220  1.0121  1.0353
 6627TIP3    H241373   4.226   2.998  13.589 -1.0995 -1.2301  0.4924
 6628TIP3   OH241374   0.684   4.751   3.222 -0.1572 -0.2610 -0.3937
 6628TIP3    H141375   0.755   4.690   3.200  0.0646 -0.0419 -0.2771
 6628TIP3    H241376   0.712   4.792   3.304 -0.0636  0.3847 -0.7463
 6629TIP3   OH241377   3.244   5.462   3.182 -0.2221 -0.2795  0.8846
 6629TIP3    H141378   3.249   5.487   3.090 -1.1062  0.2732  0.9866
 6629TIP3    H241379   3.220   5.369   3.180 -0.1735 -0.2864  0.5613
 6630TIP3   OH241380   3.619   4.757   4.598 -0.2444  0.4541  0.2559
 6630TIP3    H141381   3.601   4.704   4.675  0.0028  2.5367  1.8003
 6630TIP3    H241382   3.637   4.844   4.633 -0.2480  1.4659 -2.1751
 6631TIP3   OH241383   3.589   0.322  14.909 -0.2296 -0.3485  0.0423
 6631TIP3    H141384   3.548   0.304  14.825 -0.7671 -0.8146  0.4027
 6631TIP3    H241385   3.537   0.394  14.946 -0.6352 -0.8425  0.4353
 6632TIP3   OH241386   3.187   1.821  13.481  0.2014 -0.3583  0.4360
 6632TIP3    H141387   3.256   1.813  13.547  0.3299 -0.9859  0.2321
 6632TIP3    H241388   3.109   1.788  13.526  0.1697 -0.2403  0.4666
 6633TIP3   OH241389   0.010   4.057   1.164 -0.3545 -0.1166 -0.2480
 6633TIP3    H141390  -0.070   4.008   1.183  0.7593 -2.6492 -1.9956
 6633TIP3    H241391   0.054   4.064   1.249 -1.2780 -0.7690  0.2949
 6634TIP3   OH241392   1.832   5.496  16.985  0.6738  0.0863  0.3240
 6634TIP3    H141393   1.875   5.431  16.930  1.3122  1.7619 -1.2302
 6634TIP3    H241394   1.781   5.445  17.048  0.5186 -1.9076 -1.3540
 6635TIP3   OH241395   0.720   2.529  11.440 -0.9354 -0.1875  0.1561
 6635TIP3    H141396   0.629   2.540  11.468 -0.5981  0.4283  1.0238
 6635TIP3    H241397   0.740   2.609  11.391 -1.1213 -0.6970 -0.7633
 6636TIP3   OH241398   4.078   3.431  13.301 -0.0307 -0.0194  0.6285
 6636TIP3    H141399   4.005   3.371  13.286 -0.7378  0.1950  3.0780
 6636TIP3    H241400   4.139   3.382  13.356  0.9954  0.3244 -0.1862
 6637TIP3   OH241401   5.771   6.576  12.357  0.3863  0.5308  0.4940
 6637TIP3    H141402   5.837   6.538  12.299  0.4042  1.2037  0.0770
 6637TIP3    H241403   5.717   6.631  12.300  0.5244  1.3615  1.1527
 6638TIP3   OH241404   2.618   5.940   5.713  0.5053 -0.1898  0.3061
 6638TIP3    H141405   2.559   5.886   5.765  0.0896 -0.7860 -0.7844
 6638TIP3    H241406   2.568   6.019   5.692  0.6728  0.0502  0.7903
 6639TIP3   OH241407   0.931   1.416   1.632 -0.1004  0.2182  0.0183
 6639TIP3    H141408   1.013   1.395   1.677  0.7440  0.8382 -1.2292
 6639TIP3    H241409   0.947   1.395   1.540 -1.1811  0.8090 -0.3140
 6640TIP3   OH241410   2.407   4.094  12.230 -0.0305 -0.8236  0.2919
 6640TIP3    H141411   2.456   4.017  12.259 -1.4820 -2.5585 -1.6821
 6640TIP3    H241412   2.327   4.058  12.191 -0.2466  1.6125 -1.6285
 6641TIP3   OH241413   2.017   4.677  14.482 -0.1272  0.0321  0.2069
 6641TIP3    H141414   2.068   4.604  14.445  0.5231  0.5642  0.0523
 6641TIP3    H241415   1.996   4.732  14.406 -1.7520 -0.6731  0.1226
 6642TIP3   OH241416   6.031   0.500   4.390  0.4767  0.7787  0.1010
 6642TIP3    H141417   6.021   0.529   4.481  2.0550  0.0554  0.5230
 6642TIP3    H241418   6.073   0.414   4.397  0.0589  0.4510 -1.2968
 6643TIP3   OH241419   2.920   0.677   1.237 -0.1368 -0.0378  0.4345
 6643TIP3    H141420   2.990   0.682   1.302 -0.0484  0.8684  0.2725
 6643TIP3    H241421   2.854   0.620   1.277  0.9607 -1.3804  0.3286
 6644TIP3   OH241422   3.286   1.542  14.034  0.1958  0.3626  0.4286
 6644TIP3    H141423   3.326   1.570  14.116  1.1560 -2.4192  0.9368
 6644TIP3    H241424   3.194   1.569  14.043  0.6953  1.7889  1.5824
 6645TIP3   OH241425   1.666   6.582  14.183 -0.8588 -0.0517 -0.1857
 6645TIP3    H141426   1.641   6.507  14.130  0.5464 -0.7824  0.1773
 6645TIP3    H241427   1.755   6.603  14.155 -0.0518 -0.5340  1.9561
 6646TIP3   OH241428   4.715   1.317   2.464  0.4327 -0.6575  0.6081
 6646TIP3    H141429   4.709   1.412   2.464 -1.3328 -0.7576 -1.6388
 6646TIP3    H241430   4.807   1.299   2.442  1.0027  0.4823  1.9156
 6647TIP3   OH241431   3.300   3.795   3.184  0.4915  0.2177 -0.2444
 6647TIP3    H141432   3.265   3.852   3.116  2.3190 -0.2765 -1.6147
 6647TIP3    H241433   3.395   3.801   3.175  0.7249 -2.5363 -0.0033
 6648TIP3   OH241434   5.036   2.598  13.529  0.0764 -0.9752  0.7397
 6648TIP3    H141435   5.029   2.529  13.463 -1.2889 -0.1193 -0.0236
 6648TIP3    H241436   5.088   2.558  13.599 -0.2745 -2.6101  0.1003
 6649TIP3   OH241437   6.371   0.341  13.492  0.0925  0.6549  0.4353
 6649TIP3    H141438   6.352   0.318  13.583 -0.1176  1.2772  0.5529
 6649TIP3    H241439   6.440   0.280  13.466  0.0576  0.3815  0.9653
 6650TIP3   OH241440   1.125   3.976  16.376  0.5644 -0.1074 -0.2613
 6650TIP3    H141441   1.032   3.952  16.380  0.0991  1.5612 -0.8499
 6650TIP3    H241442   1.142   3.988  16.283  0.8046  1.7057 -0.0004
 6651TIP3   OH241443   4.206   1.025   0.128 -0.0763  0.3847  0.1680
 6651TIP3    H141444   4.130   0.968   0.142 -0.7280  0.8720 -1.2314
 6651TIP3    H241445   4.222   1.065   0.214 -0.4301 -0.8972  0.8460
 6652TIP3   OH241446   4.314   3.693   4.921 -0.6211 -0.2534  0.4798
 6652TIP3    H141447   4.330   3.699   5.015 -0.0165 -0.7727  0.4099
 6652TIP3    H241448   4.361   3.767   4.883  0.7042 -1.1343  0.3902
 6653TIP3   OH241449   0.751   1.369   4.722 -0.2441 -0.5512  0.0639
 6653TIP3    H141450   0.756   1.383   4.817  2.8636  1.6154 -0.3338
 6653TIP3    H241451   0.832   1.323   4.701 -0.6153 -0.4439 -1.6418
 6654TIP3   OH241452   2.853   6.731  10.992  0.0811  1.0930 -0.2518
 6654TIP3    H141453   2.864   6.639  10.970 -1.0402  0.6131  1.1435
 6654TIP3    H241454   2.856   6.777  10.908 -1.2414 -0.3943 -1.1198
 6655TIP3   OH241455   6.708   2.520  15.820 -0.0112  0.4679 -0.0465
 6655TIP3    H141456   6.720   2.512  15.914 -1.0587  0.7282  0.1226
 6655TIP3    H241457   6.742   2.607  15.799  1.4269 -0.1030 -0.1343
 6656TIP3   OH241458   2.643   5.958   3.805 -0.7669  0.4398 -0.3209
 6656TIP3    H141459   2.733   5.989   3.814 -0.8708  1.2463 -1.8802
 6656TIP3    H241460   2.649   5.863   3.808  0.1467  0.4922 -0.4699
 6657TIP3   OH241461   4.598   4.443   0.772 -0.3532 -0.3912 -0.0114
 6657TIP3    H141462   4.525   4.382   0.764  0.8973 -1.9721  0.2090
 6657TIP3    H241463   4.662   4.412   0.708 -0.0962  1.3108 -0.6069
 6658TIP3   OH241464   3.652   0.678  12.346  0.0088  0.2163 -0.4288
 6658TIP3    H141465   3.658   0.649  12.256 -0.2209  1.2043 -0.7676
 6658TIP3    H241466   3.577   0.630  12.382  0.6774 -0.8947 -0.4697
 6659TIP3   OH241467   6.769   3.949   0.078 -0.5526 -0.0288  0.8532
 6659TIP3    H141468   6.864   3.937   0.069 -0.5922 -0.0265  0.4384
 6659TIP3    H241469   6.761   4.028   0.133 -0.3127 -0.8632  2.1136
 6660TIP3   OH241470   0.628   2.660  15.742  0.3543  0.6402  0.7453
 6660TIP3    H141471   0.552   2.695  15.790  0.6137 -0.7863  2.2591
 6660TIP3    H241472   0.605   2.670  15.650 -3.4943 -3.4854  1.1088
 6661TIP3   OH241473   3.170   2.822  10.612  0.3264 -0.0344 -0.6329
 6661TIP3    H141474   3.087   2.870  10.619  0.7011  0.5409 -0.1057
 6661TIP3    H241475   3.144   2.733  10.587 -0.6294 -0.4134  1.5746
 6662TIP3   OH241476   1.508   3.583  12.496 -0.3279  0.1321  0.7591
 6662TIP3    H141477   1.583   3.622  12.542 -0.2439  0.9670 -0.0708
 6662TIP3    H241478   1.494   3.499  12.540  2.1004 -0.7688 -0.0594
 6663TIP3   OH241479   2.845   2.617  12.114 -0.4353  0.0946  0.4106
 6663TIP3    H141480   2.850   2.546  12.050 -2.2814 -0.3127  0.6987
 6663TIP3    H241481   2.936   2.635  12.136  0.3231  0.9867 -3.1387
 6664TIP3   OH241482   4.543   5.405   2.838  0.4192  0.0781  0.3859
 6664TIP3    H141483   4.478   5.368   2.779  2.3752 -2.1215 -0.4721
 6664TIP3    H241484   4.589   5.471   2.787 -0.6677  1.1524  0.7828
 6665TIP3   OH241485   6.292   6.491  11.887 -0.3510 -0.0517  0.1509
 6665TIP3    H141486   6.366   6.438  11.857  0.8813  1.8420 -0.2326
 6665TIP3    H241487   6.330   6.577  11.905 -2.2580  0.6204  1.0487
 6666TIP3   OH241488   4.309   5.286   4.033 -0.3814  0.3999 -0.5381
 6666TIP3    H141489   4.245   5.357   4.027  0.0651  0.6760 -2.4665
 6666TIP3    H241490   4.255   5.207   4.042 -0.9176  0.8347  0.1547
 6667TIP3   OH241491   4.866   0.418  10.462  0.9283 -0.0475 -0.4419
 6667TIP3    H141492   4.846   0.487  10.526  2.1919  0.8125 -0.9345
 6667TIP3    H241493   4.782   0.380  10.439  0.4234 -0.1225  1.4723
 6668TIP3   OH241494   1.284   2.550  10.458  0.0609  0.1538  0.0536
 6668TIP3    H141495   1.332   2.474  10.491  0.7667  1.0044  1.0245
 6668TIP3    H241496   1.319   2.624  10.508 -1.1021  1.0212 -0.3876
 6669TIP3   OH241497   2.291   0.153   0.055  0.1065  0.1899 -0.4978
 6669TIP3    H141498   2.368   0.171   0.108  0.3910 -0.1378 -0.7976
 6669TIP3    H241499   2.217   0.161   0.116  0.4046  0.1149 -0.1259
 6670TIP3   OH241500   5.794   2.891   2.219  0.2803  1.2749 -0.1763
 6670TIP3    H141501   5.847   2.968   2.240  0.1191  1.4722 -0.4803
 6670TIP3    H241502   5.704   2.923   2.224  0.2641  1.7444 -2.7265
 6671TIP3   OH241503   1.281   2.040   0.893  0.3825 -0.0229 -0.2218
 6671TIP3    H141504   1.195   2.041   0.936 -0.4301  0.8641 -1.8495
 6671TIP3    H241505   1.312   2.131   0.899  0.6892 -0.0971 -0.6739
 6672TIP3   OH241506   4.132   0.474   3.284 -0.0323 -0.1379  0.4905
 6672TIP3    H141507   4.092   0.423   3.213  0.1441 -2.0959  1.7647
 6672TIP3    H241508   4.060   0.491   3.345  0.2636 -0.2770  0.8756
 6673TIP3   OH241509   0.528   4.690  14.248  0.2356  0.2794 -0.6849
 6673TIP3    H141510   0.475   4.640  14.186 -0.9014  1.0524 -0.3395
 6673TIP3    H241511   0.611   4.703  14.203  0.1452 -0.9234 -1.2400
 6674TIP3   OH241512   1.516   2.865  15.479  0.2119 -0.3724 -0.8766
 6674TIP3    H141513   1.507   2.872  15.384 -1.8767  0.6557 -0.6223
 6674TIP3    H241514   1.494   2.952  15.512  0.3723 -0.8743  0.5939
 6675TIP3   OH241515   6.719   5.380   4.113 -0.3630  0.6558  0.3322
 6675TIP3    H141516   6.664   5.440   4.063  1.4625  1.4001 -0.8570
 6675TIP3    H241517   6.761   5.435   4.180  0.4573  0.5083 -0.0481
 6676TIP3   OH241518   6.616   6.408  14.012 -0.1642  0.2847 -0.4662
 6676TIP3    H141519   6.536   6.405  14.064 -0.0890 -2.0840 -0.4522
 6676TIP3    H241520   6.679   6.355  14.062  0.9500  0.8546 -1.2438
 6677TIP3   OH241521   5.491   2.727  16.126 -0.3515 -0.6305  0.3480
 6677TIP3    H141522   5.408   2.684  16.148 -0.3840 -0.1659  1.1426
 6677TIP3    H241523   5.466   2.818  16.109 -0.1606 -0.7369 -0.5015
 6678TIP3   OH241524   4.200   6.415  16.917 -0.0002 -0.6868 -0.4140
 6678TIP3    H141525   4.226   6.357  16.846 -0.6899 -0.2632 -1.0123
 6678TIP3    H241526   4.268   6.403  16.983 -0.3824 -2.5453 -0.3192
 6679TIP3   OH241527   4.044   4.644  11.032  0.0797 -0.3768  0.4011
 6679TIP3    H141528   4.117   4.702  11.056 -0.7400  0.6349  0.5109
 6679TIP3    H241529   4.035   4.656  10.938 -0.9194  0.6728  0.6220
 6680TIP3   OH241530   0.862   3.706   1.469 -0.0940 -0.5994 -0.2375
 6680TIP3    H141531   0.949   3.694   1.509 -0.0177 -3.1416 -1.0841
 6680TIP3    H241532   0.800   3.685   1.539 -0.1444  3.0591  0.9523
 6681TIP3   OH241533   2.825   5.869  13.616 -0.3188  0.4041  0.0487
 6681TIP3    H141534   2.809   5.848  13.708  1.2381 -1.6259 -0.1182
 6681TIP3    H241535   2.741   5.903  13.584 -1.9260 -2.2056  1.3145
 6682TIP3   OH241536   3.477   0.257  16.893  0.5906 -0.7166  0.1713
 6682TIP3    H141537   3.411   0.284  16.958  0.3927 -2.2797  0.6298
 6682TIP3    H241538   3.533   0.195  16.940  2.5763  0.7847 -0.1378
 6683TIP3   OH241539   4.624   2.153  16.875  0.1046  0.0678 -0.3861
 6683TIP3    H141540   4.570   2.132  16.951 -0.4378 -1.9718 -1.2910
 6683TIP3    H241541   4.561   2.172  16.805  0.5395 -0.9516 -1.0781
 6684TIP3   OH241542   4.214   5.879   0.163 -0.0716  0.1149  0.1785
 6684TIP3    H141543   4.163   5.953   0.131  0.4341  0.0049 -0.8899
 6684TIP3    H241544   4.265   5.850   0.088 -0.8965 -1.8565  0.3480
 6685TIP3   OH241545   3.209   5.960  12.285 -0.4686 -0.0750  0.5180
 6685TIP3    H141546   3.265   5.958  12.363 -0.6612 -0.1999  0.6521
 6685TIP3    H241547   3.175   5.871  12.278  0.3754 -0.3521 -0.3069
 6686TIP3   OH241548   1.699   4.164  14.711  0.2175  0.2047 -0.8630
 6686TIP3    H141549   1.785   4.129  14.732 -0.3751 -1.3399 -0.9571
 6686TIP3    H241550   1.638   4.110  14.762 -0.7410  0.8422 -1.3216
 6687TIP3   OH241551   2.886   1.998  11.978  0.1093 -0.7360  0.3412
 6687TIP3    H141552   2.807   2.027  12.023  0.5452  1.3803 -0.1936
 6687TIP3    H241553   2.952   2.064  12.001  1.7062 -2.3829  0.6744
 6688TIP3   OH241554   5.206   1.375  15.819  0.4337 -0.1178 -0.2352
 6688TIP3    H141555   5.225   1.451  15.874 -0.0845 -1.2191  1.4923
 6688TIP3    H241556   5.112   1.381  15.802  0.5157 -0.0078 -0.6488
 6689TIP3   OH241557   3.326   3.172  13.246  0.8729  0.1504  0.2991
 6689TIP3    H141558   3.342   3.182  13.339  0.0223 -0.1402  0.4817
 6689TIP3    H241559   3.240   3.129  13.240  1.0278 -0.0550 -0.6047
 6690TIP3   OH241560   6.725   4.509  13.822  0.2655  0.3677 -0.3460
 6690TIP3    H141561   6.644   4.556  13.805  1.9605  2.7286 -2.1249
 6690TIP3    H241562   6.792   4.577  13.830  2.2701 -1.5828  0.0727
 6691TIP3   OH241563   0.429   6.076   1.501  0.0018 -0.4833  0.4361
 6691TIP3    H141564   0.347   6.123   1.518  1.6159  2.5965  0.1123
 6691TIP3    H241565   0.430   6.005   1.565 -1.7881  0.9235  2.0943
 6692TIP3   OH241566   1.257   3.789   6.093 -0.3639  0.0954  0.4973
 6692TIP3    H141567   1.261   3.885   6.091 -1.1999  0.1901  2.4151
 6692TIP3    H241568   1.197   3.769   6.165  1.0462 -1.8960  1.1631
 6693TIP3   OH241569   5.492   5.816   1.223 -0.1840  0.1697 -0.3159
 6693TIP3    H141570   5.463   5.851   1.138 -0.6658 -0.9010 -0.5961
 6693TIP3    H241571   5.448   5.870   1.288 -2.1561 -0.8886 -0.7435
 6694TIP3   OH241572   3.765   3.620   0.218  0.3511  0.3021  0.2009
 6694TIP3    H141573   3.793   3.541   0.171  0.1263  1.4966 -1.9933
 6694TIP3    H241574   3.676   3.601   0.247  0.9962 -0.9806  1.3795
 6695TIP3   OH241575   2.846   4.900   5.265 -0.2192  0.0249 -0.1244
 6695TIP3    H141576   2.893   4.983   5.270 -1.3512  0.7271 -0.8413
 6695TIP3    H241577   2.905   4.842   5.216 -1.6157  2.0434 -4.4642
 6696TIP3   OH241578   3.802   4.498  15.288 -0.5520 -0.1673 -0.0527
 6696TIP3    H141579   3.841   4.413  15.265 -0.0248 -0.2408  1.0557
 6696TIP3    H241580   3.870   4.541  15.340 -0.3586  1.4248 -1.5848
 6697TIP3   OH241581   0.444   5.615   1.832 -0.0114 -0.1236 -0.1832
 6697TIP3    H141582   0.523   5.602   1.884 -0.2168 -0.2029  0.1081
 6697TIP3    H241583   0.373   5.580   1.886 -0.4535  1.3989  0.2368
 6698TIP3   OH241584   1.674   2.618  15.633  0.0361 -0.5569  0.1692
 6698TIP3    H141585   1.615   2.557  15.678  0.6985 -0.9445  0.5243
 6698TIP3    H241586   1.618   2.689  15.603 -0.4010 -0.2363  1.7142
 6699TIP3   OH241587   5.766   1.917  13.515  0.0509 -0.3633 -0.0692
 6699TIP3    H141588   5.852   1.877  13.518  0.2926  0.2743  2.7867
 6699TIP3    H241589   5.706   1.848  13.543 -0.0011  0.0992  0.9583
 6700TIP3   OH241590   4.059   1.141   1.997 -0.1440  0.0117  0.4459
 6700TIP3    H141591   4.126   1.140   1.928  0.0328  0.7211  0.6055
 6700TIP3    H241592   4.035   1.049   2.009 -1.1565 -0.0176 -1.5354
 6701TIP3   OH241593   4.453   3.020   2.749  0.5223  0.0518  0.6457
 6701TIP3    H141594   4.491   3.068   2.823 -0.4858  2.2388 -0.2468
 6701TIP3    H241595   4.365   3.055   2.740 -0.7061 -2.8408  0.7429
 6702TIP3   OH241596   3.732   3.228   1.749  0.2207 -0.0976  0.0176
 6702TIP3    H141597   3.744   3.253   1.841  0.0939  0.6194 -0.1523
 6702TIP3    H241598   3.807   3.269   1.705 -0.6722  1.0542 -0.4595
 6703TIP3   OH241599   0.012   0.339  14.740  0.0211 -0.3051  0.3134
 6703TIP3    H141600  -0.056   0.361  14.804  0.3663 -0.1623  0.6273
 6703TIP3    H241601   0.038   0.250  14.762 -1.1703 -0.9540 -0.7823
 6704TIP3   OH241602   5.327   5.461   5.526 -0.0620  0.0925  0.2252
 6704TIP3    H141603   5.280   5.401   5.583 -2.0963  1.6835  0.2866
 6704TIP3    H241604   5.351   5.534   5.583 -2.3484  1.8230 -0.9679
 6705TIP3   OH241605   1.103   2.945   4.502 -0.0167  0.1260  0.2142
 6705TIP3    H141606   1.052   3.021   4.530  0.3925 -0.0489  1.4697
 6705TIP3    H241607   1.165   2.930   4.573  0.0504 -1.2538 -0.1128
 6706TIP3   OH241608   1.470   6.703   4.343 -0.0278 -0.0254 -0.3745
 6706TIP3    H141609   1.402   6.695   4.410  0.4316 -1.5732 -0.0780
 6706TIP3    H241610   1.423   6.733   4.265 -0.9129 -0.2882  0.0512
 6707TIP3   OH241611   1.225   5.007   2.290  0.4258  0.4826 -0.2049
 6707TIP3    H141612   1.171   4.950   2.344 -0.8333  0.0925 -1.8566
 6707TIP3    H241613   1.313   4.970   2.297 -0.3358 -1.6112 -1.1327
 6708TIP3   OH241614   6.576   4.872  12.283  0.1505  0.4821  0.4599
 6708TIP3    H141615   6.558   4.931  12.356  1.4770  0.9876  0.4045
 6708TIP3    H241616   6.602   4.930  12.212  0.8591 -0.1269  0.2208
 6709TIP3   OH241617   0.094   3.095   5.535  0.0332  0.4621  0.0880
 6709TIP3    H141618   0.001   3.093   5.557 -0.4593 -0.1929 -1.9114
 6709TIP3    H241619   0.111   3.187   5.513  0.3421  0.9583  2.3197
 6710TIP3   OH241620   4.418   6.689  11.794  0.2024  0.0676  1.1783
 6710TIP3    H141621   4.390   6.606  11.834 -2.2562  0.2708 -0.0130
 6710TIP3    H241622   4.391   6.681  11.703  1.6674  1.4258  0.6169
 6711TIP3   OH241623   3.581   5.135  16.965 -0.6534 -0.2126 -0.1913
 6711TIP3    H141624   3.659   5.096  17.003  0.3811  2.1673  0.2185
 6711TIP3    H241625   3.547   5.194  17.032 -0.8947  1.2698 -1.5659
 6712TIP3   OH241626   5.535   6.533  11.749  0.1083 -0.3825 -0.2979
 6712TIP3    H141627   5.516   6.626  11.757  0.5021 -0.2849 -0.4920
 6712TIP3    H241628   5.562   6.505  11.836  0.8544 -0.1198 -0.4420
 6713TIP3   OH241629   0.103   2.566  13.571  0.5546 -0.0277  0.4412
 6713TIP3    H141630   0.109   2.662  13.568 -0.0521 -0.0125 -0.3659
 6713TIP3    H241631   0.144   2.543  13.655 -1.8723  1.1428  2.0009
 6714TIP3   OH241632   0.866   0.145   3.934 -0.1048  0.3109  0.0197
 6714TIP3    H141633   0.777   0.116   3.913 -0.0419 -0.5495  0.9186
 6714TIP3    H241634   0.856   0.236   3.962 -0.7609  0.0547  0.6142
 6715TIP3   OH241635   4.775   1.453  16.330 -0.6532  0.4057 -0.3309
 6715TIP3    H141636   4.691   1.416  16.355 -0.5831 -0.4921 -1.3503
 6715TIP3    H241637   4.774   1.451  16.234  1.6450 -2.2409 -0.3597
 6716TIP3   OH241638   3.561   2.244  15.369 -0.7737  0.3593 -0.2167
 6716TIP3    H141639   3.605   2.273  15.449 -0.6213  0.2737 -0.2685
 6716TIP3    H241640   3.471   2.275  15.378 -0.3657  1.7516 -0.7360
 6717TIP3   OH241641   3.682   4.183  13.178 -0.0247  0.1571  0.6791
 6717TIP3    H141642   3.653   4.193  13.088  0.6076 -1.7416  0.2378
 6717TIP3    H241643   3.777   4.194  13.174  0.3534 -2.7048  0.6213
 6718TIP3   OH241644   2.287   2.277   0.990  0.1755 -0.0508  0.0834
 6718TIP3    H141645   2.362   2.248   0.938  0.7823  1.7363 -0.0603
 6718TIP3    H241646   2.215   2.282   0.928  0.5277  0.5731 -0.2785
 6719TIP3   OH241647   5.569   2.390  12.921  0.2504  0.3812  0.2996
 6719TIP3    H141648   5.592   2.297  12.928  0.3229  0.2506 -1.4614
 6719TIP3    H241649   5.504   2.404  12.990 -1.6079 -1.5808 -1.0005
 6720TIP3   OH241650   5.109   1.770  12.399 -0.4821 -0.0094  0.2350
 6720TIP3    H141651   5.054   1.719  12.459 -1.0905  0.0550 -0.2737
 6720TIP3    H241652   5.142   1.705  12.336  2.3067 -0.5853  2.1761
 6721TIP3   OH241653   6.169   0.628  12.016 -0.7518  0.5646 -0.2141
 6721TIP3    H141654   6.103   0.582  11.964 -0.6602  0.6207 -0.3804
 6721TIP3    H241655   6.237   0.563  12.032 -0.5332  0.6901 -0.6083
 6722TIP3   OH241656   6.715   3.261   4.662 -0.0152  0.3586  0.2597
 6722TIP3    H141657   6.710   3.356   4.651 -0.0288  0.2842 -0.3905
 6722TIP3    H241658   6.678   3.245   4.749 -0.3631  0.9175  0.2176
 6723TIP3   OH241659   5.485   4.563   4.989 -0.0738  0.1422  0.0817
 6723TIP3    H141660   5.565   4.560   5.041  1.1641  1.4384 -1.7429
 6723TIP3    H241661   5.424   4.614   5.043  0.6295  0.0292  1.0083
 6724TIP3   OH241662   1.717   6.149  16.362 -0.0138  0.2081  0.0881
 6724TIP3    H141663   1.761   6.131  16.445 -0.2723  1.8363  0.6010
 6724TIP3    H241664   1.745   6.078  16.304  0.7804 -0.5192  1.3352
 6725TIP3   OH241665   3.838   6.756  15.688  0.2842 -0.9099 -0.2314
 6725TIP3    H141666   3.837   6.802  15.604  2.0726  0.0375  0.2370
 6725TIP3    H241667   3.773   6.801  15.741  0.4718 -0.2981 -0.5089
 6726TIP3   OH241668   3.939   0.418  13.614  0.3739  0.1224 -0.1996
 6726TIP3    H141669   3.938   0.433  13.519 -4.8195  3.0918  0.0990
 6726TIP3    H241670   3.971   0.500  13.651  0.1695 -0.1754  0.6495
 6727TIP3   OH241671   2.011   6.154  12.254  0.6129  0.2427 -0.3977
 6727TIP3    H141672   2.087   6.212  12.251  0.5776  0.3770  0.8582
 6727TIP3    H241673   2.043   6.075  12.298 -0.0911  0.4930  0.5729
 6728TIP3   OH241674   3.679   3.644  13.933  0.0046  0.2164  0.6621
 6728TIP3    H141675   3.700   3.594  14.012  0.0300 -1.9745 -0.6807
 6728TIP3    H241676   3.583   3.642  13.928  0.0238 -0.0320  0.3977
 6729TIP3   OH241677   1.438   2.808  15.204  0.1927  0.3825  0.3398
 6729TIP3    H141678   1.386   2.731  15.183  0.8706 -0.3294  1.2308
 6729TIP3    H241679   1.421   2.869  15.132 -1.7850  0.1280  0.5719
 6730TIP3   OH241680   1.024   4.522  16.326  0.4570  0.4917 -0.0798
 6730TIP3    H141681   1.042   4.432  16.298  0.3528  0.6555 -0.6934
 6730TIP3    H241682   1.083   4.538  16.399  0.9540  0.1553 -0.4101
 6731TIP3   OH241683   0.140   0.534   0.667 -0.0006  0.3055 -0.0661
 6731TIP3    H141684   0.196   0.466   0.705 -0.3717  0.1889  0.2719
 6731TIP3    H241685   0.133   0.601   0.735  1.1777  1.1604 -0.7630
 6732TIP3   OH241686   2.156   2.484  15.534  0.0081  0.2653  0.1452
 6732TIP3    H141687   2.076   2.461  15.487 -1.4175  2.4078  1.4373
 6732TIP3    H241688   2.169   2.411  15.596 -0.1547 -0.7601 -1.0036
 6733TIP3   OH241689   6.435   6.777  11.641  1.2159 -0.0440 -0.7127
 6733TIP3    H141690   6.444   6.860  11.594  0.9526 -0.0638 -0.7975
 6733TIP3    H241691   6.346   6.778  11.676  1.7091  0.3630  0.5415
 6734TIP3   OH241692   1.862   3.729   3.589 -0.2707 -0.3403 -0.1551
 6734TIP3    H141693   1.898   3.659   3.644 -1.6567 -0.9004  0.0575
 6734TIP3    H241694   1.936   3.757   3.535  0.8713 -0.4215  1.3271
 6735TIP3   OH241695   1.686   3.073  13.284  0.3193  0.1650 -0.3345
 6735TIP3    H141696   1.720   3.080  13.195  2.9543 -0.4949  0.5825
 6735TIP3    H241697   1.754   3.112  13.339 -1.3921  0.8131  1.3848
 6736TIP3   OH241698   2.870   6.770  16.894 -0.1535 -0.6932  0.6675
 6736TIP3    H141699   2.949   6.814  16.862 -0.6612 -0.8847 -0.8768
 6736TIP3    H241700   2.902   6.687  16.929  0.4483 -0.3322  1.0043
 6737TIP3   OH241701   3.242   0.252   3.698 -0.3024 -0.0443 -0.0606
 6737TIP3    H141702   3.337   0.250   3.697 -0.3185 -1.2673 -0.4906
 6737TIP3    H241703   3.219   0.279   3.787  0.4502  1.2380 -0.2548
 6738TIP3   OH241704   5.953   2.688  16.215  0.1304  0.0041  0.0527
 6738TIP3    H141705   5.943   2.708  16.122  1.7438  0.6808  0.0095
 6738TIP3    H241706   5.900   2.609  16.228 -0.2933  0.0311 -1.3845
 6739TIP3   OH241707   2.920   6.319  11.779  0.3187  0.3854  0.2382
 6739TIP3    H141708   2.937   6.235  11.736  0.2104  0.3003  0.3623
 6739TIP3    H241709   2.984   6.379  11.741  1.4365 -0.1241  1.2907
 6740TIP3   OH241710   4.753   0.634   1.799  0.1252  0.9537 -0.4544
 6740TIP3    H141711   4.792   0.547   1.793 -1.0181  0.1887  2.1582
 6740TIP3    H241712   4.668   0.625   1.755  0.3088  0.9445 -0.8075
 6741TIP3   OH241713   0.745   4.610  12.721  0.0480  0.1186 -0.5142
 6741TIP3    H141714   0.722   4.566  12.803  0.5883 -2.5212 -1.7077
 6741TIP3    H241715   0.665   4.652  12.692 -0.7211 -0.8008  0.2541
 6742TIP3   OH241716   6.351   6.060   2.427 -0.3044  0.4607  0.8917
 6742TIP3    H141717   6.330   6.142   2.382 -1.0570  1.2086  2.5660
 6742TIP3    H241718   6.287   6.055   2.498 -1.0595 -2.2050  0.0653
 6743TIP3   OH241719   2.859   3.106  12.530  0.3952  0.0821 -0.5044
 6743TIP3    H141720   2.842   3.082  12.621  0.8436 -0.0655 -0.4547
 6743TIP3    H241721   2.774   3.134  12.496  0.5652  1.9288  0.4933
 6744TIP3   OH241722   5.174   3.186  13.067 -0.0671 -0.0341 -0.4794
 6744TIP3    H141723   5.138   3.211  12.982 -0.7598 -0.7102 -0.3798
 6744TIP3    H241724   5.139   3.252  13.127  0.7560  0.6934 -0.7754
 6745TIP3   OH241725   1.266   2.837  15.700  0.4087  0.6044 -0.0158
 6745TIP3    H141726   1.237   2.895  15.770 -0.4783  0.6460 -0.4024
 6745TIP3    H241727   1.345   2.796  15.733 -0.3110  0.2049  1.2370
 6746TIP3   OH241728   0.733   3.633  13.992 -0.0002 -0.8164  0.1320
 6746TIP3    H141729   0.641   3.611  13.976 -0.4524  1.6308 -0.7502
 6746TIP3    H241730   0.774   3.629  13.906  0.4573 -0.7504  0.3497
 6747TIP3   OH241731   0.086   0.450   5.505 -0.3096  0.0138  0.5929
 6747TIP3    H141732   0.165   0.493   5.473 -0.8031  0.0751 -0.5658
 6747TIP3    H241733   0.038   0.520   5.550 -0.1726  0.2088  0.4381
 6748TIP3   OH241734   3.922   1.413   3.622 -0.4491  0.1838 -0.6338
 6748TIP3    H141735   3.915   1.319   3.607 -0.5192  0.0378  0.2761
 6748TIP3    H241736   3.892   1.425   3.712  0.3740  0.9664 -0.4583
 6749TIP3   OH241737   0.234   1.798  15.459 -0.2108  0.2296  0.3978
 6749TIP3    H141738   0.211   1.861  15.528  0.9429  1.1868 -0.0626
 6749TIP3    H241739   0.329   1.788  15.468 -0.1554 -0.1588 -0.6192
 6750TIP3   OH241740   1.802   6.576   2.136  0.2527 -0.6381 -0.2250
 6750TIP3    H141741   1.784   6.492   2.094  1.5800  0.2298 -2.5857
 6750TIP3    H241742   1.873   6.614   2.085  0.7800  1.2101  1.8170
 6751TIP3   OH241743   5.322   2.632  12.378 -0.4204  0.2633 -0.3795
 6751TIP3    H141744   5.366   2.588  12.451  0.1473  0.2596 -0.7238
 6751TIP3    H241745   5.246   2.577  12.359 -0.1032 -0.1896 -0.3479
 6752TIP3   OH241746   3.788   0.547  15.283  0.1401 -0.0780 -0.0743
 6752TIP3    H141747   3.764   0.461  15.318 -1.1794  0.9791  1.6770
 6752TIP3    H241748   3.708   0.581  15.244  0.7687  0.1843 -1.1564
 6753TIP3   OH241749   4.132   5.153  15.455 -0.6825  0.4164 -0.0714
 6753TIP3    H141750   4.225   5.174  15.464 -0.8166  0.8168  0.4227
 6753TIP3    H241751   4.121   5.073  15.507 -0.4081 -0.2186 -0.9829
 6754TIP3   OH241752   1.669   3.837  13.324  0.7552  0.0932 -0.4744
 6754TIP3    H141753   1.713   3.896  13.263  2.1192  0.5681  0.9224
 6754TIP3    H241754   1.723   3.839  13.403 -2.1960  1.3181  1.6137
 6755TIP3   OH241755   2.704   4.509   3.291  0.2435  0.0107 -0.4218
 6755TIP3    H141756   2.637   4.558   3.338 -1.2149 -1.5920 -0.7707
 6755TIP3    H241757   2.739   4.570   3.227 -1.4470  0.6387 -0.7664
 6756TIP3   OH241758   1.893   2.616  15.108  0.1912 -0.0810  0.0938
 6756TIP3    H141759   1.920   2.654  15.024  0.5029  1.2656  0.7816
 6756TIP3    H241760   1.814   2.665  15.132 -0.2148 -0.8471  0.3148
 6757TIP3   OH241761   4.412   2.081   4.466 -0.1464  0.0516 -0.6387
 6757TIP3    H141762   4.397   2.010   4.528 -0.0609 -1.0328 -1.8463
 6757TIP3    H241763   4.360   2.154   4.501 -0.3726 -0.6473  0.5160
 6758TIP3   OH241764   2.212   1.889  14.516  0.0599  0.1681  0.2353
 6758TIP3    H141765   2.207   1.809  14.570  1.6836  0.7580  1.2939
 6758TIP3    H241766   2.134   1.939  14.540  0.4449  0.1321  1.5958
 6759TIP3   OH241767   3.605   3.373  16.932  0.1092  0.0063 -0.0469
 6759TIP3    H141768   3.632   3.419  16.852  0.6993 -0.4704 -0.1243
 6759TIP3    H241769   3.681   3.320  16.956 -0.5744 -0.9446  0.0349
 6760TIP3   OH241770   1.027   6.562   4.194  0.5684  0.4478  0.1974
 6760TIP3    H141771   1.108   6.511   4.194 -0.7774 -1.7614 -0.6105
 6760TIP3    H241772   0.998   6.562   4.286  0.7243 -0.0024  0.2471
 6761TIP3   OH241773   4.297   0.945   6.075  0.0910 -0.6009  0.2247
 6761TIP3    H141774   4.262   1.012   6.016  0.2560  0.7062  1.5890
 6761TIP3    H241775   4.221   0.892   6.098 -0.8280  1.5734  2.3251
 6762TIP3   OH241776   2.263   0.882   4.782 -0.2499  0.3416 -0.0391
 6762TIP3    H141777   2.236   0.822   4.851 -0.6621  0.3525 -0.1888
 6762TIP3    H241778   2.186   0.888   4.724  0.0436  0.4415 -0.4177
 6763TIP3   OH241779   2.799   6.033   3.528 -0.0062 -0.1949 -0.0222
 6763TIP3    H141780   2.829   5.991   3.448  2.6446  2.0250 -0.2624
 6763TIP3    H241781   2.806   5.966   3.596  0.0707 -1.3624 -1.1774
 6764TIP3   OH241782   4.968   0.842   1.640 -0.6239 -0.9729 -0.8191
 6764TIP3    H141783   5.036   0.776   1.657  0.5500  0.1602 -1.0283
 6764TIP3    H241784   4.911   0.801   1.575 -0.0002 -1.8546 -0.8225
 6765TIP3   OH241785   4.209   1.578   1.305  0.3625 -0.2117  0.0649
 6765TIP3    H141786   4.123   1.614   1.281 -0.4154 -1.1396  1.4416
 6765TIP3    H241787   4.195   1.484   1.314  1.5109 -0.3598  0.4181
 6766TIP3   OH241788   1.875   2.626   5.311 -1.2520  0.0977 -0.4727
 6766TIP3    H141789   1.903   2.565   5.243 -2.1912 -0.0836 -0.6976
 6766TIP3    H241790   1.783   2.605   5.326 -0.8202 -0.5194  1.5409
 6767TIP3   OH241791   4.193   3.904  15.605 -0.7657  0.4297 -0.1290
 6767TIP3    H141792   4.181   3.838  15.673 -2.1556  1.0881  0.2676
 6767TIP3    H241793   4.147   3.869  15.529  1.2230 -0.5517 -0.9315
 6768TIP3   OH241794   4.905   6.490  16.502 -0.0726  0.4456 -0.2161
 6768TIP3    H141795   4.974   6.476  16.566 -0.8518 -0.1202  0.5094
 6768TIP3    H241796   4.845   6.552  16.543 -1.0147 -0.5582 -0.0388
 6769TIP3   OH241797   1.972   5.150   5.240  0.6068  0.2120 -0.7071
 6769TIP3    H141798   2.049   5.150   5.182 -0.0951 -0.0255 -1.6576
 6769TIP3    H241799   1.918   5.222   5.207 -0.1987 -0.4701 -0.8969
 6770TIP3   OH241800   2.148   2.349   0.357 -0.1259  0.1729 -0.4504
 6770TIP3    H141801   2.058   2.360   0.388  0.1415 -1.6525  1.1142
 6770TIP3    H241802   2.190   2.432   0.377 -0.7245  0.0413  1.5329
 6771TIP3   OH241803   2.117   4.184   0.795  0.2276 -0.1940  0.1264
 6771TIP3    H141804   2.044   4.138   0.836 -1.1012  0.8019 -1.0691
 6771TIP3    H241805   2.093   4.190   0.702  0.9197  1.8088  0.0349
 6772TIP3   OH241806   3.393   1.760   0.773 -0.0456 -0.2975 -0.5387
 6772TIP3    H141807   3.461   1.822   0.797 -0.7316  0.2998 -0.1350
 6772TIP3    H241808   3.365   1.721   0.855  0.3247 -1.0845 -0.7826
 6773TIP3   OH241809   5.725   2.950   0.522  0.8349 -0.4491 -0.0288
 6773TIP3    H141810   5.797   2.981   0.467  2.1702  0.0486  1.9725
 6773TIP3    H241811   5.699   3.026   0.574  0.1216 -1.1210  0.6125
 6774TIP3   OH241812   3.248   4.403  13.084  0.2086 -0.9364  0.1381
 6774TIP3    H141813   3.174   4.342  13.076  0.5014 -1.1235 -1.3357
 6774TIP3    H241814   3.209   4.490  13.073  0.2173 -1.0467 -0.8551
 6775TIP3   OH241815   5.703   2.695   3.251 -0.3563 -0.1135  0.5349
 6775TIP3    H141816   5.734   2.607   3.271  1.0682  0.6386  1.7386
 6775TIP3    H241817   5.645   2.717   3.325  0.2127  0.3960  0.8345
 6776TIP3   OH241818   4.365   5.293  13.928 -0.9627  0.4375 -0.4117
 6776TIP3    H141819   4.361   5.201  13.955  2.1217  0.8108  1.5109
 6776TIP3    H241820   4.308   5.339  13.990 -0.7286  0.1327  0.0250
 6777TIP3   OH241821   3.525   2.859  11.889  0.3197  0.0658  0.0878
 6777TIP3    H141822   3.560   2.803  11.958  1.6261  0.0952 -0.5518
 6777TIP3    H241823   3.580   2.937  11.890 -0.8156  0.8735  0.2476
 6778TIP3   OH241824   5.153   2.367  13.233 -0.2836 -0.5250  0.2069
 6778TIP3    H141825   5.073   2.396  13.189 -0.2925  0.4854  0.8669
 6778TIP3    H241826   5.126   2.348  13.322  0.4832  1.3198  0.8687
 6779TIP3   OH241827   0.969   3.573  11.799 -0.0335 -0.2179 -0.7574
 6779TIP3    H141828   1.030   3.604  11.865 -1.6229  0.8467  0.2520
 6779TIP3    H241829   1.021   3.567  11.719  0.8036  3.1424 -0.5373
 6780TIP3   OH241830   0.277   2.734   3.230  0.2908  0.7207 -0.3752
 6780TIP3    H141831   0.303   2.649   3.194  0.8812  0.8153 -0.1714
 6780TIP3    H241832   0.183   2.727   3.242  0.5215 -0.3442  0.8271
 6781TIP3   OH241833   5.502   4.830  16.706 -0.1750  0.1929 -0.2222
 6781TIP3    H141834   5.531   4.894  16.641 -0.0875  0.8856  0.4859
 6781TIP3    H241835   5.471   4.755  16.655 -0.4471  0.8716 -1.0605
 6782TIP3   OH241836   4.379   6.725  11.520  0.3809 -0.5499 -0.2709
 6782TIP3    H141837   4.323   6.803  11.525 -0.8553 -1.4934  0.8240
 6782TIP3    H241838   4.462   6.753  11.558  1.0717  1.1758 -2.8868
 6783TIP3   OH241839   3.633   6.017  12.422 -0.3268  0.3353  0.0749
 6783TIP3    H141840   3.648   5.955  12.352  0.5805 -0.3412  0.8412
 6783TIP3    H241841   3.721   6.049  12.445 -0.5432  0.1138  1.2761
 6784TIP3   OH241842   6.681   1.915   0.516  0.5990 -0.3999  0.1215
 6784TIP3    H141843   6.743   1.847   0.543 -0.3425 -1.6181 -0.7462
 6784TIP3    H241844   6.660   1.894   0.425 -1.1869 -0.0656  0.4380
 6785TIP3   OH241845   5.604   3.042   4.072  0.1074 -0.1771 -0.1227
 6785TIP3    H141846   5.649   3.111   4.121 -1.3641  0.4213  0.4082
 6785TIP3    H241847   5.511   3.063   4.080 -0.3677 -2.2364  0.0679
 6786TIP3   OH241848   0.704   5.379   1.660  0.3047  0.0332  0.1551
 6786TIP3    H141849   0.696   5.335   1.745  0.4130  0.6575  0.4853
 6786TIP3    H241850   0.614   5.392   1.631  0.2603  0.2287  0.3819
 6787TIP3   OH241851   6.739   3.390  13.959  0.1311 -0.5650  0.0205
 6787TIP3    H141852   6.763   3.482  13.966  0.4885 -0.6665  0.0927
 6787TIP3    H241853   6.646   3.388  13.981 -0.2341 -0.0163 -1.3923
 6788TIP3   OH241854   4.667   1.918   0.384  0.0585  0.2399  0.0953
 6788TIP3    H141855   4.728   1.968   0.439 -0.9724  0.9497  0.6073
 6788TIP3    H241856   4.599   1.980   0.361  0.3181 -0.1415 -1.7697
 6789TIP3   OH241857   4.855   4.285  15.404 -0.7201  0.0815  0.4437
 6789TIP3    H141858   4.840   4.291  15.310 -1.8042 -0.5270  0.5741
 6789TIP3    H241859   4.801   4.212  15.433 -1.3719  1.0417  1.7433
 6790TIP3   OH241860   1.219   2.098  10.952 -0.0371 -0.2521  0.8078
 6790TIP3    H141861   1.269   2.018  10.967  1.3072 -0.1752 -2.8201
 6790TIP3    H241862   1.285   2.162  10.925 -1.5967  0.9043 -0.3434
 6791TIP3   OH241863   5.292   5.645  12.330  0.5331  0.0029 -0.8130
 6791TIP3    H141864   5.278   5.636  12.424  0.8478 -2.4455 -0.9661
 6791TIP3    H241865   5.258   5.731  12.309  0.2416  0.4901  1.5077
 6792TIP3   OH241866   3.627   2.119  12.575 -0.5393  0.0323  0.4519
 6792TIP3    H141867   3.667   2.032  12.578 -1.1226 -0.2257  0.8101
 6792TIP3    H241868   3.545   2.110  12.623 -0.5485  0.8124  0.6009
 6793TIP3   OH241869   1.458   5.908   4.890  0.4122  0.3976  0.1292
 6793TIP3    H141870   1.442   5.943   4.977  1.2166 -0.0031  0.4401
 6793TIP3    H241871   1.504   5.977   4.844 -0.2707  0.7208 -0.0726
 6794TIP3   OH241872   2.008   5.151  14.902  0.2096  0.2849  0.7092
 6794TIP3    H141873   1.966   5.067  14.922  1.4814 -0.3658  0.6852
 6794TIP3    H241874   1.998   5.202  14.982  1.6042 -0.7914  1.5999
 6795TIP3   OH241875   3.352   6.349  16.877  0.6686  0.6863  0.3846
 6795TIP3    H141876   3.406   6.309  16.945 -0.0062 -1.5661 -0.3577
 6795TIP3    H241877   3.411   6.360  16.802  0.4963 -0.3139  0.0962
 6796TIP3   OH241878   3.827   0.130   1.881 -0.3853  0.5923  0.6571
 6796TIP3    H141879   3.819   0.221   1.909 -2.4330  0.3727  0.8794
 6796TIP3    H241880   3.808   0.079   1.960  1.0528 -0.0429  0.6083
 6797TIP3   OH241881   2.679   2.536  16.969  0.2644  0.1099 -0.1623
 6797TIP3    H141882   2.754   2.594  16.982  0.6612 -0.6239  0.8554
 6797TIP3    H241883   2.649   2.557  16.881  2.1088 -0.0835 -0.8712
 6798TIP3   OH241884   6.445   4.417  11.624  0.2045 -0.0940  0.3292
 6798TIP3    H141885   6.502   4.399  11.699  0.9558  0.3856 -0.1267
 6798TIP3    H241886   6.432   4.332  11.582 -0.4681 -0.4195  1.1675
 6799TIP3   OH241887   4.708   3.659  14.178  0.0867  0.2003  0.0720
 6799TIP3    H141888   4.753   3.743  14.191  1.5263 -0.7305  1.2015
 6799TIP3    H241889   4.778   3.594  14.174 -1.0549 -1.0400 -0.1429
 6800TIP3   OH241890   2.569   1.931  10.931  0.3028  0.1866 -0.3012
 6800TIP3    H141891   2.564   1.940  10.836 -2.6821 -0.3974 -0.2301
 6800TIP3    H241892   2.488   1.888  10.956  0.9098  0.5929  2.5628
 6801TIP3   OH241893   2.537   2.671  11.570  0.2468  0.1840 -0.6027
 6801TIP3    H141894   2.473   2.711  11.512  0.6119  2.2741  0.4112
 6801TIP3    H241895   2.590   2.615  11.512 -1.9463 -0.9327 -1.5593
 6802TIP3   OH241896   1.108   5.233  12.417 -0.2147  0.0783 -0.0141
 6802TIP3    H141897   1.108   5.245  12.322 -1.9818  1.4192  0.1149
 6802TIP3    H241898   1.027   5.187  12.435  0.8669 -1.5658  0.7166
 6803TIP3   OH241899   2.746   0.112  16.639 -0.7915  0.3670  0.2862
 6803TIP3    H141900   2.770   0.162  16.717  0.4034 -0.1071  0.2348
 6803TIP3    H241901   2.671   0.059  16.667  0.0241 -0.2689  1.3061
 6804TIP3   OH241902   6.582   5.241   5.830  0.1001  0.2740 -0.2185
 6804TIP3    H141903   6.538   5.173   5.777 -0.0921 -0.6520  1.1016
 6804TIP3    H241904   6.511   5.299   5.858  0.0980  0.3305 -0.3398
 6805TIP3   OH241905   3.270   2.934   4.219  0.6996 -0.1391 -0.5225
 6805TIP3    H141906   3.182   2.942   4.256  2.1784 -1.7151  3.6433
 6805TIP3    H241907   3.263   2.864   4.155 -1.6572  1.7125 -2.3959
 6806TIP3   OH241908   3.016   0.950   4.809 -0.4370  0.1577 -0.0788
 6806TIP3    H141909   2.981   0.865   4.836  2.7402 -1.3811 -0.5332
 6806TIP3    H241910   2.984   0.962   4.720  0.4504 -1.4350 -0.6527
 6807TIP3   OH241911   0.109   2.958   2.211 -0.5108 -0.5139  0.4867
 6807TIP3    H141912   0.123   3.040   2.164  1.8012 -1.2635 -0.1868
 6807TIP3    H241913   0.017   2.936   2.193 -0.4454  0.6206 -1.4254
 6808TIP3   OH241914   0.100   1.492  16.492  0.2995  0.0989 -0.0428
 6808TIP3    H141915   0.079   1.584  16.504 -1.0717 -0.2391  0.2412
 6808TIP3    H241916   0.192   1.484  16.519  0.5463  1.4400 -0.4427
 6809TIP3   OH241917   5.818   0.026  13.546  0.0183  0.3399 -0.7484
 6809TIP3    H141918   5.818   0.120  13.565  0.3715  0.5644 -1.7998
 6809TIP3    H241919   5.909   0.006  13.525 -0.3419  0.1158 -2.1482
 6810TIP3   OH241920   6.113   2.707   4.315  0.0149 -0.9762 -0.7553
 6810TIP3    H141921   6.173   2.733   4.245  1.0352 -4.1761 -1.1695
 6810TIP3    H241922   6.168   2.706   4.394 -0.9114  1.7086 -0.0325
 6811TIP3   OH241923   0.789   0.026   2.721 -0.1137 -0.2800  0.0137
 6811TIP3    H141924   0.783   0.094   2.653 -0.6205  0.5826  0.9031
 6811TIP3    H241925   0.862  -0.029   2.693  1.2030  1.4276 -0.0308
 6812TIP3   OH241926   2.168   0.535   3.452  0.0707 -0.2427 -0.7092
 6812TIP3    H141927   2.222   0.525   3.531 -1.2452  1.3439  0.4413
 6812TIP3    H241928   2.223   0.584   3.391  0.1312  0.9431  0.2702
 6813TIP3   OH241929   0.160   2.273  16.035  0.1143 -0.2367 -0.3494
 6813TIP3    H141930   0.191   2.183  16.046  0.3203 -0.3321 -1.7107
 6813TIP3    H241931   0.151   2.284  15.941 -3.1556  0.0739 -0.0576
 6814TIP3   OH241932   3.783   2.157  14.689  0.4357 -0.0027  0.6650
 6814TIP3    H141933   3.689   2.144  14.687  0.6169 -1.0518 -1.0932
 6814TIP3    H241934   3.794   2.245  14.726 -1.2792  0.8483 -0.8260
 6815TIP3   OH241935   5.776   0.034   5.664 -0.0512 -0.7629  0.2628
 6815TIP3    H141936   5.792   0.069   5.751 -1.4055 -0.1258  0.2723
 6815TIP3    H241937   5.692  -0.010   5.670 -0.3931 -0.2934 -0.8296
 6816TIP3   OH241938   6.147   6.777   0.205 -0.2596 -0.1791  0.4077
 6816TIP3    H141939   6.192   6.696   0.228  0.4441  0.0342 -0.2209
 6816TIP3    H241940   6.184   6.842   0.265  1.6523  0.4002 -1.3694
 6817TIP3   OH241941   3.998   0.020   4.148  0.1080 -0.5354 -0.4574
 6817TIP3    H141942   3.988  -0.049   4.213  0.5289 -0.4201 -0.2689
 6817TIP3    H241943   4.091   0.040   4.148 -0.3670  1.9250  1.4449
 6818TIP3   OH241944   5.063   6.678   2.171  0.3413 -0.1687  0.3850
 6818TIP3    H141945   5.019   6.695   2.088 -0.5586 -0.7388  0.7447
 6818TIP3    H241946   5.042   6.755   2.225 -0.9803 -0.8656  0.8719
 6819TIP3   OH241947   0.397   4.842  11.360  0.4900 -0.7752  0.0527
 6819TIP3    H141948   0.398   4.866  11.268 -0.0217  1.2810  0.5567
 6819TIP3    H241949   0.444   4.759  11.364  1.8580 -0.1239 -1.8355
 6820TIP3   OH241950   0.690   0.409  13.120 -0.6757  0.2349  0.1476
 6820TIP3    H141951   0.738   0.490  13.139  0.1909 -0.7624  2.3160
 6820TIP3    H241952   0.598   0.433  13.131 -0.5266  1.3436 -0.9023
 6821TIP3   OH241953   3.768   3.255  12.939  0.5760  0.5040 -1.0763
 6821TIP3    H141954   3.673   3.246  12.937  0.7300 -2.1411  0.2334
 6821TIP3    H241955   3.795   3.243  12.848 -0.1941 -1.3381 -1.0950
 6822TIP3   OH241956   6.694   5.472  15.225 -0.7356  0.5046  0.2328
 6822TIP3    H141957   6.770   5.492  15.279 -1.4063  0.5990  1.1728
 6822TIP3    H241958   6.729   5.445  15.141  0.2666  3.6598 -0.4196
 6823TIP3   OH241959   5.490   4.863  12.959  0.3210 -0.3427  0.5798
 6823TIP3    H141960   5.424   4.904  12.903  1.0870  0.6707  0.3982
 6823TIP3    H241961   5.479   4.769  12.944  0.0706 -0.1151 -0.7627
 6824TIP3   OH241962   0.280   0.414  14.286  0.4558  0.2739  0.0107
 6824TIP3    H141963   0.356   0.412  14.229 -0.0911  2.3629 -0.8462
 6824TIP3    H241964   0.213   0.462  14.236  0.5132  3.7594  3.0138
 6825TIP3   OH241965   4.967   2.362   6.054 -0.2387 -0.7081 -0.1885
 6825TIP3    H141966   5.041   2.358   6.115  0.2653 -0.6913 -0.7923
 6825TIP3    H241967   4.905   2.422   6.095  0.0557 -0.7732  0.3562
 6826TIP3   OH241968   6.801   5.434  14.989  0.2889  0.4281 -0.2709
 6826TIP3    H141969   6.756   5.366  14.938  0.2357 -0.3016  0.7390
 6826TIP3    H241970   6.856   5.479  14.925 -1.2346  0.7840 -1.3600
 6827TIP3   OH241971   0.193   2.786  12.119  0.3131 -0.0548  0.0261
 6827TIP3    H141972   0.159   2.767  12.207 -1.7368 -0.1456 -0.7541
 6827TIP3    H241973   0.199   2.701  12.076 -0.2131  0.1403 -0.4440
 6828TIP3   OH241974   1.426   3.819   5.824  0.0746 -0.4470  0.5496
 6828TIP3    H141975   1.388   3.890   5.875 -0.6651  0.2795 -0.9820
 6828TIP3    H241976   1.463   3.760   5.889  0.2103  1.0585  1.8639
 6829TIP3   OH241977   6.510   6.274   1.105  0.2789 -0.2908 -0.5954
 6829TIP3    H141978   6.571   6.235   1.168  0.1533 -1.5867 -1.2622
 6829TIP3    H241979   6.522   6.368   1.116  1.5740 -0.5183  0.0862
 6830TIP3   OH241980   4.076   2.753   3.008  0.1270 -0.2945  0.3004
 6830TIP3    H141981   3.994   2.798   2.987  0.4606  0.2565  0.1569
 6830TIP3    H241982   4.116   2.808   3.076 -1.0924 -2.2207  2.6684
 6831TIP3   OH241983   0.833   5.723   0.363 -0.4902 -0.2880 -0.2383
 6831TIP3    H141984   0.884   5.706   0.284 -1.7820  2.2015 -1.6580
 6831TIP3    H241985   0.898   5.732   0.432  0.7008 -1.7333 -1.1442
 6832TIP3   OH241986   0.617   1.095  16.140 -0.2087  0.9339 -0.0224
 6832TIP3    H141987   0.643   1.140  16.221  0.0657  1.7882 -0.5777
 6832TIP3    H241988   0.527   1.125  16.124 -0.5130  0.2234  0.3379
 6833TIP3   OH241989   3.005   6.310  14.746  0.0228  0.0278 -0.9680
 6833TIP3    H141990   2.926   6.364  14.752  0.2130  0.1418  0.7046
 6833TIP3    H241991   3.018   6.277  14.835  2.5082  0.9579 -0.9467
 6834TIP3   OH241992   1.660   6.198   3.783  0.3992 -0.2014  0.5374
 6834TIP3    H141993   1.681   6.278   3.735  0.3403 -1.0109 -0.8859
 6834TIP3    H241994   1.727   6.135   3.756 -1.0672 -1.4086 -0.4090
 6835TIP3   OH241995   6.698   5.810  12.672 -0.2568  0.7044 -0.3901
 6835TIP3    H141996   6.654   5.743  12.619  0.0665  0.7300 -0.6944
 6835TIP3    H241997   6.633   5.879  12.680 -0.2328  0.8021 -0.9609
 6836TIP3   OH241998   5.495   1.974  16.949  0.4858  0.2622  0.2140
 6836TIP3    H141999   5.541   1.983  17.033  0.4089  1.2698  0.1598
 6836TIP3    H242000   5.489   1.880  16.935 -0.5019  0.0506  1.8948
 6837TIP3   OH242001   6.394   0.525   4.865  0.1904  0.0776  0.1682
 6837TIP3    H142002   6.456   0.565   4.805  0.1897 -0.5759 -0.2682
 6837TIP3    H242003   6.443   0.455   4.907  0.3750  0.9087  1.3865
 6838TIP3   OH242004   3.350   5.904  15.535 -0.3673  0.0453  0.4425
 6838TIP3    H142005   3.271   5.867  15.496  0.1966  0.6879 -1.3358
 6838TIP3    H242006   3.390   5.831  15.582 -0.8132 -0.8640 -0.5783
 6839TIP3   OH242007   3.534   5.731  14.482  0.0325  0.4520  0.3770
 6839TIP3    H142008   3.531   5.723  14.578  2.0143  1.0819  0.5187
 6839TIP3    H242009   3.530   5.640  14.451  1.9158  0.0580  1.1827
 6840TIP3   OH242010   1.931   5.355   1.500 -0.1741  0.4934  0.1918
 6840TIP3    H142011   1.872   5.384   1.570  1.0650 -0.2023  1.5664
 6840TIP3    H242012   1.874   5.316   1.434 -1.2025 -0.7738  1.8018
 6841TIP3   OH242013   6.697   5.431  12.367  0.4328 -0.2147  0.3038
 6841TIP3    H142014   6.736   5.382  12.294  0.9766  2.1435 -1.0261
 6841TIP3    H242015   6.603   5.413  12.360  0.4298  0.3891 -1.2850
 6842TIP3   OH242016   0.584   2.270  11.687 -0.2078 -0.2938  0.2236
 6842TIP3    H142017   0.648   2.330  11.726  1.0052 -0.6274 -1.2146
 6842TIP3    H242018   0.505   2.281  11.740  1.7957 -1.7849  3.6725
 6843TIP3   OH242019   6.052   2.633  13.171  0.3493 -0.0268  0.3533
 6843TIP3    H142020   6.141   2.642  13.137  0.6764 -0.4304  1.0885
 6843TIP3    H242021   5.995   2.653  13.096  1.0567  0.2536 -0.1127
 6844TIP3   OH242022   4.664   1.007  13.492  0.3571  0.5385 -0.0215
 6844TIP3    H142023   4.642   0.978  13.403 -2.5531 -0.5871  0.9891
 6844TIP3    H242024   4.733   1.072  13.480  0.4349 -0.0304 -3.0538
 6845TIP3   OH242025   3.032   2.686   5.267  0.2630  0.4743 -0.7467
 6845TIP3    H142026   2.939   2.697   5.250  0.1245  0.4769 -0.0151
 6845TIP3    H242027   3.068   2.648   5.186 -0.1136  1.8054 -1.5515
 6846TIP3   OH242028   6.398   3.489   3.923 -0.5920 -0.0708  0.5650
 6846TIP3    H142029   6.418   3.535   3.842 -0.7056 -0.6680  0.1993
 6846TIP3    H242030   6.344   3.551   3.973  0.8593  0.9543  0.9075
 6847TIP3   OH242031   4.230   0.513   0.118  0.1898 -0.1919 -0.1456
 6847TIP3    H142032   4.174   0.538   0.192  0.2964  0.0321 -0.1383
 6847TIP3    H242033   4.254   0.423   0.136  1.0600  0.1868  0.6299
 6848TIP3   OH242034   5.088   3.132  12.152 -0.3975 -0.3467 -0.7416
 6848TIP3    H142035   5.124   3.221  12.156  0.8430 -0.8942  1.2109
 6848TIP3    H242036   5.136   3.090  12.080  1.0304 -0.2596  0.1329
 6849TIP3   OH242037   2.779   1.541   6.558  0.1735  0.0882 -0.4050
 6849TIP3    H142038   2.858   1.491   6.536  0.4285 -0.0314  0.7070
 6849TIP3    H242039   2.709   1.498   6.511  0.7262 -0.0067 -1.1504
 6850TIP3   OH242040   5.427   4.941  10.900 -0.6142 -0.0448 -0.0930
 6850TIP3    H142041   5.514   4.974  10.922 -0.5480 -1.3343  1.7171
 6850TIP3    H242042   5.378   5.019  10.875  0.3929  1.0401  1.1833
 6851TIP3   OH242043   2.005   1.996   6.251  0.2129  0.3006 -0.5769
 6851TIP3    H142044   1.976   2.063   6.314  0.3972 -0.9269  0.8489
 6851TIP3    H242045   2.099   2.014   6.239  0.7688 -1.0350  1.5264
 6852TIP3   OH242046   5.333   5.506  14.235 -0.0777  0.5849 -0.0109
 6852TIP3    H142047   5.429   5.499  14.238 -0.0322  1.5971  1.2760
 6852TIP3    H242048   5.313   5.508  14.142  1.1755  0.4758 -0.3020
 6853TIP3   OH242049   2.563   3.053   3.067 -0.1564 -0.2413  0.2029
 6853TIP3    H142050   2.493   3.027   3.007  2.2407 -0.5551 -2.5875
 6853TIP3    H242051   2.586   2.972   3.114 -1.1095 -0.3157  0.5469
 6854TIP3   OH242052   1.854   3.669  11.203 -0.6245  0.4526 -0.4048
 6854TIP3    H142053   1.875   3.713  11.121  1.2513 -1.0302 -0.7649
 6854TIP3    H242054   1.844   3.577  11.179  0.2212 -0.0395  1.0550
 6855TIP3   OH242055   4.611   1.483  15.781  1.5163 -0.7207 -0.5013
 6855TIP3    H142056   4.594   1.395  15.813  2.9962 -1.5262 -1.8880
 6855TIP3    H242057   4.561   1.490  15.700 -0.7355  0.6785  0.9329
 6856TIP3   OH242058   5.346   1.637  11.631  0.3604 -1.0760  0.1989
 6856TIP3    H142059   5.436   1.607  11.642  0.5231 -0.8063 -0.3877
 6856TIP3    H242060   5.351   1.732  11.647  0.5320 -0.7355 -1.7465
 6857TIP3   OH242061   4.280   1.843  12.834  0.4099  0.0844 -0.1124
 6857TIP3    H142062   4.285   1.780  12.763  0.3022  0.8569 -0.8093
 6857TIP3    H242063   4.349   1.816  12.895 -0.2885 -1.2981  0.0957
 6858TIP3   OH242064   1.556   6.498  11.690 -0.3779  0.5088  0.2159
 6858TIP3    H142065   1.523   6.501  11.779  0.2830 -0.0478  0.4871
 6858TIP3    H242066   1.546   6.407  11.663 -1.3774  0.8489 -0.5909
 6859TIP3   OH242067   0.615   5.026  13.514 -0.2734 -0.0088 -0.2679
 6859TIP3    H142068   0.564   5.081  13.573  0.8131  1.8048 -1.0018
 6859TIP3    H242069   0.602   4.937  13.547  0.9988  1.0355  3.2209
 6860TIP3   OH242070   6.684   1.533   6.235 -0.2156 -0.1474 -0.0611
 6860TIP3    H142071   6.708   1.548   6.326  0.0674  0.2253 -0.1943
 6860TIP3    H242072   6.743   1.590   6.185 -2.5825  2.2118 -0.3197
 6861TIP3   OH242073   1.211   1.466  16.317  0.0018 -0.5429 -0.0496
 6861TIP3    H142074   1.234   1.475  16.224 -0.4239 -2.9782 -0.4155
 6861TIP3    H242075   1.294   1.468  16.363  0.2653 -0.0922 -0.5365
 6862TIP3   OH242076   4.722   1.677   0.523 -0.7994 -0.4457 -0.7956
 6862TIP3    H142077   4.715   1.758   0.473  0.8950  1.2056  1.5728
 6862TIP3    H242078   4.782   1.623   0.471  0.5367  1.0462 -0.8465
 6863TIP3   OH242079   6.443   6.124  15.949  0.1813  0.4509 -0.2898
 6863TIP3    H142080   6.443   6.068  15.872  0.6837 -1.2854  0.9461
 6863TIP3    H242081   6.492   6.202  15.922  2.8380 -1.3692 -0.8896
 6864TIP3   OH242082   4.547   1.686   5.003 -0.3239  0.4284 -0.0568
 6864TIP3    H142083   4.577   1.732   5.081 -1.1536  2.2465 -0.7837
 6864TIP3    H242084   4.621   1.632   4.976  0.1444  0.1809  1.6742
 6865TIP3   OH242085   6.000   5.891  11.524 -0.2492  0.1913  0.3945
 6865TIP3    H142086   5.929   5.888  11.460 -2.2191  0.0756  2.5297
 6865TIP3    H242087   5.968   5.950  11.593  3.7280  4.1172 -0.8767
 6866TIP3   OH242088   3.191   5.242   5.143 -0.2738 -0.0088  0.0918
 6866TIP3    H142089   3.190   5.230   5.049  1.1975 -0.3387  0.0946
 6866TIP3    H242090   3.214   5.155   5.178 -0.2242  0.2519  0.7154
 6867TIP3   OH242091   4.087   0.862  16.683  0.0719  0.2712 -0.1300
 6867TIP3    H142092   4.045   0.798  16.625 -0.8533  0.4009  0.3902
 6867TIP3    H242093   4.101   0.814  16.765  1.0192  0.2063 -0.3260
 6868TIP3   OH242094   2.962   5.708  11.250  0.0706 -0.0224  0.0571
 6868TIP3    H142095   2.971   5.664  11.166  1.4320 -0.7818  0.6039
 6868TIP3    H242096   2.876   5.752  11.244 -0.0389 -0.4166 -1.5431
 6869TIP3   OH242097   4.477   6.668   0.669  0.3624  0.1285  0.8292
 6869TIP3    H142098   4.544   6.654   0.602  1.2992  0.0659  1.7703
 6869TIP3    H242099   4.457   6.761   0.664 -1.2059 -0.2615 -1.0458
 6870TIP3   OH242100   1.258   2.758   3.353  0.7914 -0.1575 -0.1712
 6870TIP3    H142101   1.237   2.837   3.303  2.9192 -0.0899 -1.0238
 6870TIP3    H242102   1.305   2.790   3.430  0.2383 -0.4813  0.3052
 6871TIP3   OH242103   5.664   1.931  15.657 -0.2853  0.2772  0.2304
 6871TIP3    H142104   5.592   1.986  15.625 -0.0881 -0.2746 -1.1638
 6871TIP3    H242105   5.743   1.975  15.626 -0.0661  0.0282  0.4345
 6872TIP3   OH242106   4.133   2.699   0.690  0.1770  0.3101  0.6241
 6872TIP3    H142107   4.081   2.635   0.640  0.8053  0.4722 -0.2469
 6872TIP3    H242108   4.086   2.708   0.773  0.4248 -1.7499  1.0041
 6873TIP3   OH242109   3.034   2.315   6.369 -0.1476  0.2147 -0.2941
 6873TIP3    H142110   2.948   2.273   6.369 -1.2741  2.4554  0.2147
 6873TIP3    H242111   3.096   2.242   6.367 -2.0338 -1.4319 -3.2081
 6874TIP3   OH242112   1.347   4.581   5.465  0.0586 -0.1743 -0.1941
 6874TIP3    H142113   1.423   4.622   5.426  0.3420 -0.9714 -0.4901
 6874TIP3    H242114   1.310   4.648   5.522 -0.0285  0.7993 -1.3854
 6875TIP3   OH242115   1.123   6.783   5.916 -0.1364 -0.1371  0.7987
 6875TIP3    H142116   1.068   6.740   5.981 -3.9898  0.7503 -1.7254
 6875TIP3    H242117   1.136   6.872   5.949  0.3656 -0.5542  1.7260
 6876TIP3   OH242118   5.178   5.906   4.783  0.3478  0.2278 -0.1140
 6876TIP3    H142119   5.130   5.875   4.706  1.7516  0.4439 -1.0993
 6876TIP3    H242120   5.193   5.999   4.765 -1.6156  0.9228  1.6501
 6877TIP3   OH242121   4.601   2.811   5.182  0.7055 -0.5073 -0.0039
 6877TIP3    H142122   4.691   2.840   5.164  0.0251  1.7696  0.1637
 6877TIP3    H242123   4.547   2.862   5.121 -0.6881 -0.1449  1.5108
 6878TIP3   OH242124   0.802   0.206  15.740  0.1992 -0.4140 -0.2338
 6878TIP3    H142125   0.897   0.208  15.740  0.2704 -2.6244 -1.1610
 6878TIP3    H242126   0.776   0.294  15.714  1.9676  0.3805  0.6254
 6879TIP3   OH242127   0.486   1.060  15.813 -0.2673 -0.0117  0.3431
 6879TIP3    H142128   0.575   1.090  15.799 -0.6074  1.8196  1.8264
 6879TIP3    H242129   0.472   1.071  15.907 -2.5846  1.2799 -0.1187
 6880TIP3   OH242130   2.980   5.036   5.016  0.0279  0.0823  0.2423
 6880TIP3    H142131   3.022   5.041   4.930 -1.4072  1.2618 -0.4091
 6880TIP3    H242132   2.932   5.118   5.025 -1.1293 -0.7085  1.4962
 6881TIP3   OH242133   0.896   1.250  13.758  0.1847 -0.2926  0.3609
 6881TIP3    H142134   0.816   1.228  13.711  1.1509 -2.2467 -0.4149
 6881TIP3    H242135   0.966   1.210  13.707  1.5498  0.2804  1.7279
 6882TIP3   OH242136   0.054   3.399  14.873 -0.2404 -0.2682  0.1552
 6882TIP3    H142137   0.093   3.462  14.813  3.6719 -1.4844  1.2871
 6882TIP3    H242138   0.030   3.451  14.950  0.1255  0.3243 -0.1273
 6883TIP3   OH242139   3.034   0.970   0.785 -0.6612 -0.5934  0.4066
 6883TIP3    H142140   3.060   0.901   0.847 -0.5319 -0.4054  0.5624
 6883TIP3    H242141   3.109   1.028   0.781 -1.7912  1.1191  2.4839
 6884TIP3   OH242142   4.554   5.378   5.511  0.2548  0.5995 -0.9895
 6884TIP3    H142143   4.481   5.378   5.572  1.3276  0.8118  0.3156
 6884TIP3    H242144   4.589   5.288   5.515  0.2511  0.5771 -1.3947
 6885TIP3   OH242145   0.925   5.877  12.466  0.8653 -0.1021 -0.3957
 6885TIP3    H142146   0.927   5.835  12.381 -0.0165  0.5418 -0.7514
 6885TIP3    H242147   0.833   5.901  12.478  1.0670  0.2374  0.5184
 6886TIP3   OH242148   4.328   3.332  14.592 -0.0075  0.4051  0.4212
 6886TIP3    H142149   4.390   3.300  14.657 -1.7403 -2.3088  0.8048
 6886TIP3    H242150   4.242   3.307  14.626 -1.1710  1.8252 -1.3529
 6887TIP3   OH242151   4.002   1.118   3.293 -0.0539 -0.4225 -0.0161
 6887TIP3    H142152   3.963   1.186   3.239  0.1150  0.0100  0.4085
 6887TIP3    H242153   4.055   1.067   3.232 -2.7082 -2.1443 -0.9686
 6888TIP3   OH242154   4.706   3.727  15.475 -0.1876 -0.4107 -0.0781
 6888TIP3    H142155   4.728   3.819  15.489  1.3143 -0.7780  0.0085
 6888TIP3    H242156   4.702   3.717  15.380  1.9436 -0.7697 -0.1510
 6889TIP3   OH242157   3.333   0.059   1.138 -0.5349  0.1810  0.5786
 6889TIP3    H142158   3.304   0.149   1.121  1.6869  0.5118 -1.6936
 6889TIP3    H242159   3.396   0.068   1.209 -0.9234  0.3341  0.9033
 6890TIP3   OH242160   2.430   3.651   0.604 -0.1151  0.2653  1.0397
 6890TIP3    H142161   2.471   3.714   0.663  0.6818  1.9853 -1.2649
 6890TIP3    H242162   2.503   3.609   0.559 -0.7026  3.2128 -2.9548
 6891TIP3   OH242163   3.875   2.119  12.002 -0.3630 -0.1664 -0.6264
 6891TIP3    H142164   3.900   2.201  11.959 -0.9075 -0.2834 -1.1803
 6891TIP3    H242165   3.803   2.143  12.060  2.1526  0.5081  2.3250
 6892TIP3   OH242166   2.498   6.133  11.082  0.8114  0.1601 -0.4372
 6892TIP3    H142167   2.478   6.063  11.020 -1.2587  0.7126 -0.4287
 6892TIP3    H242168   2.546   6.198  11.030 -1.5210  0.9514 -1.7111
 6893TIP3   OH242169   2.845   4.592  13.752  0.3723 -0.3049  0.2193
 6893TIP3    H142170   2.853   4.568  13.660  1.5015  0.4266  0.1200
 6893TIP3    H242171   2.840   4.688  13.752  1.3589 -0.2442  0.9832
 6894TIP3   OH242172   6.811   4.993   1.805 -0.3593  0.4923  0.3770
 6894TIP3    H142173   6.718   4.999   1.827 -0.0518  0.7721  1.6281
 6894TIP3    H242174   6.838   4.906   1.834 -0.3637  0.1759 -0.5400
 6895TIP3   OH242175   3.933   4.608  15.531  0.2820 -0.2139  0.0795
 6895TIP3    H142176   3.982   4.687  15.509 -2.8668  1.6801 -0.3205
 6895TIP3    H242177   3.911   4.618  15.624  0.6399 -1.0646  0.2628
 6896TIP3   OH242178   1.344   4.103   4.132  0.2334 -0.0678  0.1267
 6896TIP3    H142179   1.362   4.102   4.226  0.9284  1.8899  0.0370
 6896TIP3    H242180   1.430   4.105   4.091 -0.0700  1.0984 -0.4832
 6897TIP3   OH242181   0.701   3.392   4.628 -0.2543 -0.1816 -0.2813
 6897TIP3    H142182   0.675   3.305   4.658 -3.3190  0.7895  0.0147
 6897TIP3    H242183   0.748   3.430   4.703  0.3158 -1.2193 -0.1000
 6898TIP3   OH242184   6.301   5.146  10.664  1.1140 -0.0728 -0.0136
 6898TIP3    H142185   6.390   5.167  10.637  1.2562 -1.8001 -1.0078
 6898TIP3    H242186   6.255   5.230  10.666  2.4868  0.6943 -0.5372
 6899TIP3   OH242187   4.485   1.911  13.897  0.3221  0.1289 -0.3256
 6899TIP3    H142188   4.449   1.968  13.828  0.1305 -0.1465 -0.4533
 6899TIP3    H242189   4.480   1.964  13.976 -1.3600 -0.2822 -0.1369
 6900TIP3   OH242190   4.583   4.460  16.668  1.0197  0.5499 -1.0688
 6900TIP3    H142191   4.607   4.549  16.695  1.4707 -0.0833  0.7223
 6900TIP3    H242192   4.661   4.408  16.686  0.0922 -0.5711 -0.1958
 6901TIP3   OH242193   6.000   3.792   1.309 -0.3319  0.1985  0.3009
 6901TIP3    H142194   5.987   3.886   1.322 -0.9338 -0.0157  1.3470
 6901TIP3    H242195   5.931   3.751   1.361 -0.7483 -0.8077 -1.0321
 6902TIP3   OH242196   6.567   6.106   2.181 -0.1429 -0.4288  0.1753
 6902TIP3    H142197   6.501   6.167   2.149 -0.0721 -0.1732  0.5185
 6902TIP3    H242198   6.566   6.034   2.117 -0.3904 -0.1834 -0.0980
 6903TIP3   OH242199   0.765   4.729   5.580  0.1147 -0.4236 -0.2481
 6903TIP3    H142200   0.842   4.771   5.620  0.3984 -0.0139 -1.2052
 6903TIP3    H242201   0.757   4.771   5.494 -0.0012 -1.8569 -0.9481
 6904TIP3   OH242202   0.251   5.955  14.701  0.1890 -0.1129  0.2228
 6904TIP3    H142203   0.253   5.899  14.778 -0.4829 -1.8871 -1.0162
 6904TIP3    H242204   0.191   5.911  14.641  1.3011  0.8346 -1.6253
 6905TIP3   OH242205   0.276   1.520   2.894  0.5580  0.3915  0.5091
 6905TIP3    H142206   0.189   1.527   2.855  0.4770  3.1836  1.0749
 6905TIP3    H242207   0.328   1.473   2.828 -1.1543 -0.5635 -0.1869
 6906TIP3   OH242208   5.429   1.458  16.037  0.0371  0.3913  0.0462
 6906TIP3    H142209   5.505   1.516  16.028  0.3938 -0.2810 -1.3616
 6906TIP3    H242210   5.354   1.517  16.034  0.4761  1.0365  1.1917
 6907TIP3   OH242211   0.251   4.494   3.064  0.1026 -0.3450 -0.0651
 6907TIP3    H142212   0.343   4.518   3.055  0.4860 -2.0831 -1.0409
 6907TIP3    H242213   0.203   4.576   3.052  1.4249  0.1691 -2.0072
 6908TIP3   OH242214   1.468   3.152   3.294  0.2992  0.3419  0.5214
 6908TIP3    H142215   1.479   3.080   3.232  1.2603 -0.5260  1.6682
 6908TIP3    H242216   1.500   3.229   3.247  2.8228 -0.6237  0.5910
 6909TIP3   OH242217   2.799   4.055  12.822 -0.5434  0.2321 -0.1580
 6909TIP3    H142218   2.807   3.963  12.796  0.0119 -0.6117  2.8120
 6909TIP3    H242219   2.887   4.081  12.848 -1.0219  1.0624  0.6787
 6910TIP3   OH242220   5.731   5.743  11.310 -0.0459 -0.3625  0.6139
 6910TIP3    H142221   5.760   5.678  11.374 -1.8774 -1.6296  0.1945
 6910TIP3    H242222   5.641   5.718  11.290 -0.2268  1.3408 -0.7922
 6911TIP3   OH242223   5.488   2.025   4.106  0.4536  0.4974  0.6622
 6911TIP3    H142224   5.545   2.056   4.036  0.6001  1.6222  1.2669
 6911TIP3    H242225   5.401   2.057   4.082  0.5758  1.2400  1.2016
 6912TIP3   OH242226   3.688   2.869  14.852 -0.3713 -0.0924  0.0325
 6912TIP3    H142227   3.679   2.780  14.817 -0.8654  0.0236 -0.1376
 6912TIP3    H242228   3.773   2.868  14.896 -0.5328 -0.7570  0.3483
 6913TIP3   OH242229   3.383   0.151   4.670  0.1569 -0.2486 -0.2096
 6913TIP3    H142230   3.352   0.133   4.581  1.1284  0.4647 -0.7000
 6913TIP3    H242231   3.433   0.073   4.694 -1.8349 -1.3412  0.5279
 6914TIP3   OH242232   6.788   2.863  13.560 -0.1197  0.1955 -0.0622
 6914TIP3    H142233   6.697   2.876  13.534 -0.6904 -0.8880  1.3351
 6914TIP3    H242234   6.814   2.945  13.601 -0.0719  0.9406 -1.5660
 6915TIP3   OH242235   1.575   1.829  12.902 -0.5652 -0.0827 -0.5153
 6915TIP3    H142236   1.542   1.871  12.982  0.9725  0.3886 -0.1187
 6915TIP3    H242237   1.664   1.801  12.925 -0.3356 -0.4859 -1.8777
 6916TIP3   OH242238   6.096   6.220  12.678 -0.2985  0.4186  0.4129
 6916TIP3    H142239   6.054   6.136  12.695 -2.0596  0.7230 -2.0657
 6916TIP3    H242240   6.129   6.212  12.588 -1.7287  2.8008 -0.3839
 6917TIP3   OH242241   2.676   6.696  13.736 -0.0246  1.0656 -1.0390
 6917TIP3    H142242   2.618   6.620  13.747 -0.7682  1.7196 -0.4078
 6917TIP3    H242243   2.617   6.769  13.716  0.7634  1.2999 -2.5932
 6918TIP3   OH242244   1.043   2.255  16.225  0.2227  0.2824 -0.3327
 6918TIP3    H142245   1.051   2.253  16.320 -0.9916 -0.8067 -0.2378
 6918TIP3    H242246   1.021   2.165  16.201 -2.5952  1.1941 -1.3481
 6919TIP3   OH242247   5.558   2.309  15.957 -0.5721  0.3963 -0.0317
 6919TIP3    H142248   5.596   2.366  15.889 -2.1036  2.0021  0.4001
 6919TIP3    H242249   5.465   2.333  15.958 -2.0763 -4.5903 -2.2632
 6920TIP3   OH242250   5.925   5.268   6.150  0.2513 -0.2043  0.3489
 6920TIP3    H142251   5.861   5.203   6.123  1.7424 -0.7530 -1.9419
 6920TIP3    H242252   5.985   5.221   6.208  1.9406 -1.1965 -2.1336
 6921TIP3   OH242253   2.749   2.076  14.301 -0.1692  0.0808  0.4036
 6921TIP3    H142254   2.752   2.037  14.388 -0.4563  0.2397  0.4860
 6921TIP3    H242255   2.720   2.166  14.316  0.7309  0.3979  0.2309
 6922TIP3   OH242256   0.449   4.506   0.974 -0.1233  0.1360 -0.1517
 6922TIP3    H142257   0.373   4.538   1.023  0.1533 -0.5678  0.7708
 6922TIP3    H242258   0.521   4.563   1.002 -0.3167  0.8240 -1.0508
 6923TIP3   OH242259   4.618   3.512  11.973  0.2374 -0.3492 -0.0958
 6923TIP3    H142260   4.562   3.486  11.900  0.1508  1.3775 -0.6637
 6923TIP3    H242261   4.562   3.566  12.029  1.1326  0.8354 -0.3200
 6924TIP3   OH242262   6.309   6.070  13.523 -0.0767 -0.2576  0.5091
 6924TIP3    H142263   6.392   6.089  13.566  0.5143 -0.3609 -0.5568
 6924TIP3    H242264   6.299   5.976  13.531  1.8380 -0.8043 -2.6981
 6925TIP3   OH242265   2.658   0.465   2.916  0.3321  0.3988  0.7482
 6925TIP3    H142266   2.727   0.447   2.852 -0.1523  1.2985 -0.0432
 6925TIP3    H242267   2.579   0.425   2.878  0.1654  0.4458  1.0481
 6926TIP3   OH242268   1.031   4.476   3.758  0.0903 -0.0365  0.0077
 6926TIP3    H142269   1.100   4.516   3.811 -0.2099  1.3342 -0.5925
 6926TIP3    H242270   1.069   4.395   3.725  1.2573  0.4791  0.0579
 6927TIP3   OH242271   3.397   3.445  13.986 -0.3840 -0.2646 -0.2410
 6927TIP3    H142272   3.334   3.487  14.044  0.4318  1.3997 -0.5239
 6927TIP3    H242273   3.424   3.515  13.925 -0.1127 -1.5807 -1.6645
 6928TIP3   OH242274   1.163   0.232  16.374 -0.1151  0.1292 -0.4068
 6928TIP3    H142275   1.162   0.292  16.448 -2.2001  0.0278 -0.3121
 6928TIP3    H242276   1.096   0.167  16.395  0.8481 -1.2081 -1.3362
 6929TIP3   OH242277   6.787   3.753  11.424  0.2121 -0.1385 -0.8349
 6929TIP3    H142278   6.703   3.792  11.400  0.8401  0.1548 -2.6737
 6929TIP3    H242279   6.763   3.672  11.469 -1.0637  0.7514  0.1266
 6930TIP3   OH242280   5.572   5.372   1.072 -0.1298 -0.5728 -0.0900
 6930TIP3    H142281   5.605   5.296   1.025  1.6813  0.5964 -0.7361
 6930TIP3    H242282   5.600   5.358   1.163 -1.8827 -1.8244  0.2972
 6931TIP3   OH242283   3.249   1.416   3.013  0.4999 -0.0086 -0.6966
 6931TIP3    H142284   3.337   1.386   3.036 -0.1748 -0.4065  1.4976
 6931TIP3    H242285   3.208   1.340   2.972  1.1778  0.2005 -1.7959
 6932TIP3   OH242286   5.195   6.719  15.405  0.5188 -0.4393 -0.0445
 6932TIP3    H142287   5.131   6.788  15.388  0.8781  0.0179  0.4216
 6932TIP3    H242288   5.147   6.638  15.392 -0.0649 -0.0967 -0.0423
 6933TIP3   OH242289   4.018   3.315   1.350 -0.3496 -0.2108  0.5046
 6933TIP3    H142290   4.079   3.374   1.308 -1.7755  1.7492  1.1000
 6933TIP3    H242291   4.073   3.254   1.399  1.1929 -0.5034 -1.5376
 6934TIP3   OH242292   0.594   5.786   0.862  0.3115 -0.4822 -1.0936
 6934TIP3    H142293   0.675   5.739   0.843 -0.0728 -1.1503 -1.0987
 6934TIP3    H242294   0.532   5.717   0.887  0.2634  0.1893  0.7012
 6935TIP3   OH242295   6.739   2.046  11.087  0.2844  0.0743 -0.3148
 6935TIP3    H142296   6.733   2.140  11.106  1.8939 -0.1667  1.5174
 6935TIP3    H242297   6.832   2.029  11.074  0.0070 -1.2770 -0.6301
 6936TIP3   OH242298   6.275   4.787  13.833  0.0307  0.4110  0.1897
 6936TIP3    H142299   6.266   4.858  13.897 -2.9424 -1.4102  1.8594
 6936TIP3    H242300   6.230   4.820  13.755 -0.2464  0.8374  0.5271
 6937TIP3   OH242301   6.048   0.486   5.290 -0.2086 -0.0633  0.3000
 6937TIP3    H142302   6.014   0.492   5.379  0.8278 -0.6156  0.7527
 6937TIP3    H242303   6.131   0.535   5.293  0.2961 -0.8769 -0.1051
 6938TIP3   OH242304   0.325   4.146   3.550 -0.1087 -0.2563 -0.3201
 6938TIP3    H142305   0.367   4.226   3.578  0.1410 -0.3615 -0.3911
 6938TIP3    H242306   0.351   4.136   3.458 -0.4308 -0.2274 -0.4147
 6939TIP3   OH242307   3.328   4.686   0.262  0.1204 -0.2904 -0.2082
 6939TIP3    H142308   3.394   4.733   0.211 -0.2603 -0.0638 -0.5028
 6939TIP3    H242309   3.344   4.594   0.245  0.6037 -0.2490  0.0294
 6940TIP3   OH242310   6.453   4.325  15.669 -0.3717  0.4576  0.2816
 6940TIP3    H142311   6.539   4.296  15.639  0.1234  0.3874  1.7477
 6940TIP3    H242312   6.409   4.355  15.589  0.3885 -1.0517 -0.7380
 6941TIP3   OH242313   1.438   3.697   4.403 -0.0748  0.1511 -0.1733
 6941TIP3    H142314   1.459   3.686   4.310 -1.5093  1.0026 -0.6107
 6941TIP3    H242315   1.369   3.763   4.404 -0.4866 -0.2943  1.4617
 6942TIP3   OH242316   2.926   1.982   0.017 -0.0395  0.4834  0.0251
 6942TIP3    H142317   2.988   1.910   0.005  0.5561  0.7205  1.5552
 6942TIP3    H242318   2.903   2.009  -0.072  0.4350 -0.9842 -0.5657
 6943TIP3   OH242319   5.275   5.547   5.872 -0.1704 -0.4729  0.2453
 6943TIP3    H142320   5.335   5.618   5.846  1.1155 -1.0565  1.5456
 6943TIP3    H242321   5.202   5.554   5.810  2.0502 -0.8246 -2.5404
 6944TIP3   OH242322   1.137   4.586  12.759 -0.1895 -0.4369 -0.2417
 6944TIP3    H142323   1.209   4.591  12.821  0.5001 -2.1860 -0.8625
 6944TIP3    H242324   1.169   4.632  12.681  0.9913 -2.6567 -1.1462
 6945TIP3   OH242325   3.857   4.021   6.534  0.1108  0.0266  0.4247
 6945TIP3    H142326   3.857   3.943   6.589  1.0604 -0.5513 -0.3710
 6945TIP3    H242327   3.794   4.002   6.465  0.1997  0.0549  0.3367
 6946TIP3   OH242328   0.199   5.474  14.560 -0.0967  0.2031 -0.0651
 6946TIP3    H142329   0.209   5.569  14.564 -2.1700  0.3939  1.2022
 6946TIP3    H242330   0.188   5.447  14.651 -1.8212 -0.9781 -0.5989
 6947TIP3   OH242331   1.281   1.472   6.295  0.0376 -0.1462  0.6917
 6947TIP3    H142332   1.355   1.475   6.355  0.3463  0.9488  0.2748
 6947TIP3    H242333   1.233   1.553   6.312 -1.2272 -0.9814  1.1563
 6948TIP3   OH242334   3.875   1.596   4.996  0.1787 -0.1390 -0.5442
 6948TIP3    H142335   3.865   1.691   4.994  0.9042 -0.0664 -0.9328
 6948TIP3    H242336   3.899   1.572   4.907  1.7162 -0.4803 -0.0638
 6949TIP3   OH242337   2.867   4.811   1.993  0.2960 -0.3898  0.2611
 6949TIP3    H142338   2.934   4.763   2.041  0.2750  0.4174  1.1076
 6949TIP3    H242339   2.805   4.744   1.964  0.8913 -1.0096  0.3914
 6950TIP3   OH242340   1.189   3.633   2.960 -0.0442  0.4911 -0.2303
 6950TIP3    H142341   1.148   3.550   2.985 -0.4194  0.3275 -1.3596
 6950TIP3    H242342   1.115   3.693   2.945  0.2156  0.9290  0.2119
 6951TIP3   OH242343   5.638   5.688  16.057 -0.1092  0.2556 -0.1776
 6951TIP3    H142344   5.562   5.654  16.105  1.3622 -1.3901  1.0294
 6951TIP3    H242345   5.606   5.698  15.967 -1.6024 -0.9960  0.1849
 6952TIP3   OH242346   4.314   6.483   0.023 -0.2234 -0.2902  0.3317
 6952TIP3    H142347   4.240   6.425   0.004 -0.2944  0.0942 -0.6439
 6952TIP3    H242348   4.372   6.472  -0.052  0.1998  0.2033  0.5873
 6953TIP3   OH242349   6.360   3.344   5.166 -0.0108  0.0380 -0.0596
 6953TIP3    H142350   6.281   3.360   5.217 -0.5363  0.0336 -0.8595
 6953TIP3    H242351   6.329   3.302   5.086  0.8716 -0.6035 -0.0828
 6954TIP3   OH242352   3.736   0.089   2.239  0.6189  0.0638  0.9221
 6954TIP3    H142353   3.756   0.013   2.185  0.5622  0.0478  0.9232
 6954TIP3    H242354   3.736   0.055   2.329 -1.3983 -0.3724  0.7858
 6955TIP3   OH242355   1.684   5.851  16.926  0.3891 -0.2866 -0.8040
 6955TIP3    H142356   1.603   5.839  16.976 -0.3595  1.2789 -1.6275
 6955TIP3    H242357   1.733   5.916  16.976  0.3623  0.0674 -1.2394
 6956TIP3   OH242358   2.716   2.391   5.219  0.2871 -0.0261 -0.3439
 6956TIP3    H142359   2.686   2.326   5.282 -0.4010 -2.0676 -2.6922
 6956TIP3    H242360   2.812   2.387   5.223  0.2875  1.4495  2.0924
 6957TIP3   OH242361   4.517   0.583  12.080  0.6171  0.2656  0.1117
 6957TIP3    H142362   4.611   0.597  12.087  0.2995  3.7506 -1.4543
 6957TIP3    H242363   4.508   0.494  12.048  3.3262 -0.4450  1.1584
 6958TIP3   OH242364   1.844   3.144  15.981 -0.2010 -0.5716 -0.2659
 6958TIP3    H142365   1.860   3.238  15.970 -0.6210 -0.3052  1.3075
 6958TIP3    H242366   1.931   3.104  15.973  0.0590  0.0072 -0.4000
 6959TIP3   OH242367   5.020   5.068  15.413 -0.0464  0.5569 -0.8719
 6959TIP3    H142368   5.082   5.123  15.461  0.7620  0.2870 -1.6113
 6959TIP3    H242369   5.070   5.033  15.340 -1.0845  0.3773 -1.5024
 6960TIP3   OH242370   5.408   0.741  12.483 -0.0778 -0.2944  1.0296
 6960TIP3    H142371   5.390   0.727  12.390  0.3882  1.6910  0.6131
 6960TIP3    H242372   5.494   0.702  12.498  0.8464  1.3356  0.0920
 6961TIP3   OH242373   3.195   5.594   6.398  0.3370  0.1943  0.7180
 6961TIP3    H142374   3.187   5.523   6.462  0.3460 -0.8916 -0.4735
 6961TIP3    H242375   3.201   5.674   6.452  0.2672 -0.6865  2.0634
 6962TIP3   OH242376   3.163   0.619   0.640  0.7702  0.1680 -0.4594
 6962TIP3    H142377   3.088   0.640   0.694  0.1746 -0.3943 -1.0543
 6962TIP3    H242378   3.221   0.694   0.648 -0.4616  1.1857 -1.0596
 6963TIP3   OH242379   0.609   1.594   0.568 -0.0406  0.1177 -0.7800
 6963TIP3    H142380   0.646   1.604   0.656  1.2234  1.2934 -1.4050
 6963TIP3    H242381   0.609   1.683   0.533  0.8513 -0.5362 -2.4917
 6964TIP3   OH242382   5.616   2.172   5.695  0.4963  0.5838  0.3064
 6964TIP3    H142383   5.669   2.125   5.759 -0.8376 -2.3523 -0.6952
 6964TIP3    H242384   5.526   2.161   5.724  0.0274  1.0196 -0.9200
 6965TIP3   OH242385   2.066   1.844  14.273 -0.4473 -0.0774 -0.2835
 6965TIP3    H142386   2.066   1.754  14.239 -0.6769  0.6713 -2.3401
 6965TIP3    H242387   2.157   1.860  14.299  0.1198 -0.1063 -2.1660
 6966TIP3   OH242388   3.497   0.747   4.620  0.0887  0.2175  0.3441
 6966TIP3    H142389   3.557   0.788   4.557  0.1870  1.2190  1.0666
 6966TIP3    H242390   3.549   0.739   4.700  0.0805 -1.3964  0.2054
 6967TIP3   OH242391   4.539   3.418  13.062 -0.8194  0.1040  0.2127
 6967TIP3    H142392   4.479   3.464  13.121 -1.2925 -0.8142  0.4674
 6967TIP3    H242393   4.485   3.351  13.020 -0.3224  0.2821 -0.7400
 6968TIP3   OH242394   1.298   0.221   5.528 -0.4863  0.3303 -0.3350
 6968TIP3    H142395   1.252   0.141   5.502  0.8847 -1.1786  1.7263
 6968TIP3    H242396   1.257   0.247   5.610  1.7808 -0.6488  1.1656
 6969TIP3   OH242397   1.767   5.161   2.486  0.1508  0.1040  0.6384
 6969TIP3    H142398   1.823   5.084   2.495  0.8545  0.5753  0.3833
 6969TIP3    H242399   1.730   5.174   2.573 -1.2309 -1.4594  0.3014
 6970TIP3   OH242400   0.985   3.508   6.142  0.0721 -0.5161 -0.1295
 6970TIP3    H142401   1.052   3.511   6.074  0.5169 -1.0252  0.2874
 6970TIP3    H242402   0.989   3.420   6.178  1.7251  0.5431  2.4325
 6971TIP3   OH242403   3.033   3.812  17.086  0.6306 -0.1043  0.1633
 6971TIP3    H142404   3.001   3.745  17.026  0.7591  0.3509 -0.4196
 6971TIP3    H242405   3.127   3.820  17.065  0.3672  1.1408 -0.6433
 6972TIP3   OH242406   2.841   1.096   2.082 -0.3860  0.4130 -0.6779
 6972TIP3    H142407   2.784   1.094   2.159  0.2850 -2.2598 -0.1775
 6972TIP3    H242408   2.785   1.065   2.011 -0.2566  0.1806 -0.6806
 6973TIP3   OH242409   1.429   6.340  15.554 -0.2363  0.5805  0.0206
 6973TIP3    H142410   1.340   6.370  15.571 -0.6352 -0.6166  0.0929
 6973TIP3    H242411   1.420   6.246  15.538  1.3100 -0.0135  2.3492
 6974TIP3   OH242412   5.959   4.014  11.895  0.0766  0.0918  0.3347
 6974TIP3    H142413   5.973   3.919  11.901 -0.6160 -0.0606 -0.3898
 6974TIP3    H242414   5.944   4.042  11.985  0.3582 -0.4791  0.5612
 6975TIP3   OH242415   0.527   2.721  14.906 -0.5705  0.4587 -0.0335
 6975TIP3    H142416   0.462   2.774  14.952  0.2214  1.9729 -0.6354
 6975TIP3    H242417   0.605   2.776  14.902 -0.2277 -0.1137 -2.0740
 6976TIP3   OH242418   4.170   2.612  12.953  0.0721 -0.4991  0.3075
 6976TIP3    H142419   4.125   2.646  13.030  1.5864 -0.6374  1.2709
 6976TIP3    H242420   4.101   2.568  12.902 -0.9245 -0.4748  1.6176
 6977TIP3   OH242421   2.610   2.381  13.039  0.2138 -0.3267 -0.1937
 6977TIP3    H142422   2.534   2.337  13.002  0.0934 -0.0514 -0.2678
 6977TIP3    H242423   2.610   2.468  13.000  1.2666 -0.7436 -1.1410
 6978TIP3   OH242424   1.507   4.208   4.679 -0.4182 -0.1299  0.3886
 6978TIP3    H142425   1.414   4.216   4.663 -0.4748 -0.1638  0.6909
 6978TIP3    H242426   1.513   4.153   4.757 -0.1657  0.2738  0.6610
 6979TIP3   OH242427   5.828   3.826   0.748 -0.0149  0.0014 -0.6043
 6979TIP3    H142428   5.863   3.738   0.738 -2.1029 -1.0509  0.7058
 6979TIP3    H242429   5.812   3.834   0.843 -1.4065  1.1362 -0.9165
 6980TIP3   OH242430   6.707   0.398   0.530 -0.2932  0.1039  0.2319
 6980TIP3    H142431   6.769   0.443   0.588  2.4569 -1.0759 -1.7161
 6980TIP3    H242432   6.643   0.359   0.590  1.0269  1.0305  2.3184
 6981TIP3   OH242433   3.461   6.107   3.534 -0.1466  0.2743  0.0585
 6981TIP3    H142434   3.510   6.074   3.609  1.3180 -1.4623 -1.5894
 6981TIP3    H242435   3.528   6.128   3.469 -1.4139  1.1047 -1.0077
 6982TIP3   OH242436   5.042   1.859  11.210  0.2747 -0.3531 -0.2649
 6982TIP3    H142437   4.982   1.803  11.162 -0.8649 -0.0218  0.7399
 6982TIP3    H242438   5.078   1.803  11.279 -0.4920  0.0042  0.4354
 6983TIP3   OH242439   6.644   5.744  14.875  0.5702  0.1584 -0.0053
 6983TIP3    H142440   6.673   5.661  14.835 -2.5500  0.0710 -2.2962
 6983TIP3    H242441   6.648   5.728  14.969 -0.7062 -2.9305 -0.4104
 6984TIP3   OH242442   1.284   2.969   6.517  0.1568  0.3984  0.1707
 6984TIP3    H142443   1.250   2.966   6.606 -0.9562  0.4975 -0.2354
 6984TIP3    H242444   1.218   3.019   6.468  0.8501  0.5090 -0.6599
 6985TIP3   OH242445   1.081   0.522  15.127 -0.1316 -0.3104  0.0031
 6985TIP3    H142446   1.022   0.596  15.135 -2.7320 -2.2528 -0.4606
 6985TIP3    H242447   1.166   0.555  15.157 -1.6581  2.2645  1.6735
 6986TIP3   OH242448   3.856   4.263   1.244 -0.2616 -0.2685  0.2718
 6986TIP3    H142449   3.811   4.221   1.317 -0.1352 -0.5481  0.1933
 6986TIP3    H242450   3.811   4.346   1.232 -1.0968 -0.7750 -0.1504
 6987TIP3   OH242451   4.975   5.602  16.516  0.6913 -0.1063  0.6494
 6987TIP3    H142452   4.962   5.518  16.471  2.1104 -0.3869  0.7554
 6987TIP3    H242453   4.923   5.664  16.465 -1.5987 -1.3132  1.4453
 6988TIP3   OH242454   4.119   4.839  11.407  0.6343  0.2396  0.3727
 6988TIP3    H142455   4.198   4.807  11.451  0.3400 -1.6159 -0.4010
 6988TIP3    H242456   4.062   4.762  11.401 -0.8529  1.3336  0.0704
 6989TIP3   OH242457   3.781   4.134  14.247  0.1913  0.2123  0.3818
 6989TIP3    H142458   3.767   4.041  14.263 -1.2428  0.1030 -1.4191
 6989TIP3    H242459   3.743   4.178  14.324  0.4809 -0.6560  1.0238
 6990TIP3   OH242460   0.322   2.154  11.298  0.2443  1.0855  0.5504
 6990TIP3    H142461   0.257   2.158  11.368  0.3589 -1.4002  0.8366
 6990TIP3    H242462   0.405   2.134  11.343  0.0834 -1.8501 -0.3625
 6991TIP3   OH242463   4.161   1.252  14.153  0.3665  0.5463 -0.3239
 6991TIP3    H142464   4.234   1.287  14.205  0.5428 -0.7026  0.2903
 6991TIP3    H242465   4.178   1.282  14.064  1.3621  0.6848 -0.0925
 6992TIP3   OH242466   3.336   1.520   3.619 -0.4888  0.6623  0.5534
 6992TIP3    H142467   3.242   1.525   3.601 -0.1808  1.5933 -0.8680
 6992TIP3    H242468   3.342   1.471   3.701 -2.1519 -0.3442  0.0967
 6993TIP3   OH242469   0.967   5.023   4.579  0.4711  0.4322 -0.5520
 6993TIP3    H142470   1.027   4.959   4.618  0.0882  0.1096 -0.4927
 6993TIP3    H242471   0.912   5.052   4.651 -1.3555 -1.4079 -1.1565
 6994TIP3   OH242472   5.660   6.412   3.306 -0.1047 -0.3151  0.4036
 6994TIP3    H142473   5.704   6.422   3.390 -0.7720 -0.6325  0.8001
 6994TIP3    H242474   5.663   6.499   3.267 -2.0717  0.4691  1.9180
 6995TIP3   OH242475   5.054   5.885  16.502  0.1641 -0.0476 -0.4888
 6995TIP3    H142476   5.145   5.865  16.482  0.3301  0.4127 -0.2260
 6995TIP3    H242477   5.013   5.800  16.515  0.2104 -0.3285 -2.0502
 6996TIP3   OH242478   3.745   2.243  11.457  0.3266  0.0063 -0.4737
 6996TIP3    H142479   3.657   2.278  11.447  0.0431 -0.8443 -0.9716
 6996TIP3    H242480   3.799   2.298  11.400  0.2175  0.8507  0.2130
 6997TIP3   OH242481   5.331   6.235   5.128 -0.4703  1.2872 -0.8710
 6997TIP3    H142482   5.262   6.282   5.173  0.0751  0.5639  0.7793
 6997TIP3    H242483   5.286   6.163   5.083 -0.8127  0.8422  0.1629
 6998TIP3   OH242484   3.944   5.738  11.253  0.3758 -0.0548 -0.0648
 6998TIP3    H142485   4.002   5.805  11.290  0.8970 -0.0678 -0.8440
 6998TIP3    H242486   3.913   5.688  11.329  1.9304 -0.4962  0.3027
 6999TIP3   OH242487   3.295   4.075  14.425  0.5796 -0.4675 -0.2058
 6999TIP3    H142488   3.356   4.010  14.461 -0.2934 -0.9536  0.4143
 6999TIP3    H242489   3.211   4.052  14.463  0.3488  1.3661  0.4295
 7000TIP3   OH242490   6.491   3.637   3.718  0.0964  0.5593 -0.0237
 7000TIP3    H142491   6.551   3.620   3.646 -0.3264 -0.6787 -0.0915
 7000TIP3    H242492   6.536   3.703   3.771  1.0637  0.3911 -0.6219
 7001TIP3   OH242493   6.318   4.398  11.167 -0.1387  0.3514  0.6014
 7001TIP3    H142494   6.370   4.338  11.114  2.9071  2.1933  1.3565
 7001TIP3    H242495   6.255   4.437  11.105 -0.3423 -1.5911 -0.4345
 7002TIP3   OH242496   6.213   0.658   1.061 -0.3299  0.1561  0.2904
 7002TIP3    H142497   6.207   0.563   1.067 -0.0335  0.2787  3.2053
 7002TIP3    H242498   6.295   0.674   1.014 -0.4026 -1.0104 -0.2508
 7003TIP3   OH242499   2.728   1.104  12.431 -0.6109 -0.3314 -0.4415
 7003TIP3    H142500   2.771   1.055  12.501 -1.0465  0.3149  0.2823
 7003TIP3    H242501   2.800   1.147  12.384 -0.5607  2.6348  2.1699
 7004TIP3   OH242502   5.446   1.406  13.645  0.6538  0.1287 -0.3696
 7004TIP3    H142503   5.444   1.429  13.738  0.6256  0.5048 -0.4603
 7004TIP3    H242504   5.414   1.316  13.642  1.8120 -0.3223  0.1144
 7005TIP3   OH242505   2.774   0.356   5.974 -0.3232 -0.2237 -0.1288
 7005TIP3    H142506   2.724   0.341   6.055  1.0778 -2.2811  0.3948
 7005TIP3    H242507   2.807   0.445   5.983  0.9289 -0.8616  2.2455
 7006TIP3   OH242508   4.522   0.222  13.152  0.7788 -0.1598 -0.0025
 7006TIP3    H142509   4.522   0.140  13.201 -0.3486 -0.9372 -1.2482
 7006TIP3    H242510   4.501   0.289  13.217  0.6503 -0.9951  0.8272
 7007TIP3   OH242511   1.041   3.156  15.716 -0.1884 -0.1467 -0.0595
 7007TIP3    H142512   1.112   3.110  15.671 -0.9010 -1.5205  0.2253
 7007TIP3    H242513   1.016   3.226  15.655  1.0673  0.0583 -0.3721
 7008TIP3   OH242514   5.824   5.765   1.655  0.0913 -0.5639  0.0985
 7008TIP3    H142515   5.835   5.760   1.750  0.2644  0.7862  0.1593
 7008TIP3    H242516   5.730   5.754   1.641  0.0964 -1.0074  0.4049
 7009TIP3   OH242517   1.702   3.280  14.594 -0.0756  0.2944  0.2262
 7009TIP3    H142518   1.702   3.346  14.524  1.4392  0.2774  0.2049
 7009TIP3    H242519   1.788   3.288  14.635  0.1382 -1.6892  0.2173
 7010TIP3   OH242520   5.427   4.272  13.224 -0.1511  0.4768  0.5616
 7010TIP3    H142521   5.393   4.194  13.269 -1.2130  0.6254  0.0276
 7010TIP3    H242522   5.408   4.344  13.283  0.8317  0.3456  1.0544
 7011TIP3   OH242523   4.423   3.524  11.338 -0.0023  0.2955 -0.5767
 7011TIP3    H142524   4.381   3.557  11.418  0.1787 -1.8203  0.4392
 7011TIP3    H242525   4.515   3.510  11.364  0.6038  1.7734 -1.8387
 7012TIP3   OH242526   3.855   3.697   2.734 -0.3831  0.1221  0.4514
 7012TIP3    H142527   3.857   3.662   2.645  0.7859  0.7843  0.2055
 7012TIP3    H242528   3.763   3.715   2.751 -0.9798 -2.8613  0.5235
 7013TIP3   OH242529   1.980   2.852   5.418 -0.7757  0.4330 -0.1484
 7013TIP3    H142530   2.002   2.893   5.335 -0.7524 -0.2961 -0.5006
 7013TIP3    H242531   1.947   2.766   5.395  1.6969 -0.7937  0.7318
 7014TIP3   OH242532   1.077   4.336  14.366  0.7363  0.2871  0.4198
 7014TIP3    H142533   1.014   4.402  14.337  0.0323 -0.6693 -0.2683
 7014TIP3    H242534   1.148   4.387  14.406  0.4806  1.4930 -0.6088
 7015TIP3   OH242535   3.237   0.160  14.821  0.7391 -0.5279  0.8691
 7015TIP3    H142536   3.223   0.226  14.889  0.6785  1.4061 -0.9637
 7015TIP3    H242537   3.149   0.144  14.785  0.9162 -0.8186  0.5624
 7016TIP3   OH242538   0.734   5.271  12.709  0.3429 -0.5444 -0.6326
 7016TIP3    H142539   0.673   5.272  12.783  1.8335 -0.9731  0.6278
 7016TIP3    H242540   0.750   5.178  12.692  1.8853 -0.4253  0.1004
 7017TIP3   OH242541   4.802   3.542   2.304  0.1301  0.3243 -0.1339
 7017TIP3    H142542   4.850   3.621   2.329 -0.1727  0.7772 -0.9715
 7017TIP3    H242543   4.868   3.473   2.305  0.4015  0.5809  0.5944
 7018TIP3   OH242544   3.091   3.310  13.834  0.1568  0.1789 -0.0822
 7018TIP3    H142545   3.085   3.275  13.923  0.2325  0.2047 -0.0664
 7018TIP3    H242546   3.004   3.345  13.816  0.6657  1.9181  0.7086
 7019TIP3   OH242547   4.298   5.185   5.911 -0.1122 -0.2161 -1.1152
 7019TIP3    H142548   4.290   5.211   6.002 -2.7073 -0.7427 -1.1348
 7019TIP3    H242549   4.386   5.212   5.885  0.1473  1.2096  1.1237
 7020TIP3   OH242550   4.356   0.147  15.013  0.0560 -0.5859 -0.6140
 7020TIP3    H142551   4.382   0.204  14.940  0.2810 -0.1618 -0.2082
 7020TIP3    H242552   4.264   0.128  14.998  0.0470 -0.3168 -0.8905
 7021TIP3   OH242553   3.282   0.038   5.764 -0.0182  0.0763  0.4321
 7021TIP3    H142554   3.317  -0.041   5.804  1.2678  0.3893 -0.0582
 7021TIP3    H242555   3.252   0.009   5.677 -0.7409 -0.1291  0.7414
 7022TIP3   OH242556   2.090   6.279  16.579  0.2978 -0.0480  0.0847
 7022TIP3    H142557   2.161   6.216  16.595 -0.9233 -1.1707  1.2627
 7022TIP3    H242558   2.010   6.227  16.585 -0.7761  1.6969  1.5966
 7023TIP3   OH242559   0.370   0.530  12.384  0.3183  0.5922 -0.4980
 7023TIP3    H142560   0.358   0.574  12.468  1.8659 -1.6211  0.9341
 7023TIP3    H242561   0.447   0.573  12.345 -1.4939  2.8677 -1.6738
 7024TIP3   OH242562   1.776   5.955  14.899  0.2719 -0.0421  0.1479
 7024TIP3    H142563   1.798   5.895  14.970 -1.1973  0.8734  1.4108
 7024TIP3    H242564   1.753   5.897  14.826  1.6655 -0.9931  0.4421
 7025TIP3   OH242565   1.849   6.533   5.549  0.3731  0.0511  0.5198
 7025TIP3    H142566   1.856   6.586   5.628  0.0324 -0.3141  0.8028
 7025TIP3    H242567   1.938   6.503   5.532  1.1121  3.1463 -1.3713
 7026TIP3   OH242568   3.715   1.751   3.253 -0.6440  0.1771 -0.0051
 7026TIP3    H142569   3.652   1.766   3.183 -0.8947  0.7757  0.3526
 7026TIP3    H242570   3.733   1.657   3.249 -1.5531  0.0087 -0.1114
 7027TIP3   OH242571   0.194   1.864   6.363  0.3811  0.1364  0.5084
 7027TIP3    H142572   0.122   1.892   6.306 -0.5417 -1.9248  0.6327
 7027TIP3    H242573   0.271   1.864   6.306 -0.3361 -0.8408 -0.4783
 7028TIP3   OH242574   6.474   0.434   3.077 -0.5235  0.0810 -0.3617
 7028TIP3    H142575   6.547   0.388   3.037 -1.1157 -0.8179 -0.4234
 7028TIP3    H242576   6.513   0.512   3.116  0.8537 -1.5961  1.7106
 7029TIP3   OH242577   0.409   4.665  12.108 -0.1338 -0.1591  0.1750
 7029TIP3    H142578   0.315   4.647  12.111 -0.5388  1.8385  0.2444
 7029TIP3    H242579   0.427   4.683  12.016  0.3715 -1.4748  0.0139
 7030TIP3   OH242580   0.257   0.228  15.107  0.5753  0.7283  0.0584
 7030TIP3    H142581   0.306   0.150  15.133  0.1794  0.2510 -0.6122
 7030TIP3    H242582   0.278   0.239  15.015  0.6288  1.4179  0.1554
 7031TIP3   OH242583   4.137   4.511   1.851 -0.1508  0.1482 -0.3737
 7031TIP3    H142584   4.233   4.507   1.846 -0.1932 -0.9766 -0.3557
 7031TIP3    H242585   4.119   4.576   1.918  0.6239 -0.9298  0.9030
 7032TIP3   OH242586   6.252   1.715   3.300  0.1359 -0.4256 -0.4391
 7032TIP3    H142587   6.271   1.746   3.212 -0.2097  0.3295 -0.2487
 7032TIP3    H242588   6.190   1.643   3.287 -1.2189  0.7557 -0.7270
 7033TIP3   OH242589   6.750   1.422  13.708 -0.5928 -0.6811 -0.5691
 7033TIP3    H142590   6.726   1.513  13.726  0.5771 -0.2798 -0.9746
 7033TIP3    H242591   6.821   1.428  13.644  0.4566 -1.8261  0.4588
 7034TIP3   OH242592   5.721   6.660   2.310 -0.6453  0.4068 -0.2904
 7034TIP3    H142593   5.650   6.644   2.372 -0.6619 -0.5817 -0.5569
 7034TIP3    H242594   5.680   6.705   2.236 -0.9302  0.1073 -0.3106
 7035TIP3   OH242595   6.523   5.556   4.032  0.5208  0.4979 -0.2504
 7035TIP3    H142596   6.549   5.572   3.942 -0.6356  0.1728 -0.6456
 7035TIP3    H242597   6.428   5.546   4.029  0.3046  1.9674  1.2206
 7036TIP3   OH242598   5.338   0.881   4.163 -0.1790  0.0023 -0.3235
 7036TIP3    H142599   5.398   0.897   4.090 -0.1108  1.9430  0.1562
 7036TIP3    H242600   5.308   0.967   4.191 -1.0953 -0.7773  1.2250
 7037TIP3   OH242601   2.787   1.458   2.047 -0.0620  0.1847 -0.0308
 7037TIP3    H142602   2.874   1.441   2.084  0.7478 -1.5473 -2.6084
 7037TIP3    H242603   2.726   1.436   2.117  1.5095 -0.8014  1.0442
 7038TIP3   OH242604   1.153   5.686   2.170  0.4037 -0.5600 -0.3592
 7038TIP3    H142605   1.120   5.713   2.084  0.9874 -1.3900 -0.8492
 7038TIP3    H242606   1.247   5.675   2.157  0.7622  0.9234  0.8071
 7039TIP3   OH242607   0.441   0.978  13.273 -0.6890 -0.1439  0.6980
 7039TIP3    H142608   0.518   0.964  13.218  0.0548  0.3609  1.5936
 7039TIP3    H242609   0.368   0.988  13.211  0.0088 -0.3287 -0.1624
 7040TIP3   OH242610   1.962   4.252  13.227 -0.1074  0.5912 -0.3563
 7040TIP3    H142611   1.886   4.215  13.182  0.3276  0.0329 -0.6282
 7040TIP3    H242612   1.937   4.252  13.319  0.1334 -0.9891 -0.2711
 7041TIP3   OH242613   3.933   0.230   2.398  0.0521  0.0251  0.3902
 7041TIP3    H142614   3.865   0.192   2.342 -0.3744 -0.5649  1.3018
 7041TIP3    H242615   4.002   0.257   2.337 -0.2307 -0.9900 -0.3900
 7042TIP3   OH242616   3.952   1.022   4.722  0.1994 -0.5302 -0.1973
 7042TIP3    H142617   3.911   0.938   4.745  1.0626 -0.3144  2.2648
 7042TIP3    H242618   3.894   1.088   4.760  0.2729 -0.0436 -0.9160
 7043TIP3   OH242619   1.735   5.469  15.870  0.5645  0.4335 -0.0740
 7043TIP3    H142620   1.760   5.556  15.840 -1.0248  0.4970 -1.2825
 7043TIP3    H242621   1.778   5.460  15.955  2.0268  1.7626 -0.6352
 7044TIP3   OH242622   2.695   5.530   5.490 -1.1838  0.2249  0.1090
 7044TIP3    H142623   2.604   5.525   5.462 -2.2756  0.6507  3.3454
 7044TIP3    H242624   2.730   5.606   5.445 -1.9332 -0.8574 -2.3969
 7045TIP3   OH242625   6.602   0.090   4.088  0.2581  0.1528  0.7085
 7045TIP3    H142626   6.666   0.160   4.098 -0.5420  0.6862  2.2235
 7045TIP3    H242627   6.522   0.123   4.129 -0.1638 -1.5951  1.3832
 7046TIP3   OH242628   6.658   1.257  16.856  0.0376 -0.6132  0.5153
 7046TIP3    H142629   6.629   1.288  16.770 -0.7133  0.6477  1.2160
 7046TIP3    H242630   6.657   1.335  16.911  1.3585 -1.2465  1.4569
 7047TIP3   OH242631   2.851   4.175   4.456 -0.1003  0.2824 -0.2089
 7047TIP3    H142632   2.945   4.175   4.437 -0.0253  0.2972  0.1580
 7047TIP3    H242633   2.818   4.094   4.416  0.1881 -0.0601  0.2494
 7048TIP3   OH242634   1.666   1.788   0.469 -0.6462 -0.1180  0.7185
 7048TIP3    H142635   1.749   1.755   0.435 -1.0898  0.3877 -0.8586
 7048TIP3    H242636   1.618   1.709   0.497 -0.4358 -0.5608 -0.1739
 7049TIP3   OH242637   2.429   4.441   4.281  0.0982  0.1039 -0.0022
 7049TIP3    H142638   2.369   4.480   4.345  1.0938  0.2143  0.8717
 7049TIP3    H242639   2.490   4.510   4.259 -0.2922  0.0895 -1.1574
 7050TIP3   OH242640   6.248   2.822   5.388  0.1164  0.1549 -0.0147
 7050TIP3    H142641   6.300   2.835   5.309 -0.4399 -0.1835 -0.4386
 7050TIP3    H242642   6.212   2.908   5.407 -0.6607  0.0013 -0.7738
 7051TIP3   OH242643   6.219   3.976  15.749  0.1883  1.1229  1.0759
 7051TIP3    H142644   6.143   4.019  15.788 -0.9662 -0.1023  0.2105
 7051TIP3    H242645   6.218   4.004  15.658  0.4584  0.6758  0.9338
 7052TIP3   OH242646   2.771   5.796   2.701 -0.2257  0.9471  0.0019
 7052TIP3    H142647   2.801   5.854   2.770 -0.5149  1.2268 -0.1061
 7052TIP3    H242648   2.848   5.745   2.677 -0.3432  0.2081  1.1597
 7053TIP3   OH242649   5.223   0.953   1.929 -0.4962  0.0684  0.1759
 7053TIP3    H142650   5.146   0.898   1.943 -0.1921 -0.1636  0.9548
 7053TIP3    H242651   5.283   0.928   1.999 -0.0186  0.7923  0.0236
 7054TIP3   OH242652   5.972   4.607  16.771 -0.1326  0.0055 -0.1591
 7054TIP3    H142653   6.003   4.582  16.858 -0.9772 -2.0075 -0.3972
 7054TIP3    H242654   5.892   4.657  16.787 -0.9072 -1.3347  0.1984
 7055TIP3   OH242655   5.229   0.662  14.102  0.3227  0.3729  0.0739
 7055TIP3    H142656   5.257   0.593  14.162  2.2343  1.2026  0.1860
 7055TIP3    H242657   5.180   0.724  14.157  0.6221  0.2765  0.4541
 7056TIP3   OH242658   6.097   1.505  16.722  0.1720  0.6703 -0.2673
 7056TIP3    H142659   6.183   1.477  16.753 -0.8605  0.5655  2.6688
 7056TIP3    H242660   6.072   1.441  16.656  0.7261 -1.4824  1.5777
 7057TIP3   OH242661   4.881   4.473  15.596  0.4780 -0.5792 -0.1328
 7057TIP3    H142662   4.965   4.461  15.640  1.3485  1.5811 -1.1690
 7057TIP3    H242663   4.879   4.404  15.530  1.9009  0.0060 -0.7889
 7058TIP3   OH242664   0.325   5.755  12.204  0.8795  0.0012  0.5776
 7058TIP3    H142665   0.306   5.662  12.216 -1.2489  0.3622  0.0574
 7058TIP3    H242666   0.285   5.798  12.280  1.3153  0.5643  0.4913
 7059TIP3   OH242667   3.103   6.061   4.119  0.9484  0.5063 -0.3211
 7059TIP3    H142668   3.119   6.153   4.140 -0.5097  0.3076  1.7299
 7059TIP3    H242669   3.086   6.019   4.203  1.4478 -1.6276 -1.2441
 7060TIP3   OH242670   2.034   3.017  11.673  0.1096  0.3236 -0.4215
 7060TIP3    H142671   2.053   3.086  11.610 -0.3226  0.4113 -0.4583
 7060TIP3    H242672   2.100   2.950  11.657 -0.6533 -0.1365 -1.6827
 7061TIP3   OH242673   1.597   4.656  12.923  0.0890 -0.0713 -0.0642
 7061TIP3    H142674   1.575   4.743  12.888  0.4850  0.1738  0.2828
 7061TIP3    H242675   1.629   4.607  12.847 -0.6935 -0.1072 -0.3720
 7062TIP3   OH242676   2.716   3.067  13.140 -0.0383 -0.2829  0.9266
 7062TIP3    H142677   2.741   3.146  13.189 -1.8343  0.2045  1.1066
 7062TIP3    H242678   2.666   3.015  13.203  0.8243 -1.3980  0.6989
 7063TIP3   OH242679   0.362   5.002   1.940 -0.7226 -0.6977  0.0088
 7063TIP3    H142680   0.300   4.930   1.937  0.7322 -1.9957  0.4642
 7063TIP3    H242681   0.413   4.987   2.019  0.5355  0.0277 -0.6382
 7064TIP3   OH242682   6.185   6.662   2.294 -0.4011 -1.1036 -0.1547
 7064TIP3    H142683   6.120   6.723   2.259 -1.0659 -1.0245  1.1731
 7064TIP3    H242684   6.138   6.614   2.363  0.2868 -2.6779 -0.7564
 7065TIP3   OH242685   3.934   0.299   1.639 -0.1019 -0.1135  0.2581
 7065TIP3    H142686   3.870   0.273   1.704 -0.4306 -0.9790 -0.3919
 7065TIP3    H242687   4.015   0.256   1.667 -0.6256 -1.8105 -0.7679
 7066TIP3   OH242688   5.896   3.575   0.684 -0.5724  0.5604 -0.2393
 7066TIP3    H142689   5.967   3.565   0.621  0.0929  3.1121  0.0377
 7066TIP3    H242690   5.939   3.569   0.770 -1.5576 -3.5137  0.0910
 7067TIP3   OH242691   4.994   4.600  14.597  0.0362 -0.0682  0.1528
 7067TIP3    H142692   5.060   4.617  14.529 -1.5724  1.4843 -1.0634
 7067TIP3    H242693   5.025   4.649  14.673  1.1446 -0.7063  0.1241
 7068TIP3   OH242694   0.195   2.305   3.243  0.3494  0.4492  0.4260
 7068TIP3    H142695   0.282   2.284   3.208  0.1268 -1.7357  1.0651
 7068TIP3    H242696   0.213   2.341   3.330  0.6300 -0.1465  0.6227
 7069TIP3   OH242697   2.621   2.626  13.703  0.2595  0.0736  0.6033
 7069TIP3    H142698   2.596   2.705  13.749 -0.5321 -0.5938  1.3265
 7069TIP3    H242699   2.618   2.557  13.769 -0.6431 -0.8429 -0.3754
 7070TIP3   OH242700   5.174   2.310   6.305  0.1099  0.2795 -0.2273
 7070TIP3    H142701   5.094   2.358   6.325 -0.1511  0.5713 -1.8834
 7070TIP3    H242702   5.193   2.260   6.384 -2.3039 -0.6304 -0.1695
 7071TIP3   OH242703   3.742   2.928  14.540  0.1985 -0.3022  0.4859
 7071TIP3    H142704   3.755   2.999  14.602  0.7519  2.2684 -2.4136
 7071TIP3    H242705   3.805   2.946  14.470 -1.2097 -2.4020 -1.4018
 7072TIP3   OH242706   1.433   6.107   0.012  0.1873  1.2530  0.4052
 7072TIP3    H142707   1.423   6.109   0.107 -1.5497  1.3377  0.2457
 7072TIP3    H242708   1.344   6.093  -0.021  1.1726 -1.5694 -1.1399
 7073TIP3   OH242709   1.822   0.008  15.676  0.5225  0.0338 -0.2010
 7073TIP3    H142710   1.729  -0.015  15.672  0.9945 -1.9925  0.0367
 7073TIP3    H242711   1.841   0.045  15.590 -0.3297 -0.2341 -0.5166
 7074TIP3   OH242712   4.635   3.023   0.467 -0.4867 -0.3520  0.1554
 7074TIP3    H142713   4.695   2.966   0.515  2.0332  1.7449 -0.3953
 7074TIP3    H242714   4.617   2.977   0.385 -1.2713 -1.9215  1.1966
 7075TIP3   OH242715   3.685   3.279   4.984 -0.7481 -0.2093 -0.4966
 7075TIP3    H142716   3.657   3.338   4.914 -0.5165  0.5947  0.0821
 7075TIP3    H242717   3.750   3.329   5.033 -0.2790 -1.0809 -0.2182
 7076TIP3   OH242718   0.990   6.456   5.925 -0.1470 -0.2365  0.1493
 7076TIP3    H142719   0.976   6.527   5.987  0.0128 -0.6702  0.6811
 7076TIP3    H242720   1.078   6.470   5.891 -1.7112  2.5103 -3.2096
 7077TIP3   OH242721   2.400   6.085   2.722 -0.6624 -0.0854  0.6992
 7077TIP3    H142722   2.469   6.149   2.735 -0.2978 -0.6031  1.3303
 7077TIP3    H242723   2.442   6.013   2.675 -1.0777  0.1368 -0.0314
 7078TIP3   OH242724   4.910   4.560   3.960 -0.5030 -0.4565 -0.1071
 7078TIP3    H142725   4.968   4.548   4.035 -0.0979  0.5387 -0.2556
 7078TIP3    H242726   4.957   4.620   3.902 -1.9299  0.8542  0.0447
 7079TIP3   OH242727   2.917   4.029   2.702 -0.2942  0.2051 -0.4976
 7079TIP3    H142728   2.959   4.101   2.749  1.4887  0.0323 -1.7794
 7079TIP3    H242729   2.904   4.063   2.613 -1.1362 -0.4034 -0.6063
 7080TIP3   OH242730   6.642   1.240  12.342 -0.1603  0.1520 -0.1052
 7080TIP3    H142731   6.609   1.314  12.393 -0.9150  0.3052 -0.8026
 7080TIP3    H242732   6.666   1.175  12.407 -0.0729  0.7693  0.4912
 7081TIP3   OH242733   4.805   1.659  15.723 -0.0120 -0.4683 -0.0484
 7081TIP3    H142734   4.751   1.737  15.738  0.4122 -0.0624 -0.6129
 7081TIP3    H242735   4.747   1.586  15.744 -1.1348 -0.0714 -1.7056
 7082TIP3   OH242736   1.467   1.441   4.711 -0.4209 -0.7008  0.1092
 7082TIP3    H142737   1.510   1.410   4.791  0.7804  0.6946  0.0157
 7082TIP3    H242738   1.381   1.471   4.740  0.3776  0.7206  1.0571
 7083TIP3   OH242739   6.757   2.585  11.409  0.6052 -0.0413  0.0560
 7083TIP3    H142740   6.801   2.667  11.435  0.5901  0.2011 -0.6600
 7083TIP3    H242741   6.804   2.517  11.457  0.7961  0.3626  0.4516
 7084TIP3   OH242742   3.356   0.925   5.358 -0.2744  0.3474 -0.1432
 7084TIP3    H142743   3.322   0.875   5.432 -0.3179  1.2497  0.4571
 7084TIP3    H242744   3.403   0.861   5.305  2.7761  0.2792  2.4585
 7085TIP3   OH242745   6.086   4.862  15.691  0.4448  0.4426 -0.0923
 7085TIP3    H142746   6.065   4.776  15.729 -4.1932  1.0820 -0.9771
 7085TIP3    H242747   6.137   4.841  15.613  0.7934 -1.4180  0.5961
 7086TIP3   OH242748   0.151   4.986   1.476 -0.2977 -0.2633  0.1337
 7086TIP3    H142749   0.154   5.068   1.524 -0.0614 -1.1917  1.7516
 7086TIP3    H242750   0.188   5.007   1.390  1.3229  0.9405  1.0912
 7087TIP3   OH242751   2.932   6.109  11.447  0.1812 -0.7427 -0.3242
 7087TIP3    H142752   2.975   6.034  11.488 -0.5941 -0.9348  0.1687
 7087TIP3    H242753   2.997   6.145  11.387  0.7264 -1.5259 -0.2149
 7088TIP3   OH242754   1.638   0.132  16.579 -0.0518 -0.2835  0.3913
 7088TIP3    H142755   1.725   0.094  16.591 -0.3473 -0.1829  2.9837
 7088TIP3    H242756   1.586   0.098  16.651 -1.5826  1.3180  0.0798
 7089TIP3   OH242757   3.547   5.207   2.159  0.1752  0.1657 -0.5969
 7089TIP3    H142758   3.474   5.177   2.214  0.4410 -1.9916 -1.3627
 7089TIP3    H242759   3.505   5.236   2.078  0.0050  0.8175 -0.2771
 7090TIP3   OH242760   5.848   2.648  17.003  0.1727  0.6543 -0.0089
 7090TIP3    H142761   5.939   2.649  16.972 -0.0448  2.3230 -0.6348
 7090TIP3    H242762   5.837   2.731  17.048 -1.3861  0.9879 -0.9663
 7091TIP3   OH242763   2.675   4.091  11.987 -0.2010 -0.1485 -0.4990
 7091TIP3    H142764   2.654   4.150  12.059  0.1805 -0.5193 -0.0846
 7091TIP3    H242765   2.614   4.115  11.918 -2.1735 -1.3833  0.7781
 7092TIP3   OH242766   0.276   3.602  14.980  0.7104  0.0412 -0.6597
 7092TIP3    H142767   0.297   3.632  15.068 -1.3171 -0.3084 -0.0204
 7092TIP3    H242768   0.325   3.520  14.970  0.8504  0.0168  0.1975
 7093TIP3   OH242769   4.972   2.122   4.132  0.4544 -0.2270  0.1032
 7093TIP3    H142770   4.940   2.034   4.150  0.6541 -0.1743  0.7238
 7093TIP3    H242771   4.914   2.179   4.183  1.1360 -0.0885  0.7290
 7094TIP3   OH242772   4.733   2.046   4.515  0.6040  0.1118  0.2166
 7094TIP3    H142773   4.650   2.082   4.482  0.4567  0.1538  0.6340
 7094TIP3    H242774   4.796   2.117   4.503  1.1157 -0.7302 -2.3237
 7095TIP3   OH242775   2.227   3.775  14.322  0.0966  0.3931  0.2187
 7095TIP3    H142776   2.156   3.754  14.261  0.0172  1.2360  0.0154
 7095TIP3    H242777   2.307   3.766  14.270  0.0699  0.4652  0.1651
 7096TIP3   OH242778   0.297   1.215   3.610  0.5054  0.2312 -0.3670
 7096TIP3    H142779   0.280   1.284   3.546  2.4962 -0.0726 -1.2577
 7096TIP3    H242780   0.282   1.133   3.562  2.1519 -0.0020 -0.5081
 7097TIP3   OH242781   2.001   5.269  16.484  0.4640  0.1441 -0.2525
 7097TIP3    H142782   2.044   5.333  16.428 -0.3786 -0.9362 -2.1966
 7097TIP3    H242783   2.025   5.184  16.446 -0.9672 -0.5686  0.4072
 7098TIP3   OH242784   1.028   0.818  16.794 -0.4653  0.2440  0.2798
 7098TIP3    H142785   0.949   0.870  16.783 -0.2385  0.7976  1.2222
 7098TIP3    H242786   1.087   0.849  16.725 -1.3633 -0.7712 -0.9771
 7099TIP3   OH242787   2.054   5.693  16.279  0.1797  0.3621  0.3524
 7099TIP3    H142788   2.048   5.598  16.280  1.1453  0.2861  2.3012
 7099TIP3    H242789   2.060   5.717  16.187  0.1712 -1.4771 -0.1288
 7100TIP3   OH242790   4.446   6.686  15.038  0.1179 -0.2513  0.2020
 7100TIP3    H142791   4.357   6.692  15.002  0.3652 -0.0273 -0.3787
 7100TIP3    H242792   4.468   6.776  15.062 -0.9804 -0.7058  3.2292
 7101TIP3   OH242793   4.722   6.099  11.027 -0.2309 -0.4435  0.3851
 7101TIP3    H142794   4.689   6.023  11.075  0.0935 -0.5312  0.4703
 7101TIP3    H242795   4.815   6.104  11.051 -0.0757 -0.4711 -0.2109
 7102TIP3   OH242796   0.473   0.743  16.384 -0.3494  0.6074 -0.2456
 7102TIP3    H142797   0.556   0.728  16.429  0.0366 -0.3633 -1.2566
 7102TIP3    H242798   0.483   0.698  16.300 -2.3210 -0.4997  0.0887
 7103TIP3   OH242799   5.586   1.617   1.638 -0.0747  0.2708  0.1370
 7103TIP3    H142800   5.680   1.624   1.650  0.0101 -0.8182  0.1339
 7103TIP3    H242801   5.555   1.570   1.716 -0.0636 -3.1273 -1.8300
 7104TIP3   OH242802   5.973   6.514   2.405  0.2523 -0.2946  0.5278
 7104TIP3    H142803   5.994   6.440   2.462 -0.1629  0.0156  1.0862
 7104TIP3    H242804   5.885   6.495   2.372 -0.2897  0.4656  1.5136
 7105TIP3   OH242805   1.905   4.007   5.648 -0.3275 -0.4543 -0.0268
 7105TIP3    H142806   1.857   3.949   5.589 -0.2989 -0.5750  0.0682
 7105TIP3    H242807   1.837   4.043   5.705 -0.8270  2.0551 -2.0940
 7106TIP3   OH242808   1.925   5.477  14.201 -0.3685  0.1811  0.0205
 7106TIP3    H142809   1.949   5.399  14.250 -1.3743  0.9713  1.8346
 7106TIP3    H242810   1.988   5.543  14.229  0.2178  0.1373 -1.1880
 7107TIP3   OH242811   0.018   2.872  16.524  0.4088 -0.1422  0.5228
 7107TIP3    H142812   0.093   2.841  16.474 -0.7265  1.3233 -2.2528
 7107TIP3    H242813  -0.051   2.807  16.506 -0.2953  0.9104 -0.6906
 7108TIP3   OH242814   5.172   4.662   4.340  0.9745  0.4025  0.1156
 7108TIP3    H142815   5.174   4.585   4.283  0.9957  0.1787  0.4153
 7108TIP3    H242816   5.251   4.711   4.318  0.2941  1.0220 -1.0101
 7109TIP3   OH242817   6.764   5.585  11.834 -0.2394  0.4587 -0.0221
 7109TIP3    H142818   6.806   5.541  11.761  0.1544 -0.4673  0.7446
 7109TIP3    H242819   6.836   5.625  11.883 -0.3820 -0.0123  0.5703
 7110TIP3   OH242820   1.498   5.522  12.268  0.0095  0.1630 -0.2801
 7110TIP3    H142821   1.562   5.469  12.316  0.9531  0.1637 -1.5164
 7110TIP3    H242822   1.472   5.591  12.330 -0.1949 -0.9147  0.8647
 7111TIP3   OH242823   6.111   3.707   2.685  0.1410 -0.1150 -0.4897
 7111TIP3    H142824   6.063   3.663   2.755  0.9404 -1.1366 -0.5777
 7111TIP3    H242825   6.202   3.684   2.699  0.3360 -0.1376 -1.7181
 7112TIP3   OH242826   5.046   5.756  13.506  0.8597  0.1306 -0.0195
 7112TIP3    H142827   4.951   5.743  13.499  0.4699  2.2032  0.8112
 7112TIP3    H242828   5.066   5.821  13.438  1.9674 -1.4286 -1.2193
 7113TIP3   OH242829   2.794   2.105  16.597  0.7529 -0.0197 -0.0763
 7113TIP3    H142830   2.869   2.162  16.577  1.5047 -1.2380 -0.8030
 7113TIP3    H242831   2.754   2.088  16.512 -0.2729  0.4988  0.2926
 7114TIP3   OH242832   6.805   4.492  12.716 -0.1362  0.2854 -0.2459
 7114TIP3    H142833   6.733   4.555  12.715 -0.1481  0.3059  1.2711
 7114TIP3    H242834   6.840   4.496  12.805 -0.9029 -2.6710  0.2496
 7115TIP3   OH242835   3.378   1.276   0.802 -0.2472 -0.1869  0.0721
 7115TIP3    H142836   3.306   1.221   0.771 -0.7000  0.7952 -0.6373
 7115TIP3    H242837   3.455   1.218   0.802 -0.6972 -0.7858 -0.7679
 7116TIP3   OH242838   3.581   5.558  16.653  0.2301  0.0782 -0.3530
 7116TIP3    H142839   3.622   5.535  16.736  0.7832  0.7943 -0.4221
 7116TIP3    H242840   3.576   5.477  16.604  0.3784 -0.2471  0.1722
 7117TIP3   OH242841   3.001   4.365   1.472 -0.3111 -0.1284  0.1426
 7117TIP3    H142842   3.021   4.450   1.433 -1.7467  0.1769  0.0355
 7117TIP3    H242843   3.040   4.301   1.413 -0.5821  0.4093 -0.6176
 7118TIP3   OH242844   2.250   1.218   0.415 -0.7871 -0.2616 -0.4372
 7118TIP3    H142845   2.282   1.234   0.326 -0.0477 -0.2939 -0.1752
 7118TIP3    H242846   2.294   1.283   0.469 -0.0184 -1.2662  0.1616
 7119TIP3   OH242847   0.890   6.640   5.517 -0.1049  0.0223  0.0450
 7119TIP3    H142848   0.810   6.646   5.568  0.2391 -0.0618  0.5992
 7119TIP3    H242849   0.866   6.590   5.439 -0.6950  0.3827 -0.0013
 7120TIP3   OH242850   3.953   4.352   3.924 -0.5699  0.1606  0.0817
 7120TIP3    H142851   3.981   4.282   3.983 -0.1447  0.4454  0.2237
 7120TIP3    H242852   3.858   4.351   3.930 -0.4921  1.1654  1.9510
 7121TIP3   OH242853   2.251   3.385   2.988  0.4308 -0.0869  0.6341
 7121TIP3    H142854   2.336   3.364   3.026  0.7857 -1.4521 -0.8398
 7121TIP3    H242855   2.262   3.367   2.894 -0.3259  3.4693 -0.1963
 7122TIP3   OH242856   4.244   3.443  14.384 -0.6347 -0.1365  0.6132
 7122TIP3    H142857   4.262   3.412  14.473 -0.1586  2.6523  1.5388
 7122TIP3    H242858   4.157   3.482  14.389 -0.9383 -0.6713 -0.3465
 7123TIP3   OH242859   2.569   4.126   1.919  0.2781 -0.1739  0.1303
 7123TIP3    H142860   2.503   4.064   1.888 -1.2780  0.9770  1.0956
 7123TIP3    H242861   2.636   4.070   1.960 -0.6676 -1.2735  0.2187
 7124TIP3   OH242862   4.567   6.801  12.984 -0.1122 -0.0829  0.0865
 7124TIP3    H142863   4.584   6.892  13.009  0.6779 -0.2594  0.2077
 7124TIP3    H242864   4.598   6.750  13.058  3.0550 -0.6580 -1.5457
 7125TIP3   OH242865   3.614   0.856   2.005  0.8323  0.4018 -0.6815
 7125TIP3    H142866   3.558   0.864   1.928  1.4137  3.7582 -0.8614
 7125TIP3    H242867   3.694   0.903   1.980  2.3261 -1.2480  0.8482
 7126TIP3   OH242868   5.111   2.452  11.587  0.6635 -0.1790 -0.6135
 7126TIP3    H142869   5.172   2.444  11.513  0.9187 -0.6483 -0.3531
 7126TIP3    H242870   5.167   2.477  11.661  0.5586 -0.7214 -0.3498
 7127TIP3   OH242871   3.429   3.753   2.090  0.0203 -0.2377 -0.7436
 7127TIP3    H142872   3.426   3.808   2.012 -1.5234  1.1534  0.2776
 7127TIP3    H242873   3.337   3.734   2.109  0.2989  0.7906  1.6982
 7128TIP3   OH242874   6.048   2.520   2.517  0.1285  0.5010  0.7392
 7128TIP3    H142875   5.994   2.476   2.582  1.2220 -1.4778  0.3505
 7128TIP3    H242876   6.049   2.612   2.545 -0.6426 -0.0498  2.6628
 7129TIP3   OH242877   2.977   0.326  12.542  0.6612  0.7368 -0.0945
 7129TIP3    H142878   2.997   0.394  12.606  1.8064  0.7939 -0.4941
 7129TIP3    H242879   2.890   0.348  12.508  0.6215  1.4486  0.4766
 7130TIP3   OH242880   1.295   0.675  10.689 -0.4625  0.1253 -0.3567
 7130TIP3    H142881   1.337   0.609  10.633  0.9192 -0.2273  1.0629
 7130TIP3    H242882   1.368   0.717  10.735 -1.4504  1.6208 -0.1321
 7131TIP3   OH242883   6.267   2.204  16.584  0.0697 -0.1465 -0.1240
 7131TIP3    H142884   6.259   2.168  16.672 -0.1726  1.8640  0.6927
 7131TIP3    H242885   6.319   2.283  16.595 -0.4239  0.4160 -1.7120
 7132TIP3   OH242886   5.875   2.100  11.120 -0.0997  0.5571 -0.4799
 7132TIP3    H142887   5.842   2.016  11.151 -1.8259  1.1857 -0.5911
 7132TIP3    H242888   5.806   2.162  11.140  0.3964  1.6465 -2.0770
 7133TIP3   OH242889   3.502   0.461  13.953 -0.4385 -0.7764 -0.1038
 7133TIP3    H142890   3.558   0.461  14.031  0.8099  0.8927 -0.9531
 7133TIP3    H242891   3.424   0.509  13.980  0.0459 -0.0886  0.0805
 7134TIP3   OH242892   6.554   3.096  17.041  0.7568 -0.4207 -0.5541
 7134TIP3    H142893   6.477   3.135  16.999 -1.0709 -1.2004  1.9426
 7134TIP3    H242894   6.558   3.007  17.006 -0.2879 -0.8105  0.2896
 7135TIP3   OH242895   3.086   3.940   1.260  0.4218 -0.8474 -0.2187
 7135TIP3    H142896   3.117   4.019   1.304  0.9430 -1.3773  0.3741
 7135TIP3    H242897   3.144   3.870   1.292  0.6416 -1.2838 -1.5333
 7136TIP3   OH242898   2.014   3.574  14.724 -0.6864  0.2554 -0.4770
 7136TIP3    H142899   2.009   3.670  14.728 -1.2756  0.1716  1.0668
 7136TIP3    H242900   1.982   3.553  14.636 -0.8124  1.4624 -0.7409
 7137TIP3   OH242901   6.775   2.540   1.443 -0.4319 -0.2030 -0.0936
 7137TIP3    H142902   6.761   2.629   1.409  4.5842  0.5960 -0.5599
 7137TIP3    H242903   6.757   2.483   1.369  0.4905  0.7938 -1.1086
 7138TIP3   OH242904   6.637   0.735   1.601  0.3023  0.7058  0.4684
 7138TIP3    H142905   6.592   0.687   1.670 -1.8553 -0.2377 -1.5584
 7138TIP3    H242906   6.638   0.676   1.526 -2.6493  3.7901 -2.1745
 7139TIP3   OH242907   1.292   1.655  11.771 -0.4330 -0.3355  0.2513
 7139TIP3    H142908   1.337   1.644  11.687 -1.0639  1.3751 -0.3275
 7139TIP3    H242909   1.209   1.609  11.759  0.7878 -2.9030  1.0869
 7140TIP3   OH242910   5.644   6.270   0.169  0.3606 -0.3505 -0.0672
 7140TIP3    H142911   5.677   6.293   0.255  2.0957  2.5890 -1.4268
 7140TIP3    H242912   5.705   6.312   0.108 -0.9319 -2.1755 -2.7274
 7141TIP3   OH242913   4.244   6.704  12.748 -0.5009  0.0688  0.0113
 7141TIP3    H142914   4.235   6.675  12.657  0.7629  1.3956 -0.5568
 7141TIP3    H242915   4.286   6.789  12.742 -0.2100  0.0769  1.8629
 7142TIP3   OH242916   4.911   5.490  14.848 -0.2915  0.3768 -0.2658
 7142TIP3    H142917   4.856   5.482  14.770 -0.3016  1.3296 -0.3602
 7142TIP3    H242918   4.954   5.575  14.838  2.2017 -0.9001 -0.8570
 7143TIP3   OH242919   5.694   5.003   5.443 -0.3986 -0.1306 -0.1638
 7143TIP3    H142920   5.751   4.952   5.501 -0.0303 -0.5775 -0.9136
 7143TIP3    H242921   5.682   5.087   5.488  0.8432 -0.0389 -0.0025
 7144TIP3   OH242922   6.013   1.803   6.445  0.9517 -0.4894 -0.1980
 7144TIP3    H142923   6.107   1.791   6.436  1.3512  2.7857 -1.2860
 7144TIP3    H242924   6.002   1.898   6.450 -2.2884 -0.8216  0.1310
 7145TIP3   OH242925   4.993   3.345   1.737  0.8265  0.4662 -0.5291
 7145TIP3    H142926   4.950   3.268   1.774 -0.2746  0.4682 -1.7867
 7145TIP3    H242927   5.075   3.311   1.700  0.5657 -0.0180 -0.6638
 7146TIP3   OH242928   0.698   3.455   5.248  0.3274  0.3692  1.0740
 7146TIP3    H142929   0.703   3.457   5.343 -0.4830  1.5154  1.1005
 7146TIP3    H242930   0.752   3.528   5.219 -0.3318  0.7101  0.6989
 7147TIP3   OH242931   4.344   3.198  16.226 -0.1017  0.3032 -0.0445
 7147TIP3    H142932   4.315   3.106  16.224 -0.5095  0.4531 -2.3402
 7147TIP3    H242933   4.330   3.229  16.137  0.6011  2.4440  0.5734
 7148TIP3   OH242934   1.717   2.517   3.235  0.2276  0.0677  0.0531
 7148TIP3    H142935   1.724   2.561   3.320 -2.0905  1.2707 -0.3467
 7148TIP3    H242936   1.785   2.450   3.238  0.7464  0.6365  2.5316
 7149TIP3   OH242937   4.382   5.349  15.155 -0.0776  0.2839 -0.2146
 7149TIP3    H142938   4.336   5.341  15.072  0.4862 -2.3394 -0.3041
 7149TIP3    H242939   4.475   5.345  15.132  0.0833 -0.4830  0.5274
 7150TIP3   OH242940   0.376   2.076   4.024  0.4549 -0.2289  0.1324
 7150TIP3    H142941   0.337   2.015   4.087 -0.7653  1.6130  1.1775
 7150TIP3    H242942   0.362   2.162   4.062  1.4569  0.7751 -1.7294
 7151TIP3   OH242943   2.732   1.697  16.027  0.0698 -0.0828 -0.2466
 7151TIP3    H142944   2.827   1.703  16.037 -0.1111  2.6289  0.2129
 7151TIP3    H242945   2.720   1.643  15.948  2.0120  0.9339 -1.2888
 7152TIP3   OH242946   3.556   0.579   1.137 -0.7186 -0.0265 -0.2342
 7152TIP3    H142947   3.483   0.616   1.186 -0.8509 -1.5742  0.7555
 7152TIP3    H242948   3.600   0.521   1.199  2.4781  2.2471 -0.1996
 7153TIP3   OH242949   3.780   1.506   0.789  0.2206  0.7236  0.4763
 7153TIP3    H142950   3.686   1.492   0.776  0.1555  0.2111  1.4811
 7153TIP3    H242951   3.797   1.590   0.745 -0.5694  0.5030 -0.2776
 7154TIP3   OH242952   5.488   5.688  13.886 -0.2293 -0.0360 -0.2408
 7154TIP3    H142953   5.460   5.778  13.876 -2.5180 -0.9297 -2.3991
 7154TIP3    H242954   5.561   5.679  13.824  1.9382  1.0520  2.0676
 7155TIP3   OH242955   6.575   6.274  12.608  0.1679 -0.1390 -0.5467
 7155TIP3    H142956   6.510   6.330  12.567 -0.1293 -0.5822 -0.6855
 7155TIP3    H242957   6.639   6.335  12.646 -1.7800  0.4016  2.0046
 7156TIP3   OH242958   2.041   4.494   4.475 -0.2359  0.1040 -0.5018
 7156TIP3    H142959   2.023   4.462   4.386  0.4017  0.5922 -0.8030
 7156TIP3    H242960   2.012   4.422   4.532  0.5747 -0.7414 -1.1508
 7157TIP3   OH242961   1.294   2.219  16.629 -0.2582 -0.1158  0.7083
 7157TIP3    H142962   1.296   2.314  16.634  2.1261 -0.0329 -0.7599
 7157TIP3    H242963   1.291   2.200  16.535 -0.1784 -1.4752  0.9666
 7158TIP3   OH242964   3.148   1.705   2.962 -0.6476 -0.8917 -0.2039
 7158TIP3    H142965   3.063   1.695   2.921  0.5665 -0.5058 -2.9746
 7158TIP3    H242966   3.190   1.620   2.952 -0.6489 -1.0539  1.0625
 7159TIP3   OH242967   1.324   2.269  14.754 -0.2024  0.2535  0.0012
 7159TIP3    H142968   1.299   2.342  14.698 -0.9455  1.5711  1.9703
 7159TIP3    H242969   1.240   2.229  14.780  0.0708  0.2895  0.9605
 7160TIP3   OH242970   0.083   3.755   4.019 -0.2671 -0.1933 -0.1179
 7160TIP3    H142971  -0.003   3.715   4.030  0.3437 -1.3878  0.3320
 7160TIP3    H242972   0.105   3.791   4.105 -1.6146  2.8030 -0.9341
 7161TIP3   OH242973   4.697   4.374   1.481 -0.3426  0.0138 -0.4015
 7161TIP3    H142974   4.705   4.442   1.548  1.3728 -0.1515 -0.4264
 7161TIP3    H242975   4.655   4.301   1.526  1.3983 -0.3430  0.6938
 7162TIP3   OH242976   2.955   3.475   0.138 -0.4969  0.3161 -0.1700
 7162TIP3    H142977   2.978   3.393   0.181 -0.5623  0.9849  1.1553
 7162TIP3    H242978   3.035   3.501   0.091 -0.9129 -1.2312 -1.8211
 7163TIP3   OH242979   1.846   1.829  16.360 -0.2090 -0.2576  0.2245
 7163TIP3    H142980   1.901   1.805  16.435  1.2887 -1.3428 -1.1669
 7163TIP3    H242981   1.890   1.905  16.323 -0.1547 -0.5712 -0.3577
 7164TIP3   OH242982   6.150   3.012  15.358 -0.2803 -0.3097  0.2531
 7164TIP3    H142983   6.184   2.970  15.437 -0.6896  0.0351  0.6160
 7164TIP3    H242984   6.227   3.050  15.316  0.1410 -1.7004 -0.2520
 7165TIP3   OH242985   4.775   2.261  10.760 -0.0160  0.4284  0.4175
 7165TIP3    H142986   4.774   2.165  10.758  1.9950  0.2979  3.5033
 7165TIP3    H242987   4.682   2.285  10.761 -0.5516 -1.4262 -0.7988
 7166TIP3   OH242988   4.093   1.109  11.236  0.1839 -0.3373 -0.6169
 7166TIP3    H142989   4.157   1.041  11.213  0.4123 -0.2840 -0.1509
 7166TIP3    H242990   4.089   1.165  11.159  1.9836  0.6453 -0.0422
 7167TIP3   OH242991   2.628   3.390  11.297 -0.3494  0.3772 -0.2514
 7167TIP3    H142992   2.655   3.301  11.274 -0.4045  0.0870  0.7840
 7167TIP3    H242993   2.603   3.430  11.214  0.1398 -0.4195 -0.7833
 7168TIP3   OH242994   4.517   0.238  15.481  0.0759  0.5770 -0.1632
 7168TIP3    H142995   4.580   0.301  15.447  0.0008  0.6669 -0.1339
 7168TIP3    H242996   4.447   0.291  15.518  0.8129  0.4921  1.4012
 7169TIP3   OH242997   2.054   0.805   2.953  0.9516  0.1927  0.2087
 7169TIP3    H142998   2.063   0.737   2.886  0.4153  0.4292 -0.1102
 7169TIP3    H242999   2.014   0.761   3.028  0.3667  0.2158 -0.0915
 7170TIP3   OH243000   1.232   1.215   6.214  0.5986  0.1391 -0.5030
 7170TIP3    H143001   1.177   1.167   6.277 -0.2468  0.5956 -0.8907
 7170TIP3    H243002   1.240   1.303   6.252  0.8059  0.1653 -0.6070
 7171TIP3   OH243003   0.840   4.248   5.435 -0.6142  0.4408  0.5321
 7171TIP3    H143004   0.852   4.314   5.504  1.5076  0.4957  0.1348
 7171TIP3    H243005   0.800   4.296   5.363  1.3117  1.4429  0.0860
 7172TIP3   OH243006   4.850   2.975   1.352 -0.2433  0.5474 -0.5240
 7172TIP3    H143007   4.841   2.886   1.387 -0.8762  0.2678 -1.3789
 7172TIP3    H243008   4.827   3.032   1.426  2.8373  0.0945  0.8527
 7173TIP3   OH243009   1.705   2.745  13.858  0.1780  0.5673 -0.4069
 7173TIP3    H143010   1.695   2.713  13.768 -1.7011 -0.8634  0.2674
 7173TIP3    H243011   1.728   2.837  13.848 -0.4105  0.5213 -2.3687
 7174TIP3   OH243012   0.535   6.395  13.675 -0.1729 -0.2136 -0.0092
 7174TIP3    H143013   0.477   6.453  13.724 -0.1431  0.3513 -0.6334
 7174TIP3    H243014   0.586   6.350  13.742 -0.6395  0.0178  0.5065
 7175TIP3   OH243015   4.290   3.148  16.877 -0.6519 -0.2328 -0.5235
 7175TIP3    H143016   4.374   3.161  16.923  0.5052 -1.8516 -2.1279
 7175TIP3    H243017   4.284   3.054  16.863 -1.4677  0.1170 -2.7652
 7176TIP3   OH243018   5.069   3.041   0.918 -0.3596  0.0231  0.0898
 7176TIP3    H143019   5.075   2.951   0.885 -3.1577 -0.8084  1.6585
 7176TIP3    H243020   5.053   3.094   0.841  0.8548 -0.8793 -0.7964
 7177TIP3   OH243021   0.224   3.957   0.704 -0.1754  0.0749  0.0359
 7177TIP3    H143022   0.172   3.956   0.624 -0.9948 -1.4465  0.5668
 7177TIP3    H243023   0.306   4.000   0.679 -0.7293  0.3083 -1.4108
 7178TIP3   OH243024   2.215   3.178  14.749  0.8008 -0.3866  0.1027
 7178TIP3    H143025   2.294   3.215  14.712  1.1016 -1.9589 -0.9098
 7178TIP3    H243026   2.246   3.111  14.810  0.2725  0.6087  1.4783
 7179TIP3   OH243027   3.376   5.065  13.821 -0.0969  0.1346 -0.1923
 7179TIP3    H143028   3.390   5.108  13.736 -0.2472  0.1587 -0.2058
 7179TIP3    H243029   3.404   5.130  13.885 -2.7950  1.2867 -0.1098
 7180TIP3   OH243030   0.587   3.319   4.377  0.0005 -0.0467 -0.3918
 7180TIP3    H143031   0.643   3.360   4.443 -1.5985  0.4674  0.6772
 7180TIP3    H243032   0.504   3.302   4.423 -0.7780 -0.6598 -1.9793
 7181TIP3   OH243033   5.182   4.422   3.325  0.4166  0.0142  0.0821
 7181TIP3    H143034   5.219   4.361   3.262 -2.3161 -2.7806  1.0376
 7181TIP3    H243035   5.257   4.450   3.378  1.8788 -1.9282 -0.8811
 7182TIP3   OH243036   1.995   4.780   3.760 -0.4346 -0.5372 -0.0215
 7182TIP3    H143037   1.992   4.767   3.855 -0.9203 -0.3085 -0.0030
 7182TIP3    H243038   2.056   4.853   3.748  1.0606 -1.7675 -0.0194
 7183TIP3   OH243039   5.272   0.509   1.989 -0.1053  0.5085 -0.8623
 7183TIP3    H143040   5.368   0.504   1.987 -0.1517 -0.1413 -1.9154
 7183TIP3    H243041   5.253   0.587   2.040  0.9498 -0.8889  1.7700
 7184TIP3   OH243042   6.098   0.297   3.121 -0.2434  0.7559  0.2911
 7184TIP3    H143043   6.175   0.245   3.095  0.6203 -0.2058  4.3925
 7184TIP3    H243044   6.135   0.375   3.162 -1.3517 -0.1733  3.1852
 7185TIP3   OH243045   2.676   3.247   4.339 -0.3377  0.0438 -0.0377
 7185TIP3    H143046   2.599   3.255   4.283 -0.4665 -0.3588  0.0766
 7185TIP3    H243047   2.737   3.312   4.305 -1.1241  1.0849  0.5288
 7186TIP3   OH243048   1.025   0.092  15.032 -0.4352  0.0379 -0.4290
 7186TIP3    H143049   0.982   0.024  15.084 -1.8257  1.4738  0.3582
 7186TIP3    H243050   1.015   0.063  14.941 -1.2590 -0.6707 -0.1148
 7187TIP3   OH243051   0.998   6.709   0.708  0.0391 -0.1829 -0.3682
 7187TIP3    H143052   0.973   6.639   0.769  1.2351 -0.8909 -0.6644
 7187TIP3    H243053   1.005   6.664   0.623  1.8690  0.0791 -0.3611
 7188TIP3   OH243054   1.529   1.042  13.306 -0.0067  0.4759  0.1104
 7188TIP3    H143055   1.580   1.111  13.348 -0.0543  0.5940 -0.0226
 7188TIP3    H243056   1.458   1.024  13.367 -0.6918  1.4054 -0.3965
 7189TIP3   OH243057   6.509   3.918  10.616 -0.2093  0.2854  0.1025
 7189TIP3    H143058   6.509   3.967  10.534 -1.0111 -0.5954 -0.4242
 7189TIP3    H243059   6.588   3.865  10.613 -1.4648 -1.5655 -1.2049
 7190TIP3   OH243060   0.629   6.218  11.572 -0.0374  0.1226  0.6034
 7190TIP3    H143061   0.683   6.141  11.561  0.8552  0.7242  0.7390
 7190TIP3    H243062   0.555   6.205  11.512  1.9212  0.8009 -2.0387
 7191TIP3   OH243063   0.702   5.551  14.570 -0.2965 -0.0343 -0.1760
 7191TIP3    H143064   0.652   5.632  14.561 -0.8682 -0.1984  1.3392
 7191TIP3    H243065   0.749   5.542  14.487 -1.6021  0.9126 -1.0411
 7192TIP3   OH243066   3.456   0.787  14.654 -0.0624  0.1058  0.1192
 7192TIP3    H143067   3.383   0.832  14.611  1.2528  0.6335 -1.5852
 7192TIP3    H243068   3.532   0.806  14.599  0.8555 -2.7930  0.3139
 7193TIP3   OH243069   3.284   0.024   5.158 -0.2072  0.2851  0.1498
 7193TIP3    H143070   3.210   0.045   5.215 -0.7823  1.0570 -0.8667
 7193TIP3    H243071   3.343   0.098   5.166 -0.9687  1.0678 -1.3597
 7194TIP3   OH243072   0.487   4.597   5.250 -0.4794 -0.7671 -0.3109
 7194TIP3    H143073   0.571   4.598   5.295 -3.1604  0.7395  5.1955
 7194TIP3    H243074   0.482   4.682   5.206  0.6383 -0.6309 -0.1725
 7195TIP3   OH243075   1.573   4.184   1.085 -0.2969 -0.0758  0.3452
 7195TIP3    H143076   1.497   4.240   1.068 -1.4984 -1.6240  0.4554
 7195TIP3    H243077   1.643   4.244   1.109 -1.6000  1.3619  0.5975
 7196TIP3   OH243078   6.083   3.100  13.444  0.3667  0.6348  0.5406
 7196TIP3    H143079   6.132   3.060  13.516  3.7089  0.3489 -1.7810
 7196TIP3    H243080   6.048   3.026  13.395  1.6657  0.6808 -0.4822
 7197TIP3   OH243081   4.916   0.025   0.491 -0.0849  0.3330  0.1258
 7197TIP3    H143082   4.855   0.067   0.429  0.8156  1.3957 -0.0541
 7197TIP3    H243083   5.000   0.027   0.446  0.0458 -1.3137  0.2961
 7198TIP3   OH243084   0.610   3.388  11.362 -0.2962 -0.0071 -0.0625
 7198TIP3    H143085   0.551   3.377  11.287 -1.6051  0.7314  0.8416
 7198TIP3    H243086   0.640   3.299  11.381  0.6170 -0.1244 -1.9021
 7199TIP3   OH243087   4.901   2.474  14.794 -0.1425  0.5521  0.2943
 7199TIP3    H143088   4.938   2.529  14.863  0.5235 -0.3531  0.6772
 7199TIP3    H243089   4.837   2.419  14.839  0.5651 -0.3047  0.2714
 7200TIP3   OH243090   1.064   4.894   2.485 -0.0171 -0.0275  0.4906
 7200TIP3    H143091   0.971   4.872   2.491  0.1396 -0.9271 -0.2376
 7200TIP3    H243092   1.089   4.919   2.574 -0.4913 -1.7021  1.1092
 7201TIP3   OH243093   1.493   1.902  11.913 -0.1636 -0.1941 -0.0793
 7201TIP3    H143094   1.431   1.865  11.850 -1.0717 -0.6063  1.0405
 7201TIP3    H243095   1.438   1.954  11.972  0.4513 -1.1768  1.3750
 7202TIP3   OH243096   5.603   3.489   0.026  0.4333 -0.3218  0.4361
 7202TIP3    H143097   5.530   3.495   0.087  0.3374 -0.3338  0.3247
 7202TIP3    H243098   5.652   3.571   0.038  1.1044 -0.8624  1.3913
 7203TIP3   OH243099   5.639   3.217   3.013  0.2016 -0.1009  0.5654
 7203TIP3    H143100   5.562   3.270   3.030  0.0370 -0.3377  0.5737
 7203TIP3    H243101   5.682   3.260   2.939 -1.2089 -1.2604 -0.9828
 7204TIP3   OH243102   6.027   2.763   0.425  0.5929 -0.0713  0.3046
 7204TIP3    H143103   5.970   2.690   0.398 -1.6591  0.4035  3.4404
 7204TIP3    H243104   5.983   2.841   0.390  0.5752  0.1181  0.7516
 7205TIP3   OH243105   1.289   1.842   3.309  0.0747 -0.2705 -0.3705
 7205TIP3    H143106   1.373   1.839   3.354 -0.9195 -1.5063  1.4579
 7205TIP3    H243107   1.279   1.755   3.270 -0.3258 -0.0902 -0.6737
 7206TIP3   OH243108   1.639   1.014  16.437  0.1549 -0.0633  0.0199
 7206TIP3    H143109   1.626   0.924  16.407  0.2009  0.1229 -0.5645
 7206TIP3    H243110   1.599   1.016  16.524 -1.3124 -0.2211 -0.6399
 7207TIP3   OH243111   4.226   3.127   5.079 -0.0161 -0.0695 -0.1318
 7207TIP3    H143112   4.297   3.080   5.036 -0.0310  1.0366 -1.3874
 7207TIP3    H243113   4.259   3.217   5.089 -0.4822 -0.0164  1.0709
 7208TIP3   OH243114   0.619   4.688   0.448  0.5326  0.7749 -0.4605
 7208TIP3    H143115   0.600   4.675   0.541  3.3277 -0.1092  0.0385
 7208TIP3    H243116   0.608   4.782   0.434 -2.3769  0.5551  0.1363
 7209TIP3   OH243117   5.948   2.225  12.302  0.0870  0.2017 -0.1065
 7209TIP3    H143118   5.955   2.287  12.230 -1.6847  2.1569  1.3359
 7209TIP3    H243119   6.023   2.245  12.358 -1.0723  1.8604  0.9154
 7210TIP3   OH243120   0.054   6.816  14.995  0.2715 -0.2890 -0.4539
 7210TIP3    H143121   0.059   6.910  15.012  2.6985 -0.5572  0.4957
 7210TIP3    H243122   0.020   6.779  15.076  0.7224 -0.3799 -0.3065
 7211TIP3   OH243123   5.356   4.607  17.136  0.0338 -0.3314 -0.2749
 7211TIP3    H143124   5.287   4.673  17.139 -0.2570 -0.6673  0.6631
 7211TIP3    H243125   5.437   4.657  17.149  0.0278  0.1309 -1.9096
 7212TIP3   OH243126   1.706   5.100   0.026 -0.1301  0.2516 -0.1674
 7212TIP3    H143127   1.691   5.025  -0.032 -1.7679 -0.8837  1.6790
 7212TIP3    H243128   1.792   5.085   0.064 -0.0055 -0.1456 -0.5976
 7213TIP3   OH243129   6.030   3.497   0.173  0.0654  0.3130 -0.6783
 7213TIP3    H143130   6.038   3.554   0.097  0.8522 -0.8248 -1.4653
 7213TIP3    H243131   6.004   3.412   0.138 -0.0954 -0.0894  0.3724
 7214TIP3   OH243132   5.700   6.454  14.928  0.2193 -0.2330 -0.0204
 7214TIP3    H143133   5.728   6.409  14.849 -0.6616 -2.2991  0.7964
 7214TIP3    H243134   5.773   6.444  14.989  0.0647 -0.4793  0.1259
 7215TIP3   OH243135   5.384   6.346   0.155  0.5658 -0.2609 -0.2083
 7215TIP3    H143136   5.467   6.300   0.163  0.5403  0.0799  2.6314
 7215TIP3    H243137   5.359   6.367   0.245 -1.4227  1.7326 -1.1524
 7216TIP3   OH243138   5.158   1.344   3.628  0.2236 -0.4764  0.1106
 7216TIP3    H143139   5.096   1.272   3.618  0.9255 -1.0720 -0.0562
 7216TIP3    H243140   5.109   1.422   3.604 -0.3280 -0.9974 -0.4844
 7217TIP3   OH243141   0.505   3.301   3.033  0.3713  0.1008 -0.7151
 7217TIP3    H143142   0.483   3.368   3.098 -0.6042 -1.4599  0.6172
 7217TIP3    H243143   0.427   3.297   2.977  0.8459  0.7905 -1.4432
 7218TIP3   OH243144   2.014   0.154   1.996  0.2619  0.0834  0.0411
 7218TIP3    H143145   1.945   0.213   1.965 -0.1455 -0.6449 -0.4683
 7218TIP3    H243146   1.977   0.066   1.983  0.4922 -0.2683  1.6362
 7219TIP3   OH243147   3.902   2.579  15.229 -0.4193  0.0424 -0.0598
 7219TIP3    H143148   3.827   2.522  15.211  0.5782 -1.4909  0.5591
 7219TIP3    H243149   3.928   2.612  15.143 -0.2839 -1.3693 -0.5707
 7220TIP3   OH243150   1.274   4.491  14.493 -0.6698  0.3242  0.1486
 7220TIP3    H143151   1.238   4.575  14.462  0.4872  0.8642  0.2680
 7220TIP3    H243152   1.359   4.513  14.530 -0.7105 -0.7924  0.9288
 7221TIP3   OH243153   5.993   2.454  13.370 -0.3056 -0.3356 -0.1238
 7221TIP3    H143154   6.018   2.514  13.301  2.1028 -0.5430  0.5343
 7221TIP3    H243155   6.023   2.495  13.451  0.1348 -1.7468  0.4609
 7222TIP3   OH243156   4.570   5.706   0.525 -0.3655 -0.0693  0.3971
 7222TIP3    H143157   4.560   5.633   0.586 -1.7699  0.6922  1.0902
 7222TIP3    H243158   4.489   5.707   0.474 -0.6649  1.4227  0.8690
 7223TIP3   OH243159   4.589   5.286  14.095  0.0632 -0.7933 -0.0957
 7223TIP3    H143160   4.527   5.315  14.027 -2.6106 -2.4101  1.5725
 7223TIP3    H243161   4.582   5.191  14.095  1.4183 -0.9147  1.2015
 7224TIP3   OH243162   2.479   0.394  16.714  0.0073  0.3900  0.3148
 7224TIP3    H143163   2.460   0.315  16.763 -0.8519  0.2071 -0.3022
 7224TIP3    H243164   2.396   0.442  16.711  0.2168  0.7242 -0.3696
 7225TIP3   OH243165   3.339   2.729  10.891 -0.2926  0.2628  0.7052
 7225TIP3    H143166   3.276   2.763  10.827  0.2186 -0.9862 -0.4760
 7225TIP3    H243167   3.287   2.672  10.947 -0.3720 -0.1651  0.2017
 7226TIP3   OH243168   1.595   0.542   1.520  0.3726  0.1505  0.5000
 7226TIP3    H143169   1.563   0.632   1.517 -0.8431 -0.2703  0.6826
 7226TIP3    H243170   1.636   0.528   1.435 -1.4235  0.1430 -0.3761
 7227TIP3   OH243171   5.242   4.930  14.561 -0.3239 -0.5516 -0.2381
 7227TIP3    H143172   5.197   4.874  14.624  0.5710 -2.0003 -0.8498
 7227TIP3    H243173   5.205   5.017  14.575 -0.4937 -0.9407  1.9264
 7228TIP3   OH243174   0.452   5.201  13.961  0.1660  0.1077 -0.4509
 7228TIP3    H143175   0.407   5.271  14.009  1.8188 -0.0394  1.3988
 7228TIP3    H243176   0.466   5.133  14.027  0.7902 -0.9099 -1.6341
 7229TIP3   OH243177   5.961   1.217  13.568 -0.7543  0.3544 -0.0329
 7229TIP3    H143178   5.867   1.211  13.557 -0.5063 -0.9329 -1.5100
 7229TIP3    H243179   5.994   1.248  13.484  0.1491  0.8409  0.4820
 7230TIP3   OH243180   1.733   4.281   3.904  0.5817  0.6863  0.1879
 7230TIP3    H143181   1.819   4.314   3.929  0.7546  0.8457 -0.5986
 7230TIP3    H243182   1.689   4.357   3.865 -0.7699  1.2248  2.6685
 7231TIP3   OH243183   4.354   0.827  13.434 -0.6235  0.1957  0.5857
 7231TIP3    H143184   4.443   0.837  13.398 -0.6969  0.9582  0.6039
 7231TIP3    H243185   4.366   0.775  13.513 -0.1572  0.4660  0.7005
 7232TIP3   OH243186   5.857   0.091   1.766 -0.4527  0.3334 -0.1491
 7232TIP3    H143187   5.881   0.096   1.674 -2.0392 -1.9699 -0.7317
 7232TIP3    H243188   5.766   0.120   1.770  0.1859  2.2961  1.0086
 7233TIP3   OH243189   0.228   0.608   0.428 -0.3619 -0.0419 -0.1022
 7233TIP3    H143190   0.197   0.562   0.506 -0.3454 -0.2977 -0.2459
 7233TIP3    H243191   0.165   0.585   0.360  0.2526 -0.7275 -0.4477
 7234TIP3   OH243192   5.299   1.084   2.184 -0.4897  0.7001 -0.4043
 7234TIP3    H143193   5.273   1.107   2.095  1.3086  0.5709 -0.9834
 7234TIP3    H243194   5.304   1.168   2.230 -2.4195  0.6804 -0.1318
 7235TIP3   OH243195   3.759   5.079   5.324  0.8236 -0.5532  0.7266
 7235TIP3    H143196   3.731   4.989   5.342  1.9156 -1.1218 -0.3378
 7235TIP3    H243197   3.678   5.128   5.313  0.1705 -0.9957  3.1884
 7236TIP3   OH243198   3.613   1.914  16.830  1.0263 -0.0579 -0.1417
 7236TIP3    H143199   3.527   1.954  16.819 -0.1404 -2.4534 -0.1509
 7236TIP3    H243200   3.644   1.896  16.741  3.1333  3.9108 -0.3099
 7237TIP3   OH243201   4.875   3.211   2.308 -0.2563 -1.1154  1.1398
 7237TIP3    H143202   4.831   3.207   2.393  0.2102 -0.7016  1.3977
 7237TIP3    H243203   4.898   3.120   2.289  0.5635 -1.0852  1.9446
 7238TIP3   OH243204   3.364   6.427  11.785 -0.2677 -0.3689 -0.5863
 7238TIP3    H143205   3.435   6.435  11.722 -0.2674 -0.4301 -0.5944
 7238TIP3    H243206   3.356   6.333  11.800  0.0509 -0.3215 -0.1326
 7239TIP3   OH243207   2.170   3.250  12.258 -0.0081 -0.0525  0.4805
 7239TIP3    H143208   2.144   3.193  12.185 -0.5892  0.4745  0.2657
 7239TIP3    H243209   2.218   3.321  12.216  0.2861 -0.1266  0.6932
 7240TIP3   OH243210   6.394   0.480   6.091 -0.0570 -0.3488  0.7610
 7240TIP3    H143211   6.462   0.441   6.146  0.7377  1.6086  1.2169
 7240TIP3    H243212   6.312   0.457   6.133  0.4230 -1.0143  1.3417
 7241TIP3   OH243213   5.700   2.440   4.196  0.3681  0.1002 -0.1453
 7241TIP3    H143214   5.702   2.437   4.291  1.0906  0.7870 -0.1330
 7241TIP3    H243215   5.787   2.469   4.171  0.9263 -2.2595 -1.1115
 7242TIP3   OH243216   6.368   2.839  11.295 -1.1390  0.0592  0.1678
 7242TIP3    H143217   6.288   2.889  11.282 -1.3136 -0.3580 -0.3831
 7242TIP3    H243218   6.353   2.757  11.247  0.2627  0.6419 -1.3020
 7243TIP3   OH243219   3.945   2.624   4.207  0.1831 -0.5275 -0.7849
 7243TIP3    H143220   3.963   2.530   4.208  1.2586 -0.3278  0.6209
 7243TIP3    H243221   4.031   2.665   4.211 -0.2697  0.5365 -1.5576
 7244TIP3   OH243222   3.459   5.111   0.725  0.3163 -0.1055  0.2594
 7244TIP3    H143223   3.389   5.068   0.676  0.1646 -0.0987  0.4708
 7244TIP3    H243224   3.483   5.048   0.792 -0.3238  0.3806  0.9566
 7245TIP3   OH243225   4.075   2.193   2.179 -0.0974  0.4776  0.1452
 7245TIP3    H143226   4.052   2.211   2.088 -0.4823  0.2545  0.1957
 7245TIP3    H243227   4.117   2.107   2.176  0.8788  0.9634  0.0303
 7246TIP3   OH243228   5.526   2.542  11.924  0.4286 -0.0938 -0.0348
 7246TIP3    H143229   5.521   2.477  11.994  0.3878 -0.9950 -0.8580
 7246TIP3    H243230   5.520   2.626  11.969  1.7582 -0.6225  1.1730
 7247TIP3   OH243231   6.115   2.773  17.258 -0.2898  0.4907 -0.5789
 7247TIP3    H143232   6.065   2.697  17.229  0.6834 -0.6524  0.6749
 7247TIP3    H243233   6.114   2.833  17.183  0.1368 -1.3500 -2.0900
 7248TIP3   OH243234   6.484   0.348   3.976  0.4816  0.2832 -0.1803
 7248TIP3    H143235   6.550   0.313   3.915 -0.8531  0.6546 -1.8684
 7248TIP3    H243236   6.440   0.417   3.927 -0.6895  0.5410  1.1914
 7249TIP3   OH243237   0.080   1.456  11.863  0.5269 -0.2626  0.1891
 7249TIP3    H143238   0.110   1.518  11.930 -1.7550 -0.4696  1.4574
 7249TIP3    H243239   0.107   1.371  11.896 -1.6676 -0.4805  1.4958
 7250TIP3   OH243240   2.621   3.713   1.013 -0.4960  0.0601 -0.0620
 7250TIP3    H143241   2.597   3.630   1.052 -1.4218  0.2474 -0.2221
 7250TIP3    H243242   2.702   3.739   1.058  0.4123 -1.4518 -0.7889
 7251TIP3   OH243243   0.575   4.516  13.039  0.9840  0.2103 -0.2944
 7251TIP3    H143244   0.590   4.593  13.095 -0.9318  1.3789 -1.3239
 7251TIP3    H243245   0.550   4.447  13.101  0.7851  0.9578  0.4767
 7252TIP3   OH243246   6.481   6.471  16.368  0.2650  0.3948  0.7544
 7252TIP3    H143247   6.423   6.492  16.441 -1.0710 -0.6468 -0.0069
 7252TIP3    H243248   6.438   6.399  16.322  1.2166  0.8778 -0.9333
 7253TIP3   OH243249   2.422   4.825   0.044 -0.0001  1.0252 -0.2539
 7253TIP3    H143250   2.428   4.885  -0.030  0.8074  0.1418 -0.9193
 7253TIP3    H243251   2.470   4.747   0.016 -4.4083 -1.5904 -0.9675
 7254TIP3   OH243252   5.994   1.907  12.986  0.1692 -0.3274 -0.6717
 7254TIP3    H143253   5.912   1.955  12.981  0.4664  0.2958  0.4315
 7254TIP3    H243254   6.003   1.867  12.899 -1.6822 -1.0482 -0.5552
 7255TIP3   OH243255   5.762   1.775  10.818 -0.0742  0.4666  0.1714
 7255TIP3    H143256   5.738   1.855  10.864 -1.9390 -0.2055  0.4134
 7255TIP3    H243257   5.851   1.791  10.786 -0.2531  2.4421  0.6176
 7256TIP3   OH243258   4.692   4.264   2.999 -0.0784  0.0255 -0.0147
 7256TIP3    H143259   4.772   4.290   3.044 -2.1900  0.9652  3.3158
 7256TIP3    H243260   4.641   4.218   3.065 -1.5394 -2.2255 -2.6008
 7257TIP3   OH243261   4.579   6.337  13.870  0.1588 -0.2583 -0.6546
 7257TIP3    H143262   4.600   6.249  13.901 -2.2524 -0.6056  0.0789
 7257TIP3    H243263   4.579   6.330  13.774 -0.0206 -1.0524 -0.5953
 7258TIP3   OH243264   1.823   3.426  11.114  0.0477 -0.3371  0.0816
 7258TIP3    H143265   1.836   3.450  11.022 -1.0466  0.8986  0.2367
 7258TIP3    H243266   1.785   3.338  11.111 -1.3478  0.2921 -0.6971
 7259TIP3   OH243267   4.376   5.628   2.420  0.6007 -0.2797 -0.2557
 7259TIP3    H143268   4.385   5.720   2.447 -0.5417 -0.3075  0.2201
 7259TIP3    H243269   4.457   5.610   2.372  0.8796  0.9513 -0.2708
 7260TIP3   OH243270   1.178   1.406   4.725 -0.3666 -0.8206 -0.1288
 7260TIP3    H143271   1.100   1.370   4.683  0.1466 -0.7702 -1.1465
 7260TIP3    H243272   1.145   1.476   4.781 -0.9888 -0.3613 -1.0552
 7261TIP3   OH243273   6.685   5.713   3.293  0.0606  0.5515  0.0596
 7261TIP3    H143274   6.762   5.762   3.321 -0.0532  0.7929 -0.0409
 7261TIP3    H243275   6.683   5.725   3.198 -1.1600  2.1314  0.2559
 7262TIP3   OH243276   5.238   6.388  13.811 -1.0357  0.1833  0.1304
 7262TIP3    H143277   5.326   6.421  13.793 -1.1078 -0.8178 -2.2642
 7262TIP3    H243278   5.185   6.466  13.826 -0.3796  0.9548 -1.4974
 7263TIP3   OH243279   4.934   3.490   2.652 -0.1953  0.5839 -0.1682
 7263TIP3    H143280   4.844   3.514   2.628 -0.2305  0.0986 -0.5355
 7263TIP3    H243281   4.984   3.500   2.570  0.2914  1.8025  0.2577
 7264TIP3   OH243282   5.957   1.811  14.812 -0.7779  0.1089 -0.1896
 7264TIP3    H143283   5.942   1.838  14.903  0.7865  2.8168 -0.6682
 7264TIP3    H243284   5.901   1.869  14.760 -0.5552 -0.4163 -1.0321
 7265TIP3   OH243285   0.891   2.702  15.400  0.3076 -0.0189  0.5548
 7265TIP3    H143286   0.965   2.732  15.349  0.2569 -0.7991  0.0116
 7265TIP3    H243287   0.815   2.717  15.344  0.1903 -0.3242  0.6262
 7266TIP3   OH243288   6.367   5.410  12.834  0.2345 -0.2069  0.0141
 7266TIP3    H143289   6.335   5.490  12.794  0.3469  0.3351  0.9824
 7266TIP3    H243290   6.292   5.350  12.833 -0.4576  0.6258  1.1538
 7267TIP3   OH243291   3.972   0.939  15.604  0.0932  0.2495  0.4928
 7267TIP3    H143292   3.943   0.937  15.695  1.8782  2.5070  1.1252
 7267TIP3    H243293   3.900   0.982  15.557 -0.4321 -0.0931  0.9844
 7268TIP3   OH243294   5.007   5.298  16.492 -0.1420 -0.2697 -0.5126
 7268TIP3    H143295   4.970   5.225  16.441 -0.5070 -0.1069 -0.4805
 7268TIP3    H243296   5.101   5.281  16.493 -0.2150 -0.6941 -0.5817
 7269TIP3   OH243297   0.438   0.344  15.995 -0.4944 -0.0745  0.1149
 7269TIP3    H143298   0.420   0.257  15.959  1.3219  0.0922 -1.2667
 7269TIP3    H243299   0.381   0.403  15.946  0.3547 -0.1343 -0.9592
 7270TIP3   OH243300   6.097   2.432   3.960 -0.3781  0.0277 -0.3463
 7270TIP3    H143301   6.119   2.364   3.896  1.0719  0.1747 -0.0123
 7270TIP3    H243302   6.106   2.388   4.045  1.8711  0.9907 -0.0703
 7271TIP3   OH243303   1.532   4.730  16.305 -0.6852  0.2662  0.5481
 7271TIP3    H143304   1.511   4.659  16.366  0.0150  0.0196  0.5107
 7271TIP3    H243305   1.605   4.777  16.346 -1.3661  1.1727  0.7322
 7272TIP3   OH243306   1.256   4.468   4.704  0.1911 -0.0948  0.3822
 7272TIP3    H143307   1.176   4.518   4.719 -1.5910 -1.3711 -4.0534
 7272TIP3    H243308   1.309   4.523   4.646  0.3584 -1.2474 -0.5885
 7273TIP3   OH243309   5.280   6.784  11.779  0.1316  0.0261 -0.3538
 7273TIP3    H143310   5.374   6.802  11.777  0.4937 -1.7312  0.2553
 7273TIP3    H243311   5.270   6.717  11.847 -1.5468  0.1730 -0.4536
 7274TIP3   OH243312   4.373   0.962   4.233  0.0763 -0.3879  0.3592
 7274TIP3    H143313   4.408   0.878   4.203  0.1459 -0.5276  0.8225
 7274TIP3    H243314   4.313   0.939   4.304 -1.2504 -0.1817 -0.6759
 7275TIP3   OH243315   6.347   0.297  11.072 -0.5185 -0.5206  0.5405
 7275TIP3    H143316   6.334   0.383  11.033 -0.8902 -0.6808  0.3097
 7275TIP3    H243317   6.274   0.245  11.040 -0.1370 -1.0010  0.4504
 7276TIP3   OH243318   0.409   3.722   5.205 -0.0601 -0.2966 -0.2043
 7276TIP3    H143319   0.322   3.752   5.229  0.4312  1.0468 -0.0395
 7276TIP3    H243320   0.469   3.784   5.247  1.0135 -1.6798  0.3880
 7277TIP3   OH243321   3.830   5.350   3.241 -0.0348  0.3019 -0.3266
 7277TIP3    H143322   3.762   5.407   3.276 -0.1412  1.0210 -1.6868
 7277TIP3    H243323   3.784   5.290   3.183  0.6614  1.7950 -2.4865
 7278TIP3   OH243324   0.521   4.143   5.552 -0.2448  0.4862 -0.4989
 7278TIP3    H143325   0.436   4.121   5.590 -0.7179  1.2008 -1.1453
 7278TIP3    H243326   0.534   4.234   5.576  1.0827 -0.0638  0.9836
 7279TIP3   OH243327   4.873   1.385   6.643  0.4343  0.1569  0.1860
 7279TIP3    H143328   4.863   1.296   6.678  1.9289  0.0018  0.2412
 7279TIP3    H243329   4.917   1.373   6.559  2.1624  0.9396  0.9519
 7280TIP3   OH243330   5.458   6.574   3.042 -0.0478 -0.5429 -0.1814
 7280TIP3    H143331   5.425   6.493   3.081  0.6551 -0.1062  1.3469
 7280TIP3    H243332   5.478   6.630   3.117  1.2464  0.3428 -1.1830
 7281TIP3   OH243333   4.630   6.221   0.420  0.5316  0.6602  0.0406
 7281TIP3    H143334   4.697   6.165   0.381  0.4928  0.1972  0.6411
 7281TIP3    H243335   4.548   6.173   0.407  0.2477  1.4111 -1.0602
 7282TIP3   OH243336   4.426   5.912  15.955  0.0660  0.1846 -0.0285
 7282TIP3    H143337   4.416   5.916  15.860 -2.0572 -0.3662  0.1418
 7282TIP3    H243338   4.395   5.997  15.986 -1.4123 -0.4767  0.3270
 7283TIP3   OH243339   2.821   4.170   1.255 -0.7814  0.2899 -0.3019
 7283TIP3    H143340   2.773   4.178   1.338 -1.2780  0.1950 -0.5796
 7283TIP3    H243341   2.905   4.213   1.272 -1.7794  2.3784 -0.4630
 7284TIP3   OH243342   3.901   0.838  10.964 -0.2369 -0.4397 -0.1058
 7284TIP3    H143343   3.982   0.862  10.918  0.7817 -0.8933  1.4305
 7284TIP3    H243344   3.910   0.744  10.980 -1.1759 -0.5326 -0.1277
 7285TIP3   OH243345   6.489   0.507   2.258  0.8448  0.4726  0.3895
 7285TIP3    H143346   6.412   0.550   2.295  0.6830 -0.1013  0.7263
 7285TIP3    H243347   6.460   0.474   2.172  0.3119 -0.9276  1.0850
 7286TIP3   OH243348   3.374   6.354   2.530  1.0275 -0.5447 -0.0117
 7286TIP3    H143349   3.361   6.404   2.449  0.9185  0.2486  0.5019
 7286TIP3    H243350   3.304   6.288   2.528 -0.5012  1.0270  0.6417
 7287TIP3   OH243351   2.147   5.693   3.021 -0.0409 -0.7127  0.7409
 7287TIP3    H143352   2.241   5.706   3.010 -0.2657  0.3496  0.0130
 7287TIP3    H243353   2.122   5.632   2.952 -0.2230  0.4972 -0.2602
 7288TIP3   OH243354   5.785   5.276   4.777 -0.5242 -0.0026 -0.0812
 7288TIP3    H143355   5.879   5.269   4.757 -0.5155  0.2492 -0.1377
 7288TIP3    H243356   5.747   5.315   4.699 -0.5502  0.6378  0.2451
 7289TIP3   OH243357   0.016   2.579   5.304  0.0364 -0.1837 -0.3642
 7289TIP3    H143358   0.096   2.537   5.274 -0.4606 -0.7865 -0.8762
 7289TIP3    H243359  -0.009   2.531   5.383 -0.0216 -0.2496 -0.4217
 7290TIP3   OH243360   3.031   0.798   3.414 -0.2285  0.5447 -0.2418
 7290TIP3    H143361   3.066   0.846   3.489 -1.3398  1.3220 -0.2126
 7290TIP3    H243362   2.964   0.855   3.378  0.0222  0.0099 -1.6036
 7291TIP3   OH243363   1.047   1.752  13.406  0.1085 -0.1065 -0.6883
 7291TIP3    H143364   1.057   1.836  13.363 -1.3060 -0.6100 -2.0269
 7291TIP3    H243365   0.958   1.752  13.440  0.8831 -0.1135  1.4157
 7292TIP3   OH243366   6.664   4.709   0.445  0.7618 -0.2195  0.2548
 7292TIP3    H143367   6.752   4.672   0.437  0.5664 -0.8758  1.0093
 7292TIP3    H243368   6.620   4.683   0.364  1.4802  0.7430 -0.4599
 7293TIP3   OH243369   2.772   0.182  13.216  0.6899 -0.2382  0.8582
 7293TIP3    H143370   2.698   0.226  13.175 -0.5893 -1.8075  1.4179
 7293TIP3    H243371   2.844   0.191  13.154 -0.8318 -1.4016 -1.1041
 7294TIP3   OH243372   6.564   5.948   2.542 -0.0567  0.7508  0.0978
 7294TIP3    H143373   6.635   5.986   2.491  0.0867  0.6987  0.2608
 7294TIP3    H243374   6.485   5.992   2.510  0.1704  1.5501  0.6402
 7295TIP3   OH243375   6.251   1.148   2.569 -0.4958  0.3299  0.0557
 7295TIP3    H143376   6.315   1.211   2.536  2.7268 -1.5072  2.4783
 7295TIP3    H243377   6.166   1.184   2.543  1.2422  5.1090  0.5294
 7296TIP3   OH243378   6.271   3.248  15.102 -0.3629  0.5877 -0.4785
 7296TIP3    H143379   6.363   3.223  15.109 -0.5398  0.4424  1.4728
 7296TIP3    H243380   6.239   3.199  15.025  0.6662 -0.9742  0.0591
 7297TIP3   OH243381   2.093   2.337  13.790 -0.1288  0.1675  0.2035
 7297TIP3    H143382   2.066   2.246  13.782  0.2599 -0.0062  0.7695
 7297TIP3    H243383   2.027   2.377  13.847 -0.6241  0.3894 -0.5155
 7298TIP3   OH243384   6.327   1.016   6.259  0.0140 -0.0168 -0.0476
 7298TIP3    H143385   6.291   0.928   6.269 -0.3042  0.1468  0.2524
 7298TIP3    H243386   6.250   1.071   6.245  0.0047  0.5446  2.0122
 7299TIP3   OH243387   0.647   2.703  13.259 -0.1292 -0.2402  0.1918
 7299TIP3    H143388   0.594   2.704  13.338 -1.8821  0.2146 -0.9656
 7299TIP3    H243389   0.639   2.792  13.224 -0.1981 -0.7240 -1.0350
 7300TIP3   OH243390   2.067   3.859  12.640 -0.1479 -0.1103  0.2957
 7300TIP3    H143391   2.147   3.883  12.592  0.3826  1.9198  2.0937
 7300TIP3    H243392   1.996   3.897  12.589  0.3318  1.1783  0.5736
 7301TIP3   OH243393   4.523   2.578  13.167  0.0601 -0.1835 -0.4902
 7301TIP3    H143394   4.576   2.645  13.210  0.3056  0.7008 -2.1433
 7301TIP3    H243395   4.553   2.495  13.204 -0.1371  0.5902  1.4547
 7302TIP3   OH243396   2.153   5.131  14.497  0.2248 -0.0664 -0.2075
 7302TIP3    H143397   2.132   5.058  14.555  2.2693 -1.0630 -0.6882
 7302TIP3    H243398   2.154   5.208  14.554 -0.8160 -0.5770  0.5071
 7303TIP3   OH243399   6.662   1.237   4.861  0.1750 -0.3437  0.1033
 7303TIP3    H143400   6.617   1.164   4.903  1.2132 -0.7949  0.4701
 7303TIP3    H243401   6.597   1.276   4.803 -0.5283 -1.2789  0.2508
 7304TIP3   OH243402   0.157   0.021   2.611  0.5026 -0.3589  0.7063
 7304TIP3    H143403   0.181  -0.072   2.603 -0.4058 -0.6520  1.3039
 7304TIP3    H243404   0.213   0.054   2.682  2.1539  0.0222 -0.7474
 7305TIP3   OH243405   0.269   2.091  13.070 -0.2047  0.5567 -0.1298
 7305TIP3    H143406   0.239   2.139  12.992 -1.1119  1.0376  0.5050
 7305TIP3    H243407   0.321   2.018  13.035 -1.1894  0.3597 -1.2177
 7306TIP3   OH243408   0.895   4.616  15.380  0.0503  0.2183  0.4280
 7306TIP3    H143409   0.805   4.640  15.400  0.4375  1.0250  1.2547
 7306TIP3    H243410   0.943   4.635  15.460  0.8162 -1.0045  0.2786
 7307TIP3   OH243411   6.148   3.081   2.567  0.4014  0.8802  0.9079
 7307TIP3    H143412   6.103   3.004   2.532  1.3574  1.0515 -0.7270
 7307TIP3    H243413   6.094   3.107   2.642 -1.8641  0.6627 -0.5798
 7308TIP3   OH243414   1.670   6.638  12.390 -0.0191 -0.2147  0.5709
 7308TIP3    H143415   1.744   6.577  12.395  0.8009  0.8838  1.8978
 7308TIP3    H243416   1.617   6.617  12.467 -1.4788 -1.4702 -0.7438
 7309TIP3   OH243417   6.502   6.800  16.430  0.5622 -0.3103 -0.5011
 7309TIP3    H143418   6.541   6.777  16.345  0.2879 -1.3714 -0.3374
 7309TIP3    H243419   6.574   6.787  16.493  0.3904 -0.8000 -0.4017
 7310TIP3   OH243420   4.304   5.365  12.700  0.0123  0.3175 -0.0098
 7310TIP3    H143421   4.375   5.307  12.730  0.3123  0.3652 -0.6203
 7310TIP3    H243422   4.249   5.309  12.645 -1.0667 -0.0131  1.3691
 7311TIP3   OH243423   2.167   5.221  16.939  0.8768  0.3312 -0.0551
 7311TIP3    H143424   2.092   5.246  16.884  0.1197 -2.4078 -0.3364
 7311TIP3    H243425   2.207   5.148  16.892  0.1328 -2.1750  3.0996
 7312TIP3   OH243426   0.990   2.260  10.598  0.3818 -0.1391 -0.7199
 7312TIP3    H143427   1.065   2.248  10.540 -0.1438 -0.3507 -1.3608
 7312TIP3    H243428   0.933   2.321  10.552  1.0087  1.4748  0.6024
 7313TIP3   OH243429   2.877   3.473  16.023 -0.2772  0.5689 -0.4724
 7313TIP3    H143430   2.907   3.545  15.968 -2.2577  2.2416  0.5683
 7313TIP3    H243431   2.945   3.464  16.090  0.6248  0.5788 -1.3857
 7314TIP3   OH243432   2.512   0.773  15.680  0.4150  0.2361 -0.0679
 7314TIP3    H143433   2.510   0.771  15.584 -0.6813  0.6438 -0.0637
 7314TIP3    H243434   2.532   0.683  15.705 -0.7090 -0.2045 -0.6666
 7315TIP3   OH243435   1.649   1.721   1.273  0.3333 -0.2265 -0.1174
 7315TIP3    H143436   1.642   1.792   1.210  2.0787  0.4700  0.4276
 7315TIP3    H243437   1.559   1.703   1.301 -0.1500  1.5215 -0.5276
 7316TIP3   OH243438   0.800   5.623   0.968  0.4120 -0.0258 -0.0907
 7316TIP3    H143439   0.863   5.554   0.953  0.8559  0.3541  0.0135
 7316TIP3    H243440   0.810   5.645   1.061 -0.9446 -1.0182  0.3048
 7317TIP3   OH243441   0.235   4.674   4.055 -0.2992  0.9532  0.3407
 7317TIP3    H143442   0.234   4.769   4.040 -0.6451  0.9742  0.5020
 7317TIP3    H243443   0.143   4.648   4.054 -0.2806  0.8061  1.4992
 7318TIP3   OH243444   0.410   5.853  16.791  0.6999  0.0976  0.4691
 7318TIP3    H143445   0.420   5.902  16.872 -1.2736  1.9406 -0.3266
 7318TIP3    H243446   0.342   5.901  16.743  1.3485 -1.3290 -1.9633
 7319TIP3   OH243447   3.267   1.785  13.197 -0.0226 -0.3739 -0.3857
 7319TIP3    H143448   3.279   1.861  13.140 -2.3757 -0.6853 -1.3606
 7319TIP3    H243449   3.251   1.821  13.284  1.7294  0.1541 -0.2720
 7320TIP3   OH243450   5.075   1.898   4.844  0.1088  0.1345 -0.1717
 7320TIP3    H143451   5.157   1.859   4.874 -0.0120 -0.7400 -0.9445
 7320TIP3    H243452   5.102   1.971   4.787  0.3755 -0.9681 -1.4889
 7321TIP3   OH243453   2.198   4.608  11.736  0.5219  0.3431  0.6795
 7321TIP3    H143454   2.239   4.669  11.674  2.9444 -1.4478  0.4583
 7321TIP3    H243455   2.264   4.597  11.805  0.1406 -2.0708  0.6854
 7322TIP3   OH243456   2.429   1.194   0.840 -0.5045 -0.0614 -0.4605
 7322TIP3    H143457   2.488   1.218   0.912  1.1484 -1.4876 -1.3022
 7322TIP3    H243458   2.377   1.122   0.874 -0.0237 -0.4495 -0.5388
 7323TIP3   OH243459   2.262   3.609  12.431 -0.4761 -0.2562 -0.1237
 7323TIP3    H143460   2.314   3.534  12.402 -1.7929 -1.7896  1.3678
 7323TIP3    H243461   2.326   3.671  12.465  0.5687 -1.0989 -0.5075
 7324TIP3   OH243462   4.306   0.568   4.720  0.1307 -0.9770  0.5087
 7324TIP3    H143463   4.283   0.629   4.789  0.1273  0.3328 -0.6236
 7324TIP3    H243464   4.402   0.571   4.716  0.0351  1.3218 -1.5755
 7325TIP3   OH243465   0.352   0.303  11.693 -0.2071  0.7314 -0.0746
 7325TIP3    H143466   0.355   0.391  11.655 -0.0696  0.4756 -0.6692
 7325TIP3    H243467   0.281   0.259  11.646  0.5056  0.1499 -0.6184
 7326TIP3   OH243468   1.289   6.767   4.147 -0.8549 -0.5189  1.1464
 7326TIP3    H143469   1.314   6.691   4.095  0.0600  0.1543  0.5868
 7326TIP3    H243470   1.193   6.764   4.149 -0.8185 -2.0519  1.6930
 7327TIP3   OH243471   2.660   6.264  16.440  0.4939  0.6503 -0.4637
 7327TIP3    H143472   2.699   6.273  16.527 -1.8852 -0.0207  0.7142
 7327TIP3    H243473   2.617   6.179  16.442 -0.8677  1.2901 -1.7693
 7328TIP3   OH243474   1.832   3.498   5.984 -0.1496 -0.8535  0.4983
 7328TIP3    H143475   1.832   3.566   5.917  0.9300 -1.7225 -0.4136
 7328TIP3    H243476   1.902   3.523   6.044 -0.7712 -0.3530  1.0241
 7329TIP3   OH243477   0.089   3.495   2.122  0.1409 -0.5585 -1.1050
 7329TIP3    H143478   0.033   3.469   2.049 -1.1847 -3.2840  0.7891
 7329TIP3    H243479   0.173   3.453   2.103 -0.6383 -2.4999 -0.3782
 7330TIP3   OH243480   2.575   0.802  11.062  0.1134  0.3075 -0.0308
 7330TIP3    H143481   2.524   0.788  10.983 -0.0119 -0.7988  0.2423
 7330TIP3    H243482   2.643   0.865  11.036  0.2688 -0.2885 -1.1018
 7331TIP3   OH243483   5.858   4.211   3.189  0.5647  0.2809  0.0474
 7331TIP3    H143484   5.933   4.203   3.130  0.5434  1.1885 -0.1033
 7331TIP3    H243485   5.790   4.156   3.150  1.1120 -0.4767  0.1387
 7332TIP3   OH243486   5.761   2.107   2.184 -0.5386  0.1655 -0.3325
 7332TIP3    H143487   5.797   2.159   2.112  1.4479  0.0984  0.6040
 7332TIP3    H243488   5.818   2.031   2.190 -1.6244 -0.6146  0.3186
 7333TIP3   OH243489   3.297   4.439   0.542  0.1761  0.2208 -0.6723
 7333TIP3    H143490   3.224   4.389   0.578  1.6602  0.0944  2.3688
 7333TIP3    H243491   3.263   4.528   0.532 -0.8760 -0.1976 -0.8855
 7334TIP3   OH243492   1.308   5.956  11.756 -0.3649 -0.1206 -0.1878
 7334TIP3    H143493   1.366   5.923  11.686 -1.0979 -1.2342 -0.2798
 7334TIP3    H243494   1.226   5.908  11.744 -1.3561  1.5025 -0.1082
 7335TIP3   OH243495   2.824   3.786   5.305  0.0391 -0.3881 -0.3290
 7335TIP3    H143496   2.865   3.838   5.374 -0.4377 -3.1782  2.1553
 7335TIP3    H243497   2.895   3.734   5.268  0.0954  0.3304 -1.2574
 7336TIP3   OH243498   4.348   6.690   1.554 -0.4392  0.4384  0.0081
 7336TIP3    H143499   4.270   6.727   1.513  0.2303  0.9199 -0.8513
 7336TIP3    H243500   4.414   6.692   1.485  0.4420  0.3983  0.8412
 7337TIP3   OH243501   1.028   1.541  12.606  0.2591 -0.0068 -0.9094
 7337TIP3    H143502   1.045   1.549  12.700  1.1959 -2.1376 -0.8638
 7337TIP3    H243503   1.017   1.631  12.576  1.3350  0.7924  0.9970
 7338TIP3   OH243504   2.054   6.494  11.893 -0.0836  0.2519  0.8568
 7338TIP3    H143505   2.020   6.410  11.926 -0.0605  0.2999  1.0042
 7338TIP3    H243506   2.149   6.486  11.901 -0.1679  1.6615  4.3006
 7339TIP3   OH243507   0.405   6.457  16.816 -0.3469 -0.1421 -0.1028
 7339TIP3    H143508   0.495   6.472  16.788 -0.1489  2.6023  1.8559
 7339TIP3    H243509   0.401   6.362  16.832  2.3167 -0.2332  0.3178
 7340TIP3   OH243510   1.875   3.871   3.821 -0.0328 -0.0636  0.0066
 7340TIP3    H143511   1.835   3.862   3.734 -2.3707  1.3517  0.8825
 7340TIP3    H243512   1.803   3.854   3.882  1.1003  0.9196  1.6476
 7341TIP3   OH243513   1.769   1.518   1.131 -0.0272 -0.1007  0.4830
 7341TIP3    H143514   1.740   1.601   1.168 -1.4610 -0.3677 -0.0388
 7341TIP3    H243515   1.801   1.541   1.044  2.7276  0.4203  1.5715
 7342TIP3   OH243516   2.518   5.470  14.129 -0.1324  0.4895  0.4072
 7342TIP3    H143517   2.510   5.527  14.053  3.3751  0.8736  0.2398
 7342TIP3    H243518   2.473   5.390  14.104  0.8425  0.6695 -2.0443
 7343TIP3   OH243519   2.313   2.015  15.033  0.2321  0.3756  0.0305
 7343TIP3    H143520   2.347   1.925  15.038  0.9548  0.5521 -1.3190
 7343TIP3    H243521   2.225   2.006  14.996 -0.5789  0.0587  1.9596
 7344TIP3   OH243522   3.362   5.015  15.968 -0.3610 -0.0762 -0.2783
 7344TIP3    H143523   3.304   5.013  15.892  1.9774 -2.1446 -2.1221
 7344TIP3    H243524   3.348   4.930  16.010 -1.0785  0.7566  1.2326
 7345TIP3   OH243525   3.341   5.978  11.643  0.5395 -0.1947  0.3817
 7345TIP3    H143526   3.383   5.905  11.690  0.1053 -0.8201 -0.1858
 7345TIP3    H243527   3.248   5.955  11.642  0.1411  1.2675  1.7726
 7346TIP3   OH243528   3.887   3.948   5.333 -0.2045 -1.1623 -0.2960
 7346TIP3    H143529   3.887   3.913   5.422 -0.5448 -2.7806 -0.9163
 7346TIP3    H243530   3.929   4.034   5.341  1.4617 -2.0880  1.1020
 7347TIP3   OH243531   3.897   0.479   1.088  0.3447 -0.0624 -0.0943
 7347TIP3    H143532   3.987   0.474   1.121  0.7517 -0.1474 -1.2113
 7347TIP3    H243533   3.894   0.415   1.017 -0.0144  1.4231 -1.4446
 7348TIP3   OH243534   0.621   4.624  15.478  0.0134 -0.3250  0.6726
 7348TIP3    H143535   0.562   4.603  15.405 -1.1158 -1.2361  1.8273
 7348TIP3    H243536   0.640   4.539  15.518  0.8600  0.1429  1.2725
 7349TIP3   OH243537   3.423   0.640  16.690  0.2883  0.0782  0.4346
 7349TIP3    H143538   3.365   0.570  16.659  1.7444  0.3183 -3.1123
 7349TIP3    H243539   3.489   0.595  16.742  1.2411 -1.2905 -1.8706
 7350TIP3   OH243540   5.475   5.934   6.197 -0.5468 -0.3273 -0.5036
 7350TIP3    H143541   5.418   5.863   6.167  0.6875 -1.1240 -1.0288
 7350TIP3    H243542   5.476   5.926   6.292 -0.6171 -0.8529 -0.5473
 7351TIP3   OH243543   3.474   6.326  16.655  0.2083 -0.1534 -0.2185
 7351TIP3    H143544   3.408   6.262  16.628 -0.1322 -0.8217  2.1281
 7351TIP3    H243545   3.549   6.273  16.682  1.3200  0.5771 -1.7643
 7352TIP3   OH243546   1.198   0.290   0.904 -0.4836  0.2789  0.0416
 7352TIP3    H143547   1.226   0.281   0.813  0.5787 -0.7733  0.4684
 7352TIP3    H243548   1.162   0.204   0.927 -1.9086  0.9119  0.2333
 7353TIP3   OH243549   6.817   1.222   4.525  0.5339 -0.5983 -0.0931
 7353TIP3    H143550   6.887   1.268   4.479 -0.7946 -0.5721 -2.1685
 7353TIP3    H243551   6.777   1.167   4.458 -0.1390 -2.1349  1.5443
 7354TIP3   OH243552   0.336   0.676  12.614 -0.0173 -0.0011  0.2158
 7354TIP3    H143553   0.403   0.696  12.679  0.6865 -0.5369 -0.3406
 7354TIP3    H243554   0.286   0.757  12.606  1.1573  0.7146 -0.0596
 7355TIP3   OH243555   2.106   6.724  13.075 -0.2945 -0.1166 -0.6584
 7355TIP3    H143556   2.100   6.630  13.058 -0.3393 -0.5196  1.4315
 7355TIP3    H243557   2.018   6.757  13.056 -0.5469 -0.6653 -0.4509
 7356TIP3   OH243558   5.137   3.920   3.744 -0.2827  0.1562  0.3283
 7356TIP3    H143559   5.062   3.921   3.803  0.9664  0.6021  1.9482
 7356TIP3    H243560   5.099   3.905   3.657 -2.3662  1.7839  0.9115
 7357TIP3   OH243561   2.412   4.006   4.451  0.2483 -0.5128  0.0045
 7357TIP3    H143562   2.322   4.017   4.483  0.8219  1.0190  1.1555
 7357TIP3    H243563   2.465   4.005   4.531  1.6223  2.4265 -0.8178
 7358TIP3   OH243564   0.965   3.208   4.520  0.4952  0.0283  0.6242
 7358TIP3    H143565   0.918   3.215   4.437  0.6864  0.1136  0.5237
 7358TIP3    H243566   1.024   3.283   4.521  2.5266 -1.5199 -0.4188
 7359TIP3   OH243567   2.102   5.661  17.201  0.3929 -0.2657 -0.0674
 7359TIP3    H143568   2.029   5.605  17.227  0.2015 -0.3387 -0.7441
 7359TIP3    H243569   2.181   5.612  17.227  0.2118  0.9119  2.9624
 7360TIP3   OH243570   0.957   2.859   4.278 -0.3948  0.0004 -0.4451
 7360TIP3    H143571   0.995   2.931   4.229 -1.4073  1.8459  1.4265
 7360TIP3    H243572   1.001   2.862   4.363 -0.9818 -1.1311 -0.0955
 7361TIP3   OH243573   2.145   5.336  14.305  0.0624 -0.3973 -0.1414
 7361TIP3    H143574   2.169   5.265  14.365  0.8513 -0.6934 -0.8097
 7361TIP3    H243575   2.173   5.415  14.350 -1.0729 -0.4709  0.7350
 7362TIP3   OH243576   0.815   5.471  12.507 -0.2197 -0.5965  0.0175
 7362TIP3    H143577   0.768   5.554  12.508  1.0702  0.1501 -0.2685
 7362TIP3    H243578   0.771   5.417  12.572 -0.3638  0.7016  1.0125
 7363TIP3   OH243579   6.787   3.869  13.132 -0.1852 -0.1763 -0.3783
 7363TIP3    H143580   6.756   3.788  13.174 -0.3178 -0.0941 -0.3178
 7363TIP3    H243581   6.856   3.901  13.190 -0.2338 -0.1665 -0.3259
 7364TIP3   OH243582   4.172   2.101   3.189  0.3437 -0.6388  0.1070
 7364TIP3    H143583   4.164   2.023   3.134 -0.9581 -0.2486 -0.2679
 7364TIP3    H243584   4.136   2.075   3.274 -0.6239 -0.2876 -0.1873
 7365TIP3   OH243585   6.574   3.334  15.627 -0.4042 -0.1872 -0.1520
 7365TIP3    H143586   6.639   3.334  15.697 -0.0082 -0.4237 -0.5209
 7365TIP3    H243587   6.542   3.244  15.624  1.0541 -0.6815 -1.6419
 7366TIP3   OH243588   2.435   2.161  13.446  0.0112  0.1365 -0.1635
 7366TIP3    H143589   2.518   2.135  13.486 -0.4681  2.1603  2.2010
 7366TIP3    H243590   2.427   2.254  13.465 -3.2415 -0.2079  0.4091
 7367TIP3   OH243591   0.790   1.394  16.724  0.8190  0.2522 -0.1057
 7367TIP3    H143592   0.758   1.468  16.774  1.6457 -0.8614  2.1569
 7367TIP3    H243593   0.711   1.350  16.693  0.3116  1.4637 -0.5573
 7368TIP3   OH243594   2.975   5.304  15.271  0.3770 -0.3668  0.1618
 7368TIP3    H143595   3.013   5.376  15.221 -0.3020  0.5920  1.0173
 7368TIP3    H243596   2.911   5.345  15.330 -0.0827 -1.6636  0.6043
 7369TIP3   OH243597   1.987   2.848   3.654 -0.4398  0.2514  0.0198
 7369TIP3    H143598   2.065   2.899   3.632 -1.3783  1.8696  0.3017
 7369TIP3    H243599   2.020   2.763   3.680  0.9807 -0.5550 -3.9791
 7370TIP3   OH243600   5.178   3.148  15.340 -0.3810  0.7738  0.3348
 7370TIP3    H143601   5.098   3.193  15.369 -0.7576  0.7880 -0.7063
 7370TIP3    H243602   5.227   3.214  15.292 -1.1088  0.0042 -1.5139
 7371TIP3   OH243603   3.900   5.320  15.930  0.0317 -0.2438 -0.3046
 7371TIP3    H143604   3.955   5.337  15.853  0.2563 -0.2952 -0.1545
 7371TIP3    H243605   3.827   5.382  15.922 -0.3440 -0.7657 -0.9647
 7372TIP3   OH243606   6.122   4.453  13.059 -0.0336 -0.4013  0.4549
 7372TIP3    H143607   6.027   4.444  13.056  0.0436 -0.8756 -1.2122
 7372TIP3    H243608   6.154   4.380  13.006  1.3075 -0.9715  2.0008
 7373TIP3   OH243609   0.843   2.023  14.689 -0.1101 -0.1605  0.2134
 7373TIP3    H143610   0.778   2.063  14.746  1.7099 -1.7880  3.6014
 7373TIP3    H243611   0.926   2.065  14.715  0.8687 -1.5146 -0.6714
 7374TIP3   OH243612   3.094   0.275   0.141  0.2303  0.2184  0.1414
 7374TIP3    H143613   3.182   0.240   0.153 -0.1966 -1.0791 -0.4562
 7374TIP3    H243614   3.041   0.200   0.113 -0.1874  1.7457 -3.4839
 7375TIP3   OH243615   3.254   3.044  14.104 -0.7485  0.1484 -0.2479
 7375TIP3    H143616   3.251   3.008  14.015 -0.4942  0.7425 -0.4980
 7375TIP3    H243617   3.227   3.135  14.094 -1.2361  0.0680  0.3623
 7376TIP3   OH243618   6.043   3.140  16.767  0.7615  0.0063  0.0981
 7376TIP3    H143619   6.123   3.160  16.719  1.0567  1.5648  1.2104
 7376TIP3    H243620   5.974   3.140  16.701  1.6433 -1.2575 -0.8561
 7377TIP3   OH243621   2.989   5.369  14.524 -0.6195 -0.0532  0.2125
 7377TIP3    H143622   2.936   5.448  14.536 -1.4095 -0.6031  0.4339
 7377TIP3    H243623   2.929   5.307  14.482  0.1107 -0.4024 -0.3133
 7378TIP3   OH243624   6.425   6.287   0.359 -0.0024  0.1020 -0.1962
 7378TIP3    H143625   6.451   6.205   0.317  0.6700 -0.2666  0.9199
 7378TIP3    H243626   6.334   6.272   0.387  0.3971 -0.5700  0.7578
 7379TIP3   OH243627   3.055   3.124  16.842 -0.1067  0.1425 -0.1324
 7379TIP3    H143628   2.976   3.109  16.792  0.4487 -1.2854 -0.6253
 7379TIP3    H243629   3.125   3.130  16.777  0.6325 -1.8040  0.4330
 7380TIP3   OH243630   1.362   5.118  14.025 -0.3407 -0.0412 -0.2608
 7380TIP3    H143631   1.312   5.112  14.107 -2.8891  0.8138 -1.7059
 7380TIP3    H243632   1.396   5.207  14.025 -2.0379  0.6198 -1.0679
 7381TIP3   OH243633   3.732   6.597  11.012 -0.0541  0.1309 -0.0162
 7381TIP3    H143634   3.698   6.510  10.992  2.0604 -0.7233  0.0843
 7381TIP3    H243635   3.744   6.638  10.926  0.6257 -0.3222 -0.1388
 7382TIP3   OH243636   1.436   3.369   4.176  0.0718 -0.2685 -0.8520
 7382TIP3    H143637   1.431   3.441   4.113  0.0212  1.5950  1.2039
 7382TIP3    H243638   1.350   3.328   4.173 -0.6531  1.1869 -0.4509
 7383TIP3   OH243639   4.232   6.460   3.069  0.4269 -0.2298 -0.4584
 7383TIP3    H143640   4.320   6.475   3.103 -0.2762 -0.9915  1.7610
 7383TIP3    H243641   4.216   6.367   3.085 -0.0854 -0.5327 -2.5727
 7384TIP3   OH243642   2.456   2.108   4.272 -0.6828 -0.0795  0.5890
 7384TIP3    H143643   2.426   2.193   4.302  0.8180  0.3116  1.0209
 7384TIP3    H243644   2.530   2.087   4.328  0.2135 -0.7557 -0.8188
 7385TIP3   OH243645   4.100   5.978  11.753 -0.1268  0.2526  0.6647
 7385TIP3    H143646   4.060   5.962  11.838  0.5612 -0.0324  0.9420
 7385TIP3    H243647   4.190   5.948  11.763 -0.2420 -0.4649 -0.3896
 7386TIP3   OH243648   1.313   5.563   3.469  0.5933 -0.7128  0.0893
 7386TIP3    H143649   1.293   5.625   3.540 -1.9654  0.0845 -1.2749
 7386TIP3    H243650   1.289   5.478   3.505  0.9975 -0.5321  0.8059
 7387TIP3   OH243651   2.260   2.809   4.161  0.1961 -0.2396  1.1305
 7387TIP3    H143652   2.257   2.714   4.152 -1.5457  0.0755 -2.3988
 7387TIP3    H243653   2.170   2.835   4.177  0.6291  0.8867  1.8405
 7388TIP3   OH243654   5.763   5.694  13.035 -0.4401  0.3284  0.1654
 7388TIP3    H143655   5.772   5.668  12.943 -0.0681 -1.3114  0.6494
 7388TIP3    H243656   5.680   5.656  13.063 -0.3143  0.4074  0.6564
 7389TIP3   OH243657   0.885   2.862   0.615 -0.2713  0.3622 -0.3195
 7389TIP3    H143658   0.809   2.890   0.565 -1.0960 -2.6220 -0.8548
 7389TIP3    H243659   0.888   2.767   0.603  3.1686  0.3260  0.2162
 7390TIP3   OH243660   6.749   5.571  13.878  0.3676  0.1597  0.2650
 7390TIP3    H143661   6.745   5.662  13.908  1.2797  0.1672  0.3742
 7390TIP3    H243662   6.830   5.566  13.828 -0.1884 -0.3420 -0.5938
 7391TIP3   OH243663   2.404   1.524  14.706 -0.1130  0.2327  0.2079
 7391TIP3    H143664   2.495   1.554  14.711 -0.7340  2.3203 -0.5283
 7391TIP3    H243665   2.411   1.430  14.686  1.8754 -0.0185  1.8966
 7392TIP3   OH243666   5.081   2.451   1.210  0.0151 -0.2200  0.7919
 7392TIP3    H143667   5.020   2.524   1.198  0.3462 -0.2236 -1.0774
 7392TIP3    H243668   5.075   2.430   1.303 -3.8291 -1.1166  0.4131
 7393TIP3   OH243669   5.321   6.487  12.121  0.7480  0.7874  0.6130
 7393TIP3    H143670   5.401   6.474  12.070 -0.9332 -1.5377 -1.5360
 7393TIP3    H243671   5.254   6.505  12.055 -0.9914  0.2752  2.2102
 7394TIP3   OH243672   4.833   3.695   2.977  0.3671 -0.2844  0.1447
 7394TIP3    H143673   4.764   3.674   2.913 -0.6847  1.4979  0.6354
 7394TIP3    H243674   4.834   3.621   3.037 -0.2593 -0.9129 -0.6166
 7395TIP3   OH243675   5.593   1.780  10.572 -0.4132  0.2191 -0.2417
 7395TIP3    H143676   5.640   1.805  10.652 -0.8109  0.4912 -0.0943
 7395TIP3    H243677   5.547   1.859  10.545  0.9082  0.5767 -1.5801
 7396TIP3   OH243678   5.061   5.142   2.982  0.3252  0.1570  0.1954
 7396TIP3    H143679   4.984   5.172   2.934  0.5560  0.8404  0.2484
 7396TIP3    H243680   5.077   5.054   2.949 -0.5321 -0.0278  0.2493
 7397TIP3   OH243681   3.062   6.151  16.856  0.5497 -0.4777 -0.1670
 7397TIP3    H143682   3.119   6.222  16.825  0.8287 -0.8275 -0.4494
 7397TIP3    H243683   3.057   6.091  16.782  0.7684 -1.0408  0.2753
 7398TIP3   OH243684   5.771   1.526  15.265 -0.1626  0.1765  0.3914
 7398TIP3    H143685   5.811   1.555  15.346 -0.8187 -0.4086  0.9330
 7398TIP3    H243686   5.678   1.518  15.285 -0.4735  0.9148 -0.6716
 7399TIP3   OH243687   0.935   3.190   4.785 -0.6264 -0.4505  0.2279
 7399TIP3    H143688   0.961   3.282   4.780  1.0178 -0.9228 -0.1270
 7399TIP3    H243689   0.958   3.155   4.699 -1.5817 -1.1165  0.2389
 7400TIP3   OH243690   0.464   2.720  13.479  0.1057  0.0867  0.4788
 7400TIP3    H143691   0.449   2.773  13.558  0.0723 -0.8551  1.1147
 7400TIP3    H243692   0.377   2.696  13.449  0.0924  1.0153 -0.2500
 7401TIP3   OH243693   0.714   4.308  11.481 -0.7834 -0.2921  0.0322
 7401TIP3    H143694   0.663   4.319  11.401 -0.8390  1.6478  0.3111
 7401TIP3    H243695   0.776   4.381  11.480  1.0573 -1.8329  0.3918
 7402TIP3   OH243696   2.996   4.492  13.964  0.2622 -0.4112 -0.0020
 7402TIP3    H143697   2.956   4.516  13.881  1.4551  0.3111 -0.3840
 7402TIP3    H243698   2.923   4.473  14.023 -0.5845 -0.9753 -1.2323
 7403TIP3   OH243699   4.434   1.230   3.385 -0.6857  0.9858 -0.2369
 7403TIP3    H143700   4.443   1.139   3.412  0.6135  1.0074 -0.5585
 7403TIP3    H243701   4.394   1.274   3.460  1.4473  0.7441  1.0962
 7404TIP3   OH243702   5.822   4.103  12.637  0.4926  0.0255  0.8378
 7404TIP3    H143703   5.908   4.144  12.645 -0.2071  1.5271  0.9550
 7404TIP3    H243704   5.803   4.070  12.724  0.0760  1.5309  1.3332
 7405TIP3   OH243705   0.671   0.279   2.102 -0.7164 -0.1969 -0.0149
 7405TIP3    H143706   0.736   0.347   2.085 -0.8878  0.3267  1.3523
 7405TIP3    H243707   0.694   0.245   2.189 -3.8430  1.8281  1.7157
 7406TIP3   OH243708   1.824   3.943  11.371  0.0076  0.0410  0.5412
 7406TIP3    H143709   1.840   3.923  11.464 -0.1796 -0.3268  0.4938
 7406TIP3    H243710   1.762   3.876  11.343 -1.0659  1.0267  0.5331
 7407TIP3   OH243711   3.451   0.714   5.526 -0.2365 -0.0552 -0.3128
 7407TIP3    H143712   3.534   0.760   5.522 -0.9714  1.1359 -2.6370
 7407TIP3    H243713   3.470   0.627   5.490  0.0413  0.1557 -0.6790
 7408TIP3   OH243714   3.856   4.582   4.964 -0.3718 -0.2930  0.1987
 7408TIP3    H143715   3.829   4.620   4.880 -0.3486  1.0174  0.7821
 7408TIP3    H243716   3.929   4.524   4.942 -0.8500 -0.5287 -0.7868
 7409TIP3   OH243717   4.482   1.785   1.766 -0.6161 -0.8256  0.5649
 7409TIP3    H143718   4.472   1.837   1.686  3.2400  0.3854  0.7318
 7409TIP3    H243719   4.467   1.695   1.738 -1.1501 -0.2427 -1.1328
 7410TIP3   OH243720   1.449   6.543   3.475 -0.3849 -0.4771  0.2535
 7410TIP3    H143721   1.512   6.545   3.403  0.3679  0.7119  0.9180
 7410TIP3    H243722   1.400   6.462   3.462 -0.2473 -0.2915 -1.5788
 7411TIP3   OH243723   1.027   2.282  15.039  0.3627 -0.2999  0.4100
 7411TIP3    H143724   1.059   2.289  15.129 -0.0144  1.1802  0.4499
 7411TIP3    H243725   0.936   2.313  15.043  0.1455 -0.8234 -0.3643
 7412TIP3   OH243726   3.723   3.957   0.344  0.3724  0.8918  0.9689
 7412TIP3    H143727   3.629   3.941   0.359  0.4125 -1.5719 -1.1312
 7412TIP3    H243728   3.744   4.030   0.402 -2.5516  0.6152  2.4771
 7413TIP3   OH243729   5.683   5.892  13.441  0.2402 -0.3851  0.1409
 7413TIP3    H143730   5.688   5.796  13.441  1.0456 -0.3510 -0.5152
 7413TIP3    H243731   5.756   5.919  13.498  0.1905 -0.1571  0.0954
 7414TIP3   OH243732   5.866   0.462   5.790 -0.2568 -0.4498  0.3899
 7414TIP3    H143733   5.798   0.529   5.797 -0.0510 -0.3541  1.5943
 7414TIP3    H243734   5.870   0.423   5.877  1.4401 -0.2422  0.4238
 7415TIP3   OH243735   5.658   1.787  11.852  0.3923 -0.2396 -0.0042
 7415TIP3    H143736   5.623   1.867  11.812  0.7756  0.4326  0.9770
 7415TIP3    H243737   5.620   1.786  11.940  0.1355 -1.3114 -0.1258
 7416TIP3   OH243738   1.001   3.345   5.184  0.2869 -0.2246 -0.6759
 7416TIP3    H143739   1.076   3.321   5.238 -0.6261 -2.7096 -0.4442
 7416TIP3    H243740   0.927   3.348   5.245 -0.1497  0.2856 -1.2151
 7417TIP3   OH243741   4.305   6.631  13.737  0.2454 -0.3970 -0.1062
 7417TIP3    H143742   4.260   6.628  13.822  2.7464  4.2492  1.6343
 7417TIP3    H243743   4.243   6.673  13.678 -0.3352 -0.6141  0.3523
 7418TIP3   OH243744   0.589   5.560   2.739  0.5391  0.2903 -0.2991
 7418TIP3    H143745   0.527   5.488   2.728  0.3307  0.2101  1.2301
 7418TIP3    H243746   0.536   5.639   2.728  0.3937  0.2151 -0.1466
 7419TIP3   OH243747   0.512   5.937  11.600  1.3200 -0.5417  0.0891
 7419TIP3    H143748   0.469   5.852  11.600  2.1043 -0.9409  0.9261
 7419TIP3    H243749   0.468   5.986  11.530 -0.6918 -0.8177  1.1393
 7420TIP3   OH243750   4.703   1.028  16.774 -0.4449 -0.2355  0.2082
 7420TIP3    H143751   4.704   1.082  16.852  4.4090 -0.7054  0.5949
 7420TIP3    H243752   4.742   1.082  16.706 -1.8099 -0.9202 -1.1818
 7421TIP3   OH243753   3.846   3.915  16.415 -0.8394  0.2252 -0.4590
 7421TIP3    H143754   3.899   3.863  16.354 -1.2559 -1.5363  0.6638
 7421TIP3    H243755   3.755   3.894  16.392 -0.9977 -1.1151  1.3022
 7422TIP3   OH243756   4.135   3.889  14.539  0.6601  0.1951  0.1995
 7422TIP3    H143757   4.158   3.800  14.566  0.8948 -0.0317 -0.7163
 7422TIP3    H243758   4.206   3.915  14.479  0.1612  0.6795 -0.1935
 7423TIP3   OH243759   4.173   1.714   1.846  0.1072 -0.8742  0.0960
 7423TIP3    H143760   4.228   1.740   1.921  2.2544 -1.7462 -1.1320
 7423TIP3    H243761   4.105   1.781   1.842 -0.1018 -0.8687  2.8946
 7424TIP3   OH243762   5.692   1.492  12.272 -0.6416 -0.5656 -0.3197
 7424TIP3    H143763   5.603   1.466  12.295 -0.7632  0.3451  0.2952
 7424TIP3    H243764   5.749   1.437  12.326 -0.8841  0.2701  0.7929
 7425TIP3   OH243765   6.293   3.310   2.467  0.2713  0.2717  0.0657
 7425TIP3    H143766   6.220   3.254   2.493 -0.8435  1.4392 -0.4701
 7425TIP3    H243767   6.338   3.261   2.398 -0.5774 -0.0459 -0.2685
 7426TIP3   OH243768   5.563   0.459  12.358 -0.0140  0.0033  0.2831
 7426TIP3    H143769   5.533   0.427  12.444  1.0923  0.5311  0.8708
 7426TIP3    H243770   5.498   0.524  12.333 -2.0933 -2.4107 -0.7532
 7427TIP3   OH243771   6.220   0.268   4.921  0.2182  0.1498  0.8090
 7427TIP3    H143772   6.157   0.196   4.912 -0.6775  0.9850  0.3268
 7427TIP3    H243773   6.306   0.226   4.914 -0.2584 -1.0998  2.1446
 7428TIP3   OH243774   2.056   3.393   5.346  0.7275 -0.6789 -0.0713
 7428TIP3    H143775   2.127   3.329   5.347  0.0484 -1.4508 -0.6071
 7428TIP3    H243776   1.977   3.340   5.340  0.0061  0.1177  2.2388
 7429TIP3   OH243777   4.749   4.458   6.320 -0.6951  0.5152 -0.3538
 7429TIP3    H143778   4.670   4.432   6.368  0.6133 -1.0077  1.0638
 7429TIP3    H243779   4.799   4.509   6.384  0.2039  0.0769 -0.7055
 7430TIP3   OH243780   3.427   2.233   5.036  0.5115 -0.0148  0.6866
 7430TIP3    H143781   3.474   2.316   5.030  0.0286  0.1394 -1.1402
 7430TIP3    H243782   3.417   2.204   4.945 -1.6771 -0.7389  1.1434
 7431TIP3   OH243783   5.450   2.753  12.833 -0.3349 -0.5126 -0.4537
 7431TIP3    H143784   5.366   2.797  12.843 -0.0159  0.2391 -0.9978
 7431TIP3    H243785   5.494   2.766  12.917 -0.1543  0.4078 -0.6842
 7432TIP3   OH243786   2.461   2.600  15.192  0.2647 -0.2820  0.6588
 7432TIP3    H143787   2.403   2.561  15.257 -2.1458  0.3014 -1.0839
 7432TIP3    H243788   2.402   2.646  15.132  2.4657 -0.4772 -1.7127
 7433TIP3   OH243789   5.273   6.304  10.743 -0.1303 -0.3327 -0.2103
 7433TIP3    H143790   5.360   6.281  10.711 -0.1252 -0.5332 -0.0551
 7433TIP3    H243791   5.225   6.221  10.741 -0.1941 -0.3011  0.0958
 7434TIP3   OH243792   4.753   1.700  12.873 -0.3849  0.2663 -0.2721
 7434TIP3    H143793   4.800   1.618  12.854 -0.1908  0.3149  0.0057
 7434TIP3    H243794   4.821   1.760  12.902 -0.2624  1.0568 -2.1294
 7435TIP3   OH243795   4.304   0.364  16.101  0.0655 -0.5214 -0.2563
 7435TIP3    H143796   4.223   0.317  16.119  0.6540 -1.9147 -1.1342
 7435TIP3    H243797   4.372   0.313  16.146  0.4681  0.5649  0.3768
 7436TIP3   OH243798   0.734   3.327   6.714  0.5472 -0.3528 -0.3107
 7436TIP3    H143799   0.694   3.244   6.686 -1.7203  1.0394 -1.4286
 7436TIP3    H243800   0.823   3.324   6.680  0.8370 -2.7800  0.5944
 7437TIP3   OH243801   1.989   3.859  14.640  0.1439  0.3600 -0.5661
 7437TIP3    H143802   1.919   3.862  14.574  0.2003 -0.3329 -0.6623
 7437TIP3    H243803   1.975   3.937  14.693 -1.4596 -0.4035  0.1827
 7438TIP3   OH243804   2.569   0.695   0.563  0.1803  0.4651  0.6389
 7438TIP3    H143805   2.621   0.723   0.488  0.5214  2.1909  1.4968
 7438TIP3    H243806   2.534   0.776   0.599 -0.5292 -0.4153  1.9512
 7439TIP3   OH243807   6.282   1.002  15.799 -0.2784  0.7364 -0.1561
 7439TIP3    H143808   6.348   1.020  15.866 -0.8153 -0.8538  0.8334
 7439TIP3    H243809   6.317   0.929  15.749  0.2419  2.0846 -1.8210
 7440TIP3   OH243810   1.966   6.094   5.286  0.3753 -0.2605  0.5078
 7440TIP3    H143811   2.035   6.032   5.258 -0.9520 -1.7114  0.3829
 7440TIP3    H243812   1.888   6.040   5.294 -0.8051  1.4254  0.4566
 7441TIP3   OH243813   4.816   1.527   0.271  0.3077  0.1165 -0.0253
 7441TIP3    H143814   4.906   1.539   0.302  0.4049  0.3146 -0.3835
 7441TIP3    H243815   4.826   1.475   0.191  0.2310  1.5847 -1.0030
 7442TIP3   OH243816   5.929   2.601   5.435  0.1440 -0.1574  0.0993
 7442TIP3    H143817   6.016   2.565   5.453  0.2069  0.3587  0.8479
 7442TIP3    H243818   5.881   2.591   5.517 -0.6191 -0.7611 -0.4185
 7443TIP3   OH243819   2.922   6.194  13.658 -0.0638  0.2704 -0.2719
 7443TIP3    H143820   2.933   6.132  13.730 -1.8366 -0.9360 -0.9831
 7443TIP3    H243821   2.843   6.243  13.681  0.5532  1.3333 -0.3823
 7444TIP3   OH243822   5.651   3.233  17.278  0.0055 -0.2495  0.6489
 7444TIP3    H143823   5.721   3.230  17.212 -0.5073  0.6536  0.0457
 7444TIP3    H243824   5.629   3.326  17.285 -0.3733 -0.4062  1.6499
 7445TIP3   OH243825   0.827   1.506  12.232 -0.3317  0.1480 -0.0866
 7445TIP3    H143826   0.890   1.576  12.248 -0.7781  1.0296 -1.9746
 7445TIP3    H243827   0.823   1.499  12.136 -2.0250 -0.8567  0.0392
 7446TIP3   OH243828   1.695   3.980   2.639 -0.1948  0.1788 -0.2977
 7446TIP3    H143829   1.757   3.939   2.578 -0.5038  1.2192 -1.3485
 7446TIP3    H243830   1.718   3.946   2.725  2.2316  1.0162 -0.5939
 7447TIP3   OH243831   5.260   3.950   2.939 -0.2328  0.0645 -0.4509
 7447TIP3    H143832   5.233   3.859   2.929 -1.2220  0.0632  2.0757
 7447TIP3    H243833   5.191   4.001   2.896 -0.8890 -0.2765  0.1883
 7448TIP3   OH243834   6.250   4.629   0.252 -0.1190 -0.1190  0.3457
 7448TIP3    H143835   6.267   4.634   0.346  0.0556  0.8857  0.2692
 7448TIP3    H243836   6.221   4.717   0.228  0.0431 -0.3073 -0.5751
 7449TIP3   OH243837   1.711   0.695   4.189 -0.4669  0.1753 -0.0368
 7449TIP3    H143838   1.790   0.672   4.237 -0.0910 -1.2581 -1.3295
 7449TIP3    H243839   1.662   0.614   4.181 -1.6967  0.8903  0.0495
 7450TIP3   OH243840   1.240   3.660  12.989  0.0136 -0.0431 -0.1604
 7450TIP3    H143841   1.188   3.580  12.979 -0.6764  0.4261 -0.3682
 7450TIP3    H243842   1.307   3.653  12.921  1.6343 -1.7178  1.5303
 7451TIP3   OH243843   4.568   4.484  14.674  0.6292 -0.1047 -0.1162
 7451TIP3    H143844   4.503   4.498  14.604 -0.0628 -0.3657  0.4624
 7451TIP3    H243845   4.550   4.555  14.736 -0.5056 -1.4139  1.0752
 7452TIP3   OH243846   4.271   3.916  11.518 -0.2923  0.2018  0.0123
 7452TIP3    H143847   4.302   3.964  11.594  0.7309 -1.6074  0.7819
 7452TIP3    H243848   4.228   3.982  11.463  2.2478  2.2432  0.3671
 7453TIP3   OH243849   1.019   3.408  16.376 -0.0829  0.1444 -0.1239
 7453TIP3    H143850   0.982   3.333  16.422  0.8268 -0.7377 -0.8133
 7453TIP3    H243851   1.101   3.426  16.422  0.1267  0.1716 -0.5145
 7454TIP3   OH243852   5.896   3.865  13.898  0.0290 -0.5771  0.3708
 7454TIP3    H143853   5.841   3.806  13.845  0.5013 -0.6450 -0.0480
 7454TIP3    H243854   5.980   3.820  13.905 -0.0978 -0.6699  1.3750
 7455TIP3   OH243855   4.807   5.520  15.182  0.0275 -0.3205 -0.0311
 7455TIP3    H143856   4.767   5.565  15.107 -0.7693 -1.7495 -0.4870
 7455TIP3    H243857   4.881   5.576  15.206  0.1117  0.3391 -1.6928
 7456TIP3   OH243858   2.664   6.811   2.378  0.1171 -0.1854  0.2473
 7456TIP3    H143859   2.750   6.772   2.389  1.0959  2.2619  1.6547
 7456TIP3    H243860   2.609   6.769   2.444  0.6958 -0.4756  0.5373
 7457TIP3   OH243861   1.671   3.316   5.830 -0.1960  0.4481  0.2604
 7457TIP3    H143862   1.666   3.230   5.873 -1.4602  1.5709  2.4530
 7457TIP3    H243863   1.731   3.366   5.884  0.1516  1.1220 -0.7401
 7458TIP3   OH243864   0.932   2.438  11.669  0.5092 -0.6733  0.3876
 7458TIP3    H143865   0.949   2.485  11.588  0.0819  2.1654  1.8806
 7458TIP3    H243866   0.842   2.462  11.693  0.4650 -1.8293  1.4559
 7459TIP3   OH243867   5.311   2.947   2.355  0.1290 -0.2868  0.4810
 7459TIP3    H143868   5.326   3.026   2.405  0.7619  0.7784 -1.3441
 7459TIP3    H243869   5.222   2.919   2.380 -0.4114  1.4464  0.5337
 7460TIP3   OH243870   1.247   2.309   1.425 -0.1637  0.2521 -0.7249
 7460TIP3    H143871   1.293   2.382   1.466  0.6679 -0.3286 -0.6046
 7460TIP3    H243872   1.284   2.231   1.467 -1.0709 -0.2334 -0.8244
 7461TIP3   OH243873   2.050   1.183  10.810 -0.5018  0.8201 -0.0302
 7461TIP3    H143874   1.977   1.158  10.867  0.5354 -1.8832  0.1782
 7461TIP3    H243875   2.125   1.192  10.869  0.0160  0.4529 -0.6246
 7462TIP3   OH243876   0.285   4.880  13.973 -0.2335 -0.1779 -0.0171
 7462TIP3    H143877   0.240   4.944  13.918  1.1487  1.5545  0.7986
 7462TIP3    H243878   0.287   4.921  14.060  3.0890 -0.0698 -0.0825
 7463TIP3   OH243879   4.014   5.768   3.953  0.1163  0.5862 -0.1600
 7463TIP3    H143880   3.927   5.750   3.988 -0.9385  3.0034 -1.4594
 7463TIP3    H243881   4.069   5.778   4.031 -1.0864  0.5962  0.7028
 7464TIP3   OH243882   3.639   6.792   1.700  0.7995  0.2174 -0.1605
 7464TIP3    H143883   3.562   6.797   1.757  0.8461  0.2977 -0.1047
 7464TIP3    H243884   3.707   6.840   1.747  1.3114 -1.1303  0.4732
 7465TIP3   OH243885   5.882   2.724   1.206  0.2617 -0.9448 -0.3568
 7465TIP3    H143886   5.820   2.673   1.260 -0.6621 -0.9633 -1.4267
 7465TIP3    H243887   5.924   2.659   1.151 -0.7498 -0.5898 -1.5614
 7466TIP3   OH243888   2.718   5.922   1.385 -0.3408  0.8056 -0.0681
 7466TIP3    H143889   2.723   5.945   1.292  1.4827  1.4953  0.1853
 7466TIP3    H243890   2.767   5.991   1.429 -0.5917  0.0870  1.3601
 7467TIP3   OH243891   2.484   5.000   4.129 -0.1239 -0.1380  0.3102
 7467TIP3    H143892   2.429   5.056   4.184 -0.1798  0.1184  0.0005
 7467TIP3    H243893   2.565   5.049   4.119 -0.6788  0.5454 -1.1014
 7468TIP3   OH243894   4.820   0.929   6.514 -0.3458 -0.0392 -0.2668
 7468TIP3    H143895   4.847   0.983   6.440  0.4164 -0.8084 -0.5555
 7468TIP3    H243896   4.725   0.931   6.512 -0.3663 -1.2859 -2.1869
 7469TIP3   OH243897   0.953   5.033   5.984  0.2197  0.1596  0.3437
 7469TIP3    H143898   1.024   5.082   6.025  1.9325 -0.9651 -1.2239
 7469TIP3    H243899   0.874   5.085   6.003  1.4869  1.5812  1.8353
 7470TIP3   OH243900   4.597   3.886  11.468  0.4618  0.0130  0.3023
 7470TIP3    H143901   4.562   3.824  11.532  0.4035  0.3314  0.5816
 7470TIP3    H243902   4.520   3.918  11.421  0.5789 -0.8119 -0.4706
 7471TIP3   OH243903   3.155   2.532  14.251  0.2050  0.2104  0.0870
 7471TIP3    H143904   3.087   2.508  14.314 -0.6013 -0.0957 -0.8879
 7471TIP3    H243905   3.218   2.460  14.254  0.0012  0.0428  0.3187
 7472TIP3   OH243906   6.123   1.976   1.804 -0.4954 -0.5063 -0.6484
 7472TIP3    H143907   6.074   2.021   1.736 -0.0831  0.8479 -0.0660
 7472TIP3    H243908   6.174   2.045   1.847  0.1069 -1.5150  0.2916
 7473TIP3   OH243909   1.197   5.157   0.062 -0.4141  0.1894  0.5827
 7473TIP3    H143910   1.123   5.106   0.095  0.0470 -1.0121 -0.2177
 7473TIP3    H243911   1.257   5.162   0.136 -1.1547  0.9350  1.1516
 7474TIP3   OH243912   4.223   2.167   2.548 -0.0411  0.3326  0.2009
 7474TIP3    H143913   4.269   2.084   2.535  1.8346  1.5816 -1.5946
 7474TIP3    H243914   4.266   2.227   2.487 -2.0586  2.3567  0.7187
 7475TIP3   OH243915   6.379   6.632   1.140 -0.1490 -0.3293  0.4119
 7475TIP3    H143916   6.333   6.598   1.216 -1.0198  0.0763  0.0734
 7475TIP3    H243917   6.356   6.573   1.069  0.3364 -0.4732  0.3757
 7476TIP3   OH243918   5.716   5.656  14.087  0.0105 -0.0839  0.4006
 7476TIP3    H143919   5.776   5.726  14.064 -1.4618  1.3161  0.7834
 7476TIP3    H243920   5.669   5.636  14.006 -1.8765  1.6399  1.0411
 7477TIP3   OH243921   5.110   6.256  15.879 -0.1877  0.6134 -0.4507
 7477TIP3    H143922   5.022   6.221  15.871  1.3395 -2.6596 -5.7004
 7477TIP3    H243923   5.154   6.200  15.943  0.1804 -2.7544 -3.5338
 7478TIP3   OH243924   2.185   6.699  16.029 -0.2085  0.5634  0.3736
 7478TIP3    H143925   2.205   6.662  15.943  0.7948  0.7574  0.5209
 7478TIP3    H243926   2.090   6.704  16.031 -0.3403 -1.4114  0.0940
 7479TIP3   OH243927   0.755   0.455  15.663 -0.0111 -0.3370  0.5934
 7479TIP3    H143928   0.785   0.449  15.572  1.4425 -0.6746  1.0793
 7479TIP3    H243929   0.661   0.467  15.656  0.1632  0.3306 -0.9858
 7480TIP3   OH243930   0.305   0.070  16.244  0.2799 -0.6577 -0.4227
 7480TIP3    H143931   0.374   0.121  16.286 -0.0389 -0.0343 -0.6451
 7480TIP3    H243932   0.343   0.042  16.160 -0.8357  2.4529 -2.0268
 7481TIP3   OH243933   6.341   1.471  17.161 -0.0586  0.1627  0.5781
 7481TIP3    H143934   6.386   1.447  17.242 -1.2517 -0.7848  0.9676
 7481TIP3    H243935   6.397   1.538  17.121  1.8263 -1.1679  0.9247
 7482TIP3   OH243936   5.465   6.779  12.391  0.5048  0.5722 -0.0631
 7482TIP3    H143937   5.386   6.729  12.411  1.7305 -0.8181  1.3912
 7482TIP3    H243938   5.503   6.735  12.315  1.8731 -1.0957  1.5461
 7483TIP3   OH243939   6.295   1.435   2.665 -0.2353  0.6184 -0.4517
 7483TIP3    H143940   6.277   1.524   2.692 -0.6776  0.8816 -1.5569
 7483TIP3    H243941   6.330   1.443   2.576  1.4420 -0.1821  0.1097
 7484TIP3   OH243942   3.611   6.057  13.546 -0.0838  0.1525 -0.5293
 7484TIP3    H143943   3.590   6.028  13.458 -0.9178 -0.5827 -0.0932
 7484TIP3    H243944   3.553   6.131  13.562 -0.8774 -0.5626 -0.0984
 7485TIP3   OH243945   4.172   3.328   2.967  0.0161 -0.4422  0.4055
 7485TIP3    H143946   4.096   3.325   3.024  1.2476 -0.8805  2.0866
 7485TIP3    H243947   4.244   3.354   3.025  1.4242 -1.5311 -0.8150
 7486TIP3   OH243948   0.495   6.183  12.065 -0.2273 -0.3220 -0.0919
 7486TIP3    H143949   0.477   6.244  11.994  0.0621  0.0842  0.1875
 7486TIP3    H243950   0.517   6.101  12.021 -1.7001 -0.5408 -0.4632
 7487TIP3   OH243951   0.180   5.354  17.205  0.0227  0.0792  0.1773
 7487TIP3    H143952   0.175   5.329  17.297 -0.6889 -0.6579 -0.0612
 7487TIP3    H243953   0.089   5.363  17.177  0.2378  0.2364 -0.4724
 7488TIP3   OH243954   3.210   6.176   0.673  0.0022 -0.4936 -0.5166
 7488TIP3    H143955   3.206   6.260   0.628 -0.3765 -0.9568 -1.3691
 7488TIP3    H243956   3.303   6.151   0.669 -0.1905 -1.0357 -2.0162
 7489TIP3   OH243957   1.956   4.459   0.011  0.0592 -0.1823  0.4698
 7489TIP3    H143958   1.900   4.496   0.080 -0.0428  1.6963 -0.6031
 7489TIP3    H243959   1.910   4.379  -0.016  0.0889 -0.9467  2.5483
 7490TIP3   OH243960   5.574   0.878  16.630  0.2632 -0.1014  0.4714
 7490TIP3    H143961   5.483   0.905  16.640  0.1325 -0.6440  0.7697
 7490TIP3    H243962   5.579   0.795  16.677  0.9017 -0.0893  0.4225
 7491TIP3   OH243963   1.370   4.928   1.682  0.1810 -0.2373  0.0188
 7491TIP3    H143964   1.321   4.947   1.602 -0.8988  2.5311  1.2695
 7491TIP3    H243965   1.448   4.985   1.676  0.5599 -0.7047  0.5080
 7492TIP3   OH243966   4.688   0.943   1.131 -0.1541 -0.0708 -0.2088
 7492TIP3    H143967   4.722   0.961   1.219  0.8335  1.3845 -0.8659
 7492TIP3    H243968   4.725   1.013   1.077  1.2233 -2.3125 -2.2676
 7493TIP3   OH243969   5.642   4.436   3.539 -0.0697 -0.6838  0.0119
 7493TIP3    H143970   5.723   4.484   3.555 -0.6832  1.1217 -2.0950
 7493TIP3    H243971   5.639   4.426   3.444 -2.4007 -0.5980  0.0618
 7494TIP3   OH243972   5.977   0.878   5.883  0.8153 -0.4248 -0.0655
 7494TIP3    H143973   6.020   0.865   5.798  1.4907 -2.5419  0.5952
 7494TIP3    H243974   6.046   0.914   5.939  0.3009  1.2218 -0.4601
 7495TIP3   OH243975   4.975   1.643   1.751 -0.4222 -0.7282 -0.2342
 7495TIP3    H143976   4.907   1.579   1.772  0.8936 -1.7421  0.9706
 7495TIP3    H243977   5.027   1.602   1.681  0.6668 -1.1636  0.8189
 7496TIP3   OH243978   4.078   4.551  15.885 -0.1667 -0.4146  0.5944
 7496TIP3    H143979   4.133   4.511  15.818  0.4469  1.7933 -0.2657
 7496TIP3    H243980   3.994   4.567  15.841 -1.0073 -2.3079  1.4450
 7497TIP3   OH243981   5.599   0.864   3.440 -0.6511  0.1426  0.5003
 7497TIP3    H143982   5.693   0.876   3.425 -0.5662  1.6538  2.0893
 7497TIP3    H243983   5.558   0.917   3.371 -0.3669 -1.1858 -0.7167
 7498TIP3   OH243984   1.499   6.619   1.052  0.0097 -0.2734 -0.3902
 7498TIP3    H143985   1.417   6.643   1.010  0.7683 -0.7701 -2.2001
 7498TIP3    H243986   1.565   6.676   1.011  0.5520  0.2251  1.1414
 7499TIP3   OH243987   5.143   5.336   5.682  0.3503  0.1437 -0.4997
 7499TIP3    H143988   5.068   5.395   5.680 -0.4606 -0.8279  0.5845
 7499TIP3    H243989   5.105   5.250   5.700  1.5375 -0.6717 -1.7700
 7500TIP3   OH243990   5.945   6.012  12.742 -0.1937 -0.4963  0.5169
 7500TIP3    H143991   5.906   5.945  12.686 -1.1719 -0.5337  1.2232
 7500TIP3    H243992   5.871   6.052  12.787  0.0363  3.1105 -2.0668
 7501TIP3   OH243993   5.380   1.159   1.175  0.8444  0.2174  0.0056
 7501TIP3    H143994   5.297   1.124   1.205 -0.0797  0.1042 -2.5110
 7501TIP3    H243995   5.418   1.089   1.121  1.3938  1.1615 -0.8585
 7502TIP3   OH243996   1.501   5.401  16.094 -0.1281 -0.0945 -0.4828
 7502TIP3    H143997   1.542   5.321  16.128  0.1770 -0.7054 -2.2247
 7502TIP3    H243998   1.516   5.397  15.999 -1.0911  1.4811 -0.7144
 7503TIP3   OH243999   5.275   6.289   0.775  0.5172 -0.0167  0.2212
 7503TIP3    H144000   5.322   6.307   0.856 -1.1187 -0.7211  1.3608
 7503TIP3    H244001   5.289   6.196   0.759  1.7480  0.3464 -0.9287
 7504TIP3   OH244002   5.816   1.629  14.467  0.1677  0.0436 -0.3736
 7504TIP3    H144003   5.740   1.617  14.524 -0.7126 -0.3051 -1.5835
 7504TIP3    H244004   5.880   1.565  14.498  0.8217  1.7989  2.0312
 7505TIP3   OH244005   6.323   4.821  15.502 -0.0917  0.3132  0.1058
 7505TIP3    H144006   6.292   4.909  15.480  1.5289  0.9954  0.5082
 7505TIP3    H244007   6.403   4.810  15.451  0.0812 -0.6517  0.5868
 7506TIP3   OH244008   6.698   4.277   3.627 -0.1490 -0.3687  0.3261
 7506TIP3    H144009   6.751   4.293   3.549  0.0055 -1.7709  0.1218
 7506TIP3    H244010   6.631   4.215   3.598 -0.8851  0.0975  0.9974
 7507TIP3   OH244011   3.711   3.295  11.364  0.1656 -0.1221 -0.0521
 7507TIP3    H144012   3.627   3.334  11.340 -0.6193 -0.0324  2.6078
 7507TIP3    H244013   3.758   3.366  11.407 -0.0963 -1.2683  2.1977
 7508TIP3   OH244014   6.002   0.613   3.460  0.1486  0.1524 -1.0067
 7508TIP3    H144015   6.078   0.557   3.475  0.5784  0.1049 -3.1958
 7508TIP3    H244016   5.951   0.567   3.393 -0.0908  1.7876 -1.9789
 7509TIP3   OH244017   4.050   3.362  14.684  0.8689  0.5168 -0.1745
 7509TIP3    H144018   4.051   3.268  14.704  2.3570  1.3536  4.4117
 7509TIP3    H244019   3.958   3.386  14.689  0.4291 -0.7561 -1.8220
 7510TIP3   OH244020   6.584   3.477   0.893  0.6699  0.5272 -0.0461
 7510TIP3    H144021   6.545   3.391   0.874 -0.6139  1.3447 -1.2364
 7510TIP3    H244022   6.677   3.459   0.905  0.7224 -0.7903 -2.1851
 7511TIP3   OH244023   3.371   5.323  15.754  0.3121 -0.0856  0.3204
 7511TIP3    H144024   3.367   5.235  15.717 -1.2058 -0.1161  0.5261
 7511TIP3    H244025   3.413   5.311  15.839 -1.4573 -0.8804  1.0989
 7512TIP3   OH244026   1.095   1.389   0.266  0.1270  0.4152  0.1385
 7512TIP3    H144027   1.171   1.442   0.243 -0.1369  0.0791 -1.5879
 7512TIP3    H244028   1.021   1.450   0.263  0.1406  0.4519  0.4939
 7513TIP3   OH244029   2.299   3.099   4.420  0.2015  0.4383  0.6930
 7513TIP3    H144030   2.364   3.155   4.462  0.4381  1.4606 -0.9800
 7513TIP3    H244031   2.345   3.017   4.402  0.7752  0.8316  0.3532
 7514TIP3   OH244032   0.340   1.949   1.848  0.3813 -0.4578 -0.4273
 7514TIP3    H144033   0.389   1.910   1.920  0.2609  0.9812  0.4605
 7514TIP3    H244034   0.249   1.946   1.877  0.3952  0.6668 -0.2429
 7515TIP3   OH244035   1.397   0.734   4.994  0.3133  0.3493  0.2514
 7515TIP3    H144036   1.337   0.760   5.064  0.5291  0.9842  0.2057
 7515TIP3    H244037   1.442   0.657   5.029 -1.5408 -1.0196 -0.2783
 7516TIP3   OH244038   0.526   3.046   0.707  0.1125 -0.0233 -0.2711
 7516TIP3    H144039   0.610   3.089   0.692  0.0620  0.0800 -0.2564
 7516TIP3    H244040   0.522   2.978   0.639  1.5095 -1.9518  1.5259
 7517TIP3   OH244041   4.488   3.490   5.507  0.5149 -0.6335  0.6519
 7517TIP3    H144042   4.404   3.502   5.551  0.7510 -0.5476  1.0903
 7517TIP3    H244043   4.500   3.395   5.502  0.6334 -0.6423  1.0649
 7518TIP3   OH244044   2.811   3.753  16.672  0.2103 -0.3600 -0.5564
 7518TIP3    H144045   2.739   3.712  16.719  0.6702 -0.5137  0.0156
 7518TIP3    H244046   2.780   3.760  16.582 -0.9651  0.6295 -0.0776
 7519TIP3   OH244047   3.336   3.819  15.263  0.6233  0.5352  0.3611
 7519TIP3    H144048   3.345   3.737  15.216  0.6934 -0.1817  1.6089
 7519TIP3    H244049   3.275   3.871  15.209  0.9606 -0.1309 -0.6725
 7520TIP3   OH244050   6.817   3.177   2.897  0.2643  0.2959 -0.6875
 7520TIP3    H144051   6.776   3.135   2.821  1.5173 -2.9954  0.3805
 7520TIP3    H244052   6.743   3.202   2.953 -0.5180 -3.2199  0.0013
 7521TIP3   OH244053   0.776   1.253   5.015 -0.4169 -0.2023 -0.2058
 7521TIP3    H144054   0.819   1.334   5.043  0.5897 -0.7410 -0.1777
 7521TIP3    H244055   0.802   1.188   5.080 -0.1380 -0.8581 -0.9614
 7522TIP3   OH244056   4.546   5.311  14.798 -0.2502 -0.2616  0.3141
 7522TIP3    H144057   4.461   5.275  14.823 -1.2247  2.3398  1.0053
 7522TIP3    H244058   4.594   5.318  14.880 -0.8948  1.9482  0.5389
 7523TIP3   OH244059   0.717   3.344  14.041 -0.2819  0.1544  0.4553
 7523TIP3    H144060   0.731   3.439  14.043 -0.9510  0.2379  0.9304
 7523TIP3    H244061   0.806   3.308  14.032  0.0504  0.7898  1.1053
 7524TIP3   OH244062   1.066   1.307   2.744  0.2056  0.5323 -0.7121
 7524TIP3    H144063   1.011   1.380   2.715 -0.0228 -0.2384 -2.2808
 7524TIP3    H244064   1.154   1.344   2.749 -0.1175  1.2439 -0.2172
 7525TIP3   OH244065   0.675   1.951   5.126  0.0284  0.8034  0.5037
 7525TIP3    H144066   0.599   1.958   5.183  0.6167 -0.4663  1.4614
 7525TIP3    H244067   0.686   2.039   5.089 -2.0043  0.9461  0.2045
 7526TIP3   OH244068   4.776   6.300  16.365  0.3127 -0.2263 -0.0826
 7526TIP3    H144069   4.822   6.220  16.393  0.2962  0.1189  0.9741
 7526TIP3    H244070   4.793   6.362  16.436 -0.4492  0.4117 -0.4652
 7527TIP3   OH244071   1.939   3.552   6.208  0.8771 -0.1645 -0.0931
 7527TIP3    H144072   1.878   3.595   6.269  0.8670 -0.4898  0.1272
 7527TIP3    H244073   1.961   3.469   6.251  1.3379 -0.1279 -0.2570
 7528TIP3   OH244074   4.300   2.903   4.496  0.3706 -0.0673 -0.1694
 7528TIP3    H144075   4.241   2.900   4.571  0.2704  1.7774 -0.1457
 7528TIP3    H244076   4.367   2.967   4.520  1.8946 -1.4891 -0.5545
 7529TIP3   OH244077   1.511   4.039  13.223  0.2773 -0.1836 -0.5199
 7529TIP3    H144078   1.433   3.983  13.220 -0.1062  0.1793  1.5203
 7529TIP3    H244079   1.557   4.010  13.302  1.7626  0.1841 -1.2438
 7530TIP3   OH244080   6.183   4.222   0.578 -0.2600 -0.0984 -0.1423
 7530TIP3    H144081   6.267   4.267   0.588 -0.3416 -0.1468  0.8610
 7530TIP3    H244082   6.157   4.239   0.488  1.7789 -1.7705 -1.0659
 7531TIP3   OH244083   2.486   5.849  11.859  0.0170 -0.4243  0.3017
 7531TIP3    H144084   2.393   5.831  11.867 -0.1311  0.3052  0.1455
 7531TIP3    H244085   2.517   5.853  11.950 -0.4065  0.9835  0.3869
 7532TIP3   OH244086   6.622   5.226   4.418 -0.8977 -0.0217 -0.8000
 7532TIP3    H144087   6.624   5.180   4.334  1.0055  0.7878 -1.2218
 7532TIP3    H244088   6.705   5.275   4.420 -1.2493  0.5059  1.2369
 7533TIP3   OH244089   4.259   2.980   5.673 -0.5121  0.3002  0.1172
 7533TIP3    H144090   4.350   2.963   5.649 -1.5372 -0.8960 -3.2328
 7533TIP3    H244091   4.234   2.904   5.726  0.0225 -0.0878 -0.1749
 7534TIP3   OH244092   6.558   1.891  12.509  0.3045  0.1076 -0.4609
 7534TIP3    H144093   6.540   1.834  12.583 -0.0496  2.2895  1.2038
 7534TIP3    H244094   6.587   1.973  12.549  1.7997  0.7666 -2.7954
 7535TIP3   OH244095   5.194   1.618  15.937  0.1562 -1.4443  0.2595
 7535TIP3    H144096   5.222   1.699  15.894 -0.0602 -0.7993  1.3164
 7535TIP3    H244097   5.113   1.641  15.982  0.1068 -2.2448  0.5920
 7536TIP3   OH244098   1.923   1.326   3.319  0.2233 -0.0476  0.3721
 7536TIP3    H144099   1.992   1.293   3.377  0.2632  1.1111  1.0097
 7536TIP3    H244100   1.846   1.332   3.375 -0.1959 -0.6092 -0.1468
 7537TIP3   OH244101   6.721   2.649  12.327  0.2844  0.0692 -0.1521
 7537TIP3    H144102   6.684   2.692  12.249  0.0628 -0.4015 -0.3104
 7537TIP3    H244103   6.647   2.641  12.387  0.3738  0.1043 -0.0377
 7538TIP3   OH244104   6.592   6.764   2.039  0.2490  0.5197 -0.1606
 7538TIP3    H144105   6.561   6.803   1.957 -0.6755  2.7043  1.1784
 7538TIP3    H244106   6.511   6.742   2.086  0.7577 -2.7446 -0.7269
 7539TIP3   OH244107   2.647   2.827  13.309  0.1631  0.2178  0.6998
 7539TIP3    H144108   2.737   2.815  13.338 -0.3534  1.0250  2.7242
 7539TIP3    H244109   2.615   2.738  13.294  1.6093 -0.0252 -1.0706
 7540TIP3   OH244110   0.115   3.612  10.980 -0.2459  0.2514  0.4208
 7540TIP3    H144111   0.139   3.676  11.047  2.2673 -2.3698  2.1263
 7540TIP3    H244112   0.034   3.572  11.012 -0.4660  0.8124  0.5722
 7541TIP3   OH244113   1.308   5.259   0.966 -0.2104  0.8218  0.3633
 7541TIP3    H144114   1.333   5.227   1.052 -2.1370  0.6379  0.8642
 7541TIP3    H244115   1.392   5.277   0.922  0.7890  0.2073  1.9816
 7542TIP3   OH244116   1.139   4.237  13.010  0.0183 -0.1888  1.0108
 7542TIP3    H144117   1.213   4.293  13.032  0.5601 -0.7404  0.5925
 7542TIP3    H244118   1.176   4.166  12.958 -1.2008  0.8710 -1.3420
 7543TIP3   OH244119   0.191   4.372   1.490  0.4419 -0.5524 -0.9236
 7543TIP3    H144120   0.254   4.428   1.534  1.2008 -0.8217 -1.6539
 7543TIP3    H244121   0.173   4.417   1.407  0.8645 -1.2551 -1.4012
 7544TIP3   OH244122   4.905   4.916  12.590  0.1870  0.3115 -0.0898
 7544TIP3    H144123   4.876   4.996  12.633  0.9880  0.1114  0.8473
 7544TIP3    H244124   4.991   4.898  12.628  0.4349 -0.4684 -0.9911
 7545TIP3   OH244125   1.842   1.483  14.124 -0.2555 -0.8111 -0.3216
 7545TIP3    H144126   1.837   1.524  14.038  0.2531 -1.6516 -0.7512
 7545TIP3    H244127   1.834   1.389  14.107 -1.2238 -0.9188  0.6395
 7546TIP3   OH244128   2.347   0.970  14.845 -0.1940 -0.1386  0.1848
 7546TIP3    H144129   2.319   1.062  14.847 -1.4950 -0.5391  0.5890
 7546TIP3    H244130   2.409   0.963  14.918  2.8909  1.3413 -2.2026
 7547TIP3   OH244131   6.595   3.644   6.778  0.1397  0.0235 -0.4281
 7547TIP3    H144132   6.609   3.570   6.837  0.7014  0.0771 -0.4971
 7547TIP3    H244133   6.674   3.648   6.724 -0.4097 -0.0736 -1.2426
 7548TIP3   OH244134   4.155   5.263   6.717 -0.9168  0.7183  0.2668
 7548TIP3    H144135   4.153   5.279   6.811 -2.2371 -1.6990  0.6871
 7548TIP3    H244136   4.117   5.176   6.706  0.3021  0.4487 -2.3966
 7549TIP3   OH244137   1.098   6.380  12.012 -0.5321  0.1420  0.6127
 7549TIP3    H144138   1.026   6.443  12.011 -1.0316 -0.3986  1.7312
 7549TIP3    H244139   1.058   6.298  11.984 -0.6670 -0.4617  2.4666
 7550TIP3   OH244140   0.917   0.203   5.107  0.4272  0.1678  0.0976
 7550TIP3    H144141   0.941   0.229   5.018 -1.5070  0.1090 -0.4637
 7550TIP3    H244142   0.922   0.108   5.106 -1.5819  0.0443 -0.5685
 7551TIP3   OH244143   2.710   2.592   4.936 -0.4677 -0.1852  0.4584
 7551TIP3    H144144   2.700   2.564   5.027  1.1820  0.0011  0.7245
 7551TIP3    H244145   2.745   2.514   4.891 -2.3626 -0.6317 -0.2708
 7552TIP3   OH244146   4.994   6.419  14.216  0.3863  0.4420 -0.1425
 7552TIP3    H144147   4.998   6.427  14.311 -0.3292 -0.8024  0.0051
 7552TIP3    H244148   4.922   6.358  14.200  0.1110  1.1093 -1.5070
 7553TIP3   OH244149   6.742   4.046  14.403  0.4951  0.5556 -0.2078
 7553TIP3    H144150   6.658   4.014  14.434 -1.2738  2.1091 -3.1711
 7553TIP3    H244151   6.778   4.094  14.478 -2.9479  2.9689  0.0126
 7554TIP3   OH244152   2.914   4.063  17.153 -0.7986 -0.0060  0.1646
 7554TIP3    H144153   2.965   3.983  17.164 -0.0335  0.5144  0.3986
 7554TIP3    H244154   2.827   4.041  17.188 -0.3371 -0.4493  1.0466
 7555TIP3   OH244155   5.791   6.443   5.635 -0.0956 -0.4602 -0.2644
 7555TIP3    H144156   5.879   6.412   5.660 -0.2532 -1.1357 -0.5245
 7555TIP3    H244157   5.774   6.517   5.693  0.9454  0.1289 -0.6983
 7556TIP3   OH244158   5.593   5.247   1.788  0.2575 -0.6651  0.4632
 7556TIP3    H144159   5.585   5.341   1.808  2.9940 -0.1799 -0.5708
 7556TIP3    H244160   5.508   5.211   1.814 -1.8612  2.5250 -1.5637
 7557TIP3   OH244161   0.889   2.170  15.306 -0.6709  1.0729  0.7599
 7557TIP3    H144162   0.943   2.093  15.325 -2.4420  0.1405  2.1695
 7557TIP3    H244163   0.854   2.197  15.391 -2.3849  1.6712 -0.1033
 7558TIP3   OH244164   0.699   6.758  12.461  0.1519  0.3233  0.0450
 7558TIP3    H144165   0.700   6.854  12.464 -0.0412  0.3057  0.9704
 7558TIP3    H244166   0.734   6.732  12.546 -1.2937 -0.4148  0.4334
 7559TIP3   OH244167   5.097   2.083  15.048 -0.0179 -0.1762 -0.1602
 7559TIP3    H144168   5.177   2.071  14.998 -0.8774  0.3432 -1.6912
 7559TIP3    H244169   5.036   2.126  14.987 -1.0443  0.5758  1.3641
 7560TIP3   OH244170   0.955   6.301   7.195 -0.7357 -0.4682 -0.5083
 7560TIP3    H144171   0.930   6.337   7.110  1.0363 -0.3631 -1.0062
 7560TIP3    H244172   1.042   6.263   7.181  0.1641  0.7213  1.5602
 7561TIP3   OH244173   0.524   3.781  11.119 -0.2779 -0.0733  0.9439
 7561TIP3    H144174   0.582   3.751  11.189  1.1606  0.4855  0.0184
 7561TIP3    H244175   0.518   3.876  11.132 -0.0742  0.0220  0.3637
 7562TIP3   OH244176   6.673   6.260  17.282 -0.9304 -0.4761 -0.1860
 7562TIP3    H144177   6.662   6.353  17.263 -0.7476 -1.0939 -3.6797
 7562TIP3    H244178   6.584   6.229  17.300 -1.0860  0.2405  0.3058
 7563TIP3   OH244179   0.371   6.697   4.479  0.3298  0.1171 -0.2491
 7563TIP3    H144180   0.393   6.674   4.388 -0.6948 -0.8697 -0.2512
 7563TIP3    H244181   0.330   6.618   4.515  1.5131  0.2184  1.3484
 7564TIP3   OH244182   2.087   6.240  15.560 -0.6072 -0.9392 -0.1173
 7564TIP3    H144183   2.068   6.163  15.614 -0.1666 -0.3322  0.9275
 7564TIP3    H244184   2.165   6.216  15.510  0.5296 -0.6026  1.4408
 7565TIP3   OH244185   5.421   4.493  10.928 -0.8695  0.0257  0.3385
 7565TIP3    H144186   5.431   4.510  10.835 -1.4143  0.7032  0.4016
 7565TIP3    H244187   5.497   4.439  10.951 -1.3864 -1.1669 -0.7469
 7566TIP3   OH244188   6.722   3.824   3.095  0.3308  0.3486  0.0741
 7566TIP3    H144189   6.776   3.770   3.037 -0.2167 -0.8421  0.6660
 7566TIP3    H244190   6.642   3.774   3.108  0.8938  0.0516  2.7513
 7567TIP3   OH244191   5.987   3.562   5.137 -0.6205 -0.0293 -0.2230
 7567TIP3    H144192   5.926   3.570   5.064 -0.8528  0.8146  0.0577
 7567TIP3    H244193   6.039   3.642   5.135 -2.3295  1.2152  2.0388
 7568TIP3   OH244194   0.306   1.556   0.135  0.1866 -0.8982  0.4173
 7568TIP3    H144195   0.278   1.556   0.043  0.6983  1.8352  0.2012
 7568TIP3    H244196   0.230   1.525   0.183 -1.6529  1.8481 -0.5810
 7569TIP3   OH244197   0.614   0.716   0.987  0.2578 -0.0131 -0.2657
 7569TIP3    H144198   0.708   0.709   1.001  0.0563 -0.5875  0.8513
 7569TIP3    H244199   0.605   0.734   0.893  1.4521 -0.5556 -0.4920
 7570TIP3   OH244200   3.752   1.813  12.589 -0.1356 -0.3341  0.2641
 7570TIP3    H144201   3.768   1.870  12.514  3.4577 -1.2529  0.2440
 7570TIP3    H244202   3.726   1.729  12.552 -0.5681 -0.1442  0.1342
 7571TIP3   OH244203   4.299   1.717   2.141  0.1388 -0.2649 -0.0395
 7571TIP3    H144204   4.339   1.719   2.228 -1.3625  0.2268  0.6654
 7571TIP3    H244205   4.259   1.631   2.134 -0.5070  0.0173  0.1236
 7572TIP3   OH244206   2.911   0.234  15.540  0.3372 -0.1103  0.0543
 7572TIP3    H144207   2.897   0.194  15.455 -0.1807  2.1344 -0.9609
 7572TIP3    H244208   2.859   0.181  15.601 -2.1494  0.3525 -1.5923
 7573TIP3   OH244209   3.752   2.383   1.944 -0.1571 -0.1215 -0.1359
 7573TIP3    H144210   3.706   2.322   1.884 -1.0963  0.2805  0.1625
 7573TIP3    H244211   3.683   2.442   1.974  0.3386 -0.2482  1.2603
 7574TIP3   OH244212   5.187   3.554  15.633  0.4723  0.4199 -0.0729
 7574TIP3    H144213   5.095   3.527  15.639  0.5432  0.1602 -0.1256
 7574TIP3    H244214   5.195   3.591  15.545  0.6390 -0.4160 -0.4152
 7575TIP3   OH244215   1.570   4.966  12.947  0.0635 -0.1280 -0.3951
 7575TIP3    H144216   1.625   4.985  12.871 -0.4376  0.6050 -0.5865
 7575TIP3    H244217   1.481   4.960  12.911 -0.4512  2.2252  0.3950
 7576TIP3   OH244218   3.518   2.140   0.625 -0.3239  0.2534  0.4615
 7576TIP3    H144219   3.499   2.071   0.562 -0.0234 -0.3187  0.9893
 7576TIP3    H244220   3.437   2.190   0.632 -0.3849  0.2602 -0.3005
 7577TIP3   OH244221   3.677   6.279   0.869  0.2385  0.3285  0.4118
 7577TIP3    H144222   3.585   6.306   0.869  0.3838  0.8382 -0.6049
 7577TIP3    H244223   3.726   6.361   0.879  0.6175  0.1920 -0.3188
 7578TIP3   OH244224   3.904   3.504   5.565 -0.0011 -0.1518 -0.1192
 7578TIP3    H144225   3.823   3.548   5.538  0.0339  0.2985  0.4920
 7578TIP3    H244226   3.878   3.412   5.574 -0.1987 -0.1773 -0.9021
 7579TIP3   OH244227   2.598   5.962  13.435  0.8625  0.2691  0.3749
 7579TIP3    H144228   2.543   6.041  13.438  0.4212 -0.0687  1.6092
 7579TIP3    H244229   2.542   5.895  13.396  1.2771  0.5891 -0.7867
 7580TIP3   OH244230   6.265   4.711  11.826  0.2011  0.1741 -0.2260
 7580TIP3    H144231   6.233   4.643  11.767  1.0503 -1.0439  0.6927
 7580TIP3    H244232   6.186   4.758  11.854 -0.3676 -0.2991 -1.0256
 7581TIP3   OH244233   4.310   3.617  14.141  0.6877  0.3270  0.0500
 7581TIP3    H144234   4.320   3.703  14.183 -0.1029 -0.1760  1.2960
 7581TIP3    H244235   4.289   3.638  14.050 -1.8994  1.5267  0.8625
 7582TIP3   OH244236   6.165   5.596   5.878  0.4995  0.1288  0.1996
 7582TIP3    H144237   6.143   5.613   5.970  0.1898  0.2333  0.1058
 7582TIP3    H244238   6.114   5.518   5.856  0.3798  0.2521  0.0424
 7583TIP3   OH244239   4.951   4.356  14.468 -0.2328  0.3510  0.3669
 7583TIP3    H144240   4.977   4.440  14.505 -1.5346  0.8361  0.2066
 7583TIP3    H244241   4.858   4.349  14.487 -0.7212  0.1546 -1.9022
 7584TIP3   OH244242   2.852   1.517   1.255  0.3104 -0.3795  0.4469
 7584TIP3    H144243   2.927   1.568   1.286 -1.3188  1.4590  1.4977
 7584TIP3    H244244   2.787   1.524   1.326 -1.6819 -0.1116 -1.3439
 7585TIP3   OH244245   2.667   4.402  10.945 -0.5559 -0.3544 -0.1339
 7585TIP3    H144246   2.576   4.418  10.918  0.0413  0.3760 -1.7630
 7585TIP3    H244247   2.686   4.473  11.006  0.3255  2.1283 -3.1942
 7586TIP3   OH244248   5.797   6.367  15.430  0.2760 -0.3389  0.4813
 7586TIP3    H144249   5.714   6.358  15.476 -0.8177  0.2937 -1.3305
 7586TIP3    H244250   5.804   6.460  15.408  1.8657 -0.2313  1.3412
 7587TIP3   OH244251   0.578   3.753  15.154  0.3269 -0.1497 -0.0586
 7587TIP3    H144252   0.628   3.800  15.221 -1.0179  1.4407 -0.1486
 7587TIP3    H244253   0.495   3.732  15.197 -0.5821  0.9630 -1.2560
 7588TIP3   OH244254   2.549   6.513   2.254 -0.1767  0.2288 -0.1734
 7588TIP3    H144255   2.475   6.471   2.210  0.2896 -0.5877 -0.1767
 7588TIP3    H244256   2.517   6.601   2.275 -0.9205  0.1059 -0.7724
 7589TIP3   OH244257   3.435   1.417   3.379 -0.6240  0.0678 -0.7169
 7589TIP3    H144258   3.498   1.351   3.408 -0.2933  0.3950 -0.6941
 7589TIP3    H244259   3.369   1.419   3.448  0.5459  1.3809  0.4081
 7590TIP3   OH244260   2.528   4.233  11.777  0.2358 -0.2902 -0.1840
 7590TIP3    H144261   2.558   4.171  11.711  0.3377 -0.4026 -0.0311
 7590TIP3    H244262   2.446   4.197  11.810  1.5806 -1.6989  1.7588
 7591TIP3   OH244263   2.274   4.900   5.460  0.6503  0.0178  0.4464
 7591TIP3    H144264   2.309   4.814   5.484  0.4805 -0.7407 -1.9017
 7591TIP3    H244265   2.346   4.943   5.415  0.4126  0.7002  0.7226
 7592TIP3   OH244266   2.559   3.112  15.285  0.1085  0.2205  0.2194
 7592TIP3    H144267   2.552   3.024  15.323  4.5428 -0.7805 -1.0022
 7592TIP3    H244268   2.559   3.171  15.360  2.6817 -1.2982  1.5003
 7593TIP3   OH244269   3.980   4.620  14.046  0.3941  0.0673  0.3167
 7593TIP3    H144270   3.924   4.568  14.102 -0.5583  0.8808  0.1383
 7593TIP3    H244271   3.920   4.668  13.989  1.3065  0.0612 -0.6745
 7594TIP3   OH244272   3.925   6.124   5.925  0.4146 -0.4660  0.3484
 7594TIP3    H144273   3.836   6.138   5.955  0.1871  0.8927 -0.8990
 7594TIP3    H244274   3.969   6.082   5.999 -1.0024 -0.2758  1.3200
 7595TIP3   OH244275   4.849   5.164  13.025 -0.4012 -0.3219  0.3032
 7595TIP3    H144276   4.927   5.147  13.078 -1.5079 -1.3614  1.6552
 7595TIP3    H244277   4.803   5.233  13.073 -0.1035  0.6174 -0.7369
 7596TIP3   OH244278   1.758   2.083   3.846 -0.0206 -0.2221  0.1417
 7596TIP3    H144279   1.730   2.030   3.772 -1.8249  0.2850  0.4484
 7596TIP3    H244280   1.836   2.129   3.814  0.1594 -1.2372 -0.8981
 7597TIP3   OH244281   5.408   3.360  12.836  0.0592  0.0989 -0.2633
 7597TIP3    H144282   5.351   3.408  12.777  0.8060  1.1454 -0.1513
 7597TIP3    H244283   5.386   3.394  12.923  0.6541  0.3077 -0.1926
 7598TIP3   OH244284   3.639   6.133  13.115 -0.3090 -0.1499  0.7317
 7598TIP3    H144285   3.715   6.077  13.131  0.3804  0.6615  0.3468
 7598TIP3    H244286   3.676   6.214  13.079 -1.6233 -1.3010 -3.4876
 7599TIP3   OH244287   4.987   6.610   3.445  0.5927  0.1060  0.0834
 7599TIP3    H144288   5.002   6.532   3.498  1.5538  1.0276  1.1894
 7599TIP3    H244289   4.899   6.639   3.468 -0.3767 -1.4958 -1.4647
 7600TIP3   OH244290   1.552   4.757  11.909 -0.4597 -0.0500 -0.1142
 7600TIP3    H144291   1.497   4.790  11.980 -0.2368 -0.8561  0.4497
 7600TIP3    H244292   1.609   4.693  11.952  0.3780  0.2064 -0.8378
 7601TIP3   OH244293   5.820   4.953   0.381  0.1001  0.5348  0.8575
 7601TIP3    H144294   5.793   4.975   0.292  0.2061  0.6497  0.8543
 7601TIP3    H244295   5.855   4.864   0.374  2.2054  1.3739  0.3628
 7602TIP3   OH244296   5.744   4.347  16.706 -0.5563  0.1119  0.2175
 7602TIP3    H144297   5.779   4.405  16.639 -2.2456  1.9453  0.8931
 7602TIP3    H244298   5.654   4.330  16.680 -0.2907 -1.7051  0.3900
 7603TIP3   OH244299   5.943   3.219   5.288  0.1247 -0.1527  0.5352
 7603TIP3    H144300   5.908   3.179   5.208  0.7545  2.1774 -0.9771
 7603TIP3    H244301   5.868   3.262   5.328  0.3714  1.2516 -0.4577
 7604TIP3   OH244302   1.706   0.028  16.331  0.2522 -0.8768  0.3494
 7604TIP3    H144303   1.665   0.104  16.372  3.3756  1.1474 -0.1538
 7604TIP3    H244304   1.673  -0.046  16.381 -2.9088  0.7425  0.8394
 7605TIP3   OH244305   1.251   0.507  13.349 -0.5264 -0.0618  0.4783
 7605TIP3    H144306   1.298   0.588  13.370 -1.3880  0.2539  1.2583
 7605TIP3    H244307   1.270   0.449  13.423  0.7056 -0.8389 -0.4536
 7606TIP3   OH244308   5.740   5.108   0.145  0.3050  0.5078 -0.3089
 7606TIP3    H144309   5.744   5.164   0.223 -0.9231 -1.6432  1.3360
 7606TIP3    H244310   5.654   5.127   0.106 -0.0107 -0.0676  0.1120
 7607TIP3   OH244311   5.467   3.037   4.694  0.0104 -0.1617 -0.4791
 7607TIP3    H144312   5.425   2.951   4.694 -1.2638  0.4504 -1.3977
 7607TIP3    H244313   5.429   3.082   4.769  0.5833 -0.3548 -0.0724
 7608TIP3   OH244314   1.269   5.408   0.280  0.2313 -0.0080 -0.1776
 7608TIP3    H144315   1.176   5.423   0.260  0.4232  0.9380 -0.3626
 7608TIP3    H244316   1.274   5.415   0.375  0.0330 -0.5264 -0.1260
 7609TIP3   OH244317   5.748   4.513  14.646  0.0405  0.4546 -0.5891
 7609TIP3    H144318   5.678   4.562  14.689 -1.0305 -1.6144  0.1281
 7609TIP3    H244319   5.816   4.504  14.713 -0.7415 -0.9663  0.0464
 7610TIP3   OH244320   3.043   5.537  16.940 -0.2676  0.3904 -0.1511
 7610TIP3    H144321   3.038   5.619  16.990  0.3320  0.2471  0.1527
 7610TIP3    H244322   2.972   5.484  16.974 -0.0946  0.4396  0.2901
 7611TIP3   OH244323   6.477   1.751   1.271  0.4324  0.3714 -0.7724
 7611TIP3    H144324   6.417   1.794   1.211  1.2852 -0.0312 -1.9272
 7611TIP3    H244325   6.564   1.771   1.237  0.9312  0.1283  0.3161
 7612TIP3   OH244326   4.541   0.970   6.488 -0.1154  0.1311 -0.2148
 7612TIP3    H144327   4.481   0.923   6.546  1.9754 -0.7557  1.2856
 7612TIP3    H244328   4.535   0.925   6.404  0.1341 -1.3601  0.5590
 7613TIP3   OH244329   1.204   4.466   0.184 -0.2354  0.1444  0.5749
 7613TIP3    H144330   1.221   4.446   0.092  2.4638  0.9817  0.8343
 7613TIP3    H244331   1.264   4.408   0.232  1.0498  2.2672  1.6293
 7614TIP3   OH244332   6.430   0.840  15.661  0.0895 -0.0524 -0.9059
 7614TIP3    H144333   6.498   0.899  15.628  0.3580 -0.1916 -0.6024
 7614TIP3    H244334   6.475   0.756  15.673 -0.4089 -0.4480 -1.7983
 7615TIP3   OH244335   3.748   3.883  14.979  0.0164 -0.2421  0.2029
 7615TIP3    H144336   3.764   3.897  14.886 -0.9029  1.4627  0.2979
 7615TIP3    H244337   3.692   3.955  15.006  0.5875 -0.4951  2.1771
 7616TIP3   OH244338   5.617   0.266  14.488  0.1867  0.0445  0.5465
 7616TIP3    H144339   5.536   0.218  14.505  0.3056  0.1567  1.4654
 7616TIP3    H244340   5.675   0.243  14.561  0.2991  1.4354  0.9277
 7617TIP3   OH244341   3.034   2.468  13.710 -0.3946  0.1793 -0.2997
 7617TIP3    H144342   3.033   2.418  13.792  0.0964 -1.6315 -1.3812
 7617TIP3    H244343   3.124   2.464  13.680 -0.7621  0.0383 -1.4141
 7618TIP3   OH244344   0.520   5.080   5.373  0.3540 -0.0602 -0.4542
 7618TIP3    H144345   0.476   5.129   5.442  0.0006 -0.5712 -0.3134
 7618TIP3    H244346   0.451   5.065   5.308  0.6570  0.3224 -0.8641
 7619TIP3   OH244347   3.549   0.326  16.514 -0.3915  0.3730 -0.1194
 7619TIP3    H144348   3.482   0.279  16.563 -0.9484  2.4326  1.1530
 7619TIP3    H244349   3.554   0.412  16.556  2.6245  0.4781 -0.5806
 7620TIP3   OH244350   3.583   6.614   0.261  0.0816 -0.5552 -0.5461
 7620TIP3    H144351   3.642   6.651   0.326 -0.4910  1.4598 -1.1573
 7620TIP3    H244352   3.626   6.533   0.233  2.0264  0.3529 -0.2347
 7621TIP3   OH244353   2.007   1.051   1.113  0.2858  0.0669  0.2219
 7621TIP3    H144354   1.949   1.125   1.135 -1.1791 -1.3114  1.1051
 7621TIP3    H244355   2.051   1.030   1.196  0.4985 -0.2335  0.0331
 7622TIP3   OH244356   0.333   6.210  16.589 -0.2350 -0.4826  0.6887
 7622TIP3    H144357   0.296   6.292  16.623  1.8215  1.5256 -1.7072
 7622TIP3    H244358   0.257   6.159  16.561 -1.4826  1.1057  1.1068
 7623TIP3   OH244359   3.149   4.513   2.735 -0.3944  0.1733 -0.3231
 7623TIP3    H144360   3.187   4.594   2.767 -1.1563  0.8818 -1.1950
 7623TIP3    H244361   3.061   4.537   2.706 -0.3473 -0.7936 -1.3181
 7624TIP3   OH244362   5.716   5.464   5.640  0.5753  0.1504  0.3587
 7624TIP3    H144363   5.664   5.537   5.674 -2.7641 -2.9252  2.1899
 7624TIP3    H244364   5.734   5.410   5.717  0.7960 -2.2517 -1.3180
 7625TIP3   OH244365   5.530   3.410  13.804 -0.2764  0.0911  0.1641
 7625TIP3    H144366   5.509   3.448  13.889 -0.5820  0.9938 -0.3066
 7625TIP3    H244367   5.616   3.370  13.816 -0.5753 -0.3219  1.0542
 7626TIP3   OH244368   5.767   6.334   3.040 -0.6031 -0.2729 -0.3128
 7626TIP3    H144369   5.710   6.259   3.023  1.4583 -1.7740 -0.7553
 7626TIP3    H244370   5.736   6.370   3.123 -1.0256 -2.1645  0.3613
 7627TIP3   OH244371   6.791   3.377   3.983  0.0560 -0.9741 -0.0700
 7627TIP3    H144372   6.852   3.376   4.056  0.4636 -1.8685 -0.4245
 7627TIP3    H244373   6.845   3.368   3.905 -0.3178  0.6301 -0.5371
 7628TIP3   OH244374   1.659   0.308   3.407  0.2608  0.7049  0.0008
 7628TIP3    H144375   1.650   0.235   3.469  0.1189  1.6912  1.1671
 7628TIP3    H244376   1.700   0.269   3.330  0.1933 -0.6066  0.6077
 7629TIP3   OH244377   3.169   3.881   2.969 -0.7033 -0.8180  0.3920
 7629TIP3    H144378   3.164   3.808   2.907 -2.2337  0.6443 -1.2472
 7629TIP3    H244379   3.080   3.914   2.976  0.2076  1.8905 -0.1266
 7630TIP3   OH244380   0.433   6.298  13.409  0.2978  0.0607  0.4551
 7630TIP3    H144381   0.417   6.306  13.503 -0.0977 -1.7150  0.5571
 7630TIP3    H244382   0.470   6.211  13.398  1.5541  0.7358 -0.8960
 7631TIP3   OH244383   4.795   6.651  14.198 -0.3560  0.4366 -0.4260
 7631TIP3    H144384   4.853   6.714  14.156 -1.7897  2.4301  0.4898
 7631TIP3    H244385   4.852   6.595  14.251  0.6247  3.2033  1.5217
 7632TIP3   OH244386   0.055   2.193  15.081  0.6644 -0.2120 -0.2722
 7632TIP3    H144387   0.063   2.201  14.986  3.6115  0.4852 -0.0223
 7632TIP3    H244388   0.085   2.104  15.100 -0.4051 -0.5262 -0.0297
 7633TIP3   OH244389   1.826   5.364   2.005  0.2835 -0.1544 -0.1155
 7633TIP3    H144390   1.866   5.284   2.039  1.8905  1.1123  1.0862
 7633TIP3    H244391   1.848   5.431   2.070  0.2169  1.5574 -1.8026
 7634TIP3   OH244392   0.207   0.205   3.862 -0.0724 -0.1948 -0.3990
 7634TIP3    H144393   0.114   0.227   3.864  0.0127  0.2064 -0.7049
 7634TIP3    H244394   0.245   0.254   3.935 -0.2062 -0.8787  0.1402
 7635TIP3   OH244395   5.713   0.111  15.839  0.7234 -0.6052  0.0704
 7635TIP3    H144396   5.736   0.146  15.925  1.1197 -0.3343 -0.1458
 7635TIP3    H244397   5.625   0.075  15.851  1.0034 -1.0863  0.7314
 7636TIP3   OH244398   0.363   4.265   3.303  0.1715 -0.2925 -0.4736
 7636TIP3    H144399   0.310   4.212   3.243 -0.5453 -1.5514  1.2250
 7636TIP3    H244400   0.311   4.344   3.318  0.4880  0.1591 -1.7274
 7637TIP3   OH244401   4.128   5.114   0.996  0.2363  0.2097 -0.0974
 7637TIP3    H144402   4.055   5.079   0.945 -1.3490  0.5539  1.8596
 7637TIP3    H244403   4.107   5.206   1.008  1.9558  0.7636 -1.0797
 7638TIP3   OH244404   3.738   5.963   2.591  0.2689 -0.2182  0.5407
 7638TIP3    H144405   3.768   6.013   2.667  0.1538  1.2643 -0.3528
 7638TIP3    H244406   3.727   6.029   2.523 -2.6621 -1.0638  0.1410
 7639TIP3   OH244407   4.587   4.922  13.159  0.0876 -0.3101 -0.1844
 7639TIP3    H144408   4.530   4.845  13.168  0.1572 -0.2479  0.8240
 7639TIP3    H244409   4.673   4.886  13.138  0.4864 -0.6167  1.8576
 7640TIP3   OH244410   2.873   1.433   5.174  0.3971  0.4298  0.0909
 7640TIP3    H144411   2.966   1.446   5.191  0.7273 -0.8338 -0.7009
 7640TIP3    H244412   2.830   1.461   5.255  1.5120  0.3283  0.7294
 7641TIP3   OH244413   1.557   2.862   6.558  0.1600  0.3041 -0.0797
 7641TIP3    H144414   1.506   2.938   6.587  1.3938  1.2719 -0.3929
 7641TIP3    H244415   1.617   2.844   6.631 -0.7125 -0.9287  0.3537
 7642TIP3   OH244416   5.395   0.928  12.118  0.1465  0.4147  0.1641
 7642TIP3    H144417   5.468   0.955  12.063  0.6288 -0.4713  0.3602
 7642TIP3    H244418   5.328   0.899  12.056  0.7906 -0.8348  0.0445
 7643TIP3   OH244419   6.698   2.315  16.277 -0.0113  0.4261 -0.9777
 7643TIP3    H144420   6.778   2.364  16.256  0.1680 -0.5892 -2.7881
 7643TIP3    H244421   6.708   2.233  16.229 -0.0156 -1.6745  2.4591
 7644TIP3   OH244422   0.584   6.647   0.126  0.4364 -0.2692  1.1203
 7644TIP3    H144423   0.523   6.720   0.120  2.1435  1.1664  0.6780
 7644TIP3    H244424   0.531   6.569   0.108 -1.6940  0.7076  2.9416
 7645TIP3   OH244425   1.607   2.527   0.374  0.0718 -0.4967 -0.0247
 7645TIP3    H144426   1.522   2.482   0.371 -0.1991  0.0409 -0.4022
 7645TIP3    H244427   1.619   2.563   0.287 -0.9102  2.3561  0.9642
 7646TIP3   OH244428   2.984   5.970   2.060  0.1580 -0.4492  0.2421
 7646TIP3    H144429   3.066   6.003   2.024 -0.2675 -1.4378 -1.7332
 7646TIP3    H244430   2.970   6.021   2.140  1.7515  1.0056 -0.3773
 7647TIP3   OH244431   3.386   2.539  12.769 -0.1612  0.2994 -0.6263
 7647TIP3    H144432   3.384   2.459  12.821 -0.7213  1.3356  0.9586
 7647TIP3    H244433   3.328   2.521  12.695 -1.7928 -0.0852  0.7315
 7648TIP3   OH244434   4.066   4.867  11.982  0.3614  0.0482  0.2499
 7648TIP3    H144435   4.040   4.909  12.064  0.1860  1.3634 -0.4653
 7648TIP3    H244436   4.161   4.875  11.979  0.2947  0.7578 -0.0704
 7649TIP3   OH244437   1.602   1.658  13.942  0.3526 -0.0227  0.2200
 7649TIP3    H144438   1.524   1.713  13.929 -0.4112 -1.3793 -1.0679
 7649TIP3    H244439   1.674   1.710  13.906  0.0983  1.3757  1.7120
 7650TIP3   OH244440   0.562   6.009  11.858 -0.1740  0.2076  0.3864
 7650TIP3    H144441   0.567   5.916  11.884 -1.3972  0.2570  0.8218
 7650TIP3    H244442   0.552   6.007  11.763  0.1007 -0.1037  0.3631
 7651TIP3   OH244443   6.487   1.949  10.909 -0.0241  1.0011 -0.3681
 7651TIP3    H144444   6.520   1.911  10.991 -1.0842 -0.2720 -0.5115
 7651TIP3    H244445   6.555   1.932  10.845  0.9105  2.1999  0.2865
 7652TIP3   OH244446   0.282   0.888   0.391 -1.0745 -0.0251 -0.3729
 7652TIP3    H144447   0.308   0.920   0.477  3.8557 -2.1619 -0.8778
 7652TIP3    H244448   0.275   0.793   0.403 -0.9110 -0.2729 -2.1908
 7653TIP3   OH244449   4.267   2.697  13.224  0.0604  0.0801 -0.3905
 7653TIP3    H144450   4.334   2.635  13.193 -0.1010  0.9545 -2.5509
 7653TIP3    H244451   4.184   2.650  13.213  0.1858 -0.5033  1.0286
 7654TIP3   OH244452   6.633   3.593  12.122  0.1684 -0.6088 -0.2236
 7654TIP3    H144453   6.547   3.577  12.160  0.2291 -0.4677 -0.0250
 7654TIP3    H244454   6.695   3.571  12.192  0.2632  0.0808 -0.0904
 7655TIP3   OH244455   3.823   4.726   5.193  0.2005 -0.3090 -0.5638
 7655TIP3    H144456   3.911   4.727   5.230 -0.3062 -0.0607  0.6441
 7655TIP3    H244457   3.835   4.688   5.105  1.3965 -0.9357 -0.1448
 7656TIP3   OH244458   6.102   0.580  13.564 -0.5011  0.0736  0.5578
 7656TIP3    H144459   6.088   0.489  13.537 -0.2741  0.9633 -2.7118
 7656TIP3    H244460   6.038   0.630  13.514  0.3535  1.8593  1.2369
 7657TIP3   OH244461   6.005   0.152  15.402 -0.2505  0.0297  0.6932
 7657TIP3    H144462   5.971   0.101  15.328  1.7271 -0.0317 -0.2358
 7657TIP3    H244463   6.076   0.097  15.437  0.8019  1.3905  0.7255
 7658TIP3   OH244464   5.996   0.625  12.254 -0.0691 -0.6147  0.2104
 7658TIP3    H144465   6.045   0.690  12.305 -0.9769  0.8604 -0.7619
 7658TIP3    H244466   6.029   0.635  12.165 -2.0820  0.3816 -0.4543
 7659TIP3   OH244467   2.639   1.423   0.006  0.4771 -0.3067  0.3560
 7659TIP3    H144468   2.709   1.482   0.033 -0.0664 -0.0969  1.3482
 7659TIP3    H244469   2.559   1.476   0.013 -0.1336 -1.4312  2.2145
 7660TIP3   OH244470   0.168   4.132  11.542  0.2656 -0.1685 -0.4301
 7660TIP3    H144471   0.201   4.062  11.486 -1.2173 -1.5126  0.3073
 7660TIP3    H244472   0.075   4.112  11.553  0.0703  1.2592  0.7811
 7661TIP3   OH244473   5.611   5.871   2.077 -0.3788 -0.1891 -0.2011
 7661TIP3    H144474   5.659   5.950   2.052 -0.4440  0.2620  1.0843
 7661TIP3    H244475   5.565   5.895   2.157 -0.9463 -1.3225 -0.1809
 7662TIP3   OH244476   3.545   0.926  10.772 -0.3381 -0.1326  0.4324
 7662TIP3    H144477   3.574   0.841  10.806 -0.7676  0.4026  2.1795
 7662TIP3    H244478   3.559   0.987  10.845  0.3701  1.3975 -0.9366
 7663TIP3   OH244479   3.981   2.115   2.592  0.3419 -0.2813  0.0813
 7663TIP3    H144480   3.946   2.086   2.508 -1.0880 -1.9063  1.1988
 7663TIP3    H244481   4.065   2.156   2.570 -1.1031  1.4646 -2.3593
 7664TIP3   OH244482   5.848   1.008   2.929 -0.5123 -0.3129 -0.6487
 7664TIP3    H144483   5.778   1.048   2.878 -1.2207  0.2668  0.7534
 7664TIP3    H244484   5.874   0.931   2.879 -3.3953 -1.5726 -0.3192
 7665TIP3   OH244485   6.710   5.176   4.854  0.4066  0.4136  0.1768
 7665TIP3    H144486   6.686   5.109   4.790  1.1676  1.9873 -1.8361
 7665TIP3    H244487   6.626   5.205   4.890 -0.0625 -0.2997 -0.3149
 7666TIP3   OH244488   0.586   6.534   3.246  0.5834  0.0666 -0.0237
 7666TIP3    H144489   0.635   6.615   3.228  0.7039  0.2946  1.3052
 7666TIP3    H244490   0.641   6.465   3.210  1.3820  0.4162  0.4977
 7667TIP3   OH244491   4.024   2.368   4.208 -0.2888 -0.0326  0.2819
 7667TIP3    H144492   4.047   2.339   4.120 -1.9301  0.1448 -0.2340
 7667TIP3    H244493   4.107   2.394   4.248  0.4300  0.2054 -1.3320
 7668TIP3   OH244494   2.290   4.398  13.572 -0.1341  0.2821  0.0288
 7668TIP3    H144495   2.292   4.420  13.665  0.8574  1.7685 -0.3282
 7668TIP3    H244496   2.218   4.450  13.536 -0.6794 -0.4810  0.0067
 7669TIP3   OH244497   5.241   3.323  13.939 -0.0013 -0.2430 -0.0353
 7669TIP3    H144498   5.266   3.245  13.988 -0.8499 -0.5417 -0.0691
 7669TIP3    H244499   5.307   3.330  13.870  0.0176 -0.9950 -0.0997
 7670TIP3   OH244500   1.342   4.209  14.323  0.0418 -0.5104  0.0087
 7670TIP3    H144501   1.279   4.258  14.270 -0.4473 -0.5341  0.5644
 7670TIP3    H244502   1.306   4.212  14.412  0.6617 -0.7937  0.2713
 7671TIP3   OH244503   1.573   2.836   4.142 -0.1055  0.0656  0.0172
 7671TIP3    H144504   1.555   2.879   4.226 -2.1019  0.8689 -0.7872
 7671TIP3    H244505   1.620   2.901   4.091  1.5404 -0.5914  0.6493
 7672TIP3   OH244506   5.640   5.468   6.086 -0.5533 -0.2480 -0.2760
 7672TIP3    H144507   5.718   5.522   6.078 -1.2362  0.7639 -0.3072
 7672TIP3    H244508   5.642   5.410   6.010  0.4882 -0.6654  0.0706
 7673TIP3   OH244509   6.109   0.705  15.958  0.2713 -0.0221 -0.0331
 7673TIP3    H144510   6.187   0.760  15.970 -0.0111  0.2848  0.4268
 7673TIP3    H244511   6.124   0.659  15.876  1.3029 -0.5519  0.4416
 7674TIP3   OH244512   2.110   0.751  15.051 -0.0106  0.9335  0.3014
 7674TIP3    H144513   2.092   0.698  14.974 -2.4666  2.3419 -0.1413
 7674TIP3    H244514   2.193   0.795  15.031  2.3240 -2.9678  0.8824
 7675TIP3   OH244515   0.020   4.323   3.019 -0.3138  0.5980 -0.2114
 7675TIP3    H144516  -0.038   4.391   2.985 -1.9069 -0.6825 -0.0545
 7675TIP3    H244517   0.097   4.372   3.051 -0.1971  2.0759 -2.6393
 7676TIP3   OH244518   1.143   1.455   3.647 -0.5085  0.1697 -0.3023
 7676TIP3    H144519   1.234   1.465   3.674 -0.4116 -1.0519 -0.1361
 7676TIP3    H244520   1.092   1.480   3.724 -0.3081  0.2747 -0.2030
 7677TIP3   OH244521   5.762   1.416  16.456  0.3661  0.4511 -0.1081
 7677TIP3    H144522   5.682   1.470  16.452 -0.8582 -1.3650 -0.6165
 7677TIP3    H244523   5.740   1.345  16.515  1.3093 -0.5796 -0.9822
 7678TIP3   OH244524   4.740   2.130   0.516 -0.3012 -0.4187  0.1133
 7678TIP3    H144525   4.807   2.177   0.566 -0.3617 -0.0905 -0.1106
 7678TIP3    H244526   4.665   2.190   0.513 -0.2851 -0.4225 -0.3959
 7679TIP3   OH244527   1.816   0.437  16.336 -0.1192  0.6261 -0.2999
 7679TIP3    H144528   1.846   0.425  16.426  0.3976 -1.1634 -0.6776
 7679TIP3    H244529   1.720   0.432  16.341 -0.0674 -0.0508  0.0911
 7680TIP3   OH244530   4.397   0.872  14.406 -0.1322 -0.2192 -0.0370
 7680TIP3    H144531   4.434   0.838  14.487 -0.3335 -1.2932 -0.3865
 7680TIP3    H244532   4.311   0.831  14.400 -0.8294  1.2029  0.0747
 7681TIP3   OH244533   4.275   6.558  13.347  0.1781  0.4317 -0.0691
 7681TIP3    H144534   4.342   6.573  13.413 -0.5373 -0.0053  0.7727
 7681TIP3    H244535   4.308   6.601  13.269  1.2335  0.5924  0.4599
 7682TIP3   OH244536   6.472   5.531   0.668  0.3170 -0.0666 -0.1117
 7682TIP3    H144537   6.427   5.465   0.614 -2.1866  0.8639  0.7801
 7682TIP3    H244538   6.564   5.526   0.640 -0.2884 -2.1333 -1.8681
 7683TIP3   OH244539   2.384   1.202  13.005 -0.5794  0.3945  0.1026
 7683TIP3    H144540   2.361   1.285  12.963 -0.1858  0.4905  0.0721
 7683TIP3    H244541   2.330   1.198  13.083 -0.4680  0.7634  0.1971
 7684TIP3   OH244542   2.733   5.805   5.412  0.3675 -0.4588 -0.3510
 7684TIP3    H144543   2.703   5.850   5.491 -1.0518  0.0369 -1.1479
 7684TIP3    H244544   2.826   5.830   5.404  0.0502  0.9687  0.1645
 7685TIP3   OH244545   5.590   2.242   5.444 -0.2326 -0.2660  0.2784
 7685TIP3    H144546   5.615   2.208   5.530 -1.4776 -0.2389  0.6593
 7685TIP3    H244547   5.639   2.324   5.436  1.3034 -1.1852  0.1666
 7686TIP3   OH244548   0.683   0.368   1.541  0.4274  0.7264  0.1475
 7686TIP3    H144549   0.742   0.294   1.559 -0.1613  0.2912  0.3070
 7686TIP3    H244550   0.616   0.362   1.609 -1.4886 -0.5856 -1.7800
 7687TIP3   OH244551   4.194   5.484  14.035 -0.7123  0.4927  0.3847
 7687TIP3    H144552   4.240   5.561  14.069 -1.4300  0.7504  0.7893
 7687TIP3    H244553   4.165   5.437  14.113  1.3399 -1.1878  0.1641
 7688TIP3   OH244554   2.038   3.343   3.526  0.1794  0.0217  0.6064
 7688TIP3    H144555   2.098   3.364   3.598  0.8658  0.9614 -0.2319
 7688TIP3    H244556   2.094   3.341   3.448 -0.2974 -2.4092  0.2792
 7689TIP3   OH244557   6.141   4.786  11.526 -0.4237 -0.4541 -0.5485
 7689TIP3    H144558   6.219   4.756  11.480 -0.8124 -1.3267 -0.6527
 7689TIP3    H244559   6.112   4.710  11.577 -0.4402  0.2603  0.5429
 7690TIP3   OH244560   0.165   6.198   3.083 -0.2139  0.2306  0.6168
 7690TIP3    H144561   0.254   6.183   3.052 -0.1892  1.6096 -0.0521
 7690TIP3    H244562   0.125   6.111   3.087  0.0408 -0.1089 -2.5918
 7691TIP3   OH244563   6.641   5.809   3.953  0.6613 -0.5555  0.2864
 7691TIP3    H144564   6.638   5.828   4.047  0.2489 -2.0202  0.5809
 7691TIP3    H244565   6.614   5.891   3.911  1.6978  0.3890  1.4046
 7692TIP3   OH244566   0.147   6.570  12.747 -0.0736  0.2771  0.1178
 7692TIP3    H144567   0.186   6.525  12.822 -0.7606  0.3584  0.5396
 7692TIP3    H244568   0.209   6.557  12.676  0.4961  0.0243  0.6499
 7693TIP3   OH244569   6.664   2.133   1.493  0.2998 -0.0529 -0.3190
 7693TIP3    H144570   6.633   2.101   1.578  1.1466  1.0242  0.4077
 7693TIP3    H244571   6.731   2.070   1.467  0.0111 -0.4089 -0.2078
 7694TIP3   OH244572   3.153   5.881   0.860  0.4530  0.1008  0.6326
 7694TIP3    H144573   3.122   5.860   0.948  2.6606  1.2571  1.7309
 7694TIP3    H244574   3.157   5.977   0.857 -0.4508  0.1130 -1.0455
 7695TIP3   OH244575   5.774   2.480  13.119  0.1102 -0.7592 -0.0058
 7695TIP3    H144576   5.768   2.559  13.172  1.3226 -0.9014  0.3418
 7695TIP3    H244577   5.725   2.414  13.169 -1.3474 -0.1051 -0.5513
 7696TIP3   OH244578   2.063   0.620   4.207  0.2511  0.0546 -0.4900
 7696TIP3    H144579   2.079   0.715   4.204  1.6977  0.1329  4.7225
 7696TIP3    H244580   2.144   0.580   4.176  0.3319  0.5423 -0.9046
 7697TIP3   OH244581   4.457   1.122  14.760  0.2276 -0.3012 -0.3005
 7697TIP3    H144582   4.383   1.078  14.802 -1.1118  0.7646 -1.4914
 7697TIP3    H244583   4.525   1.124  14.827 -1.5864  0.6412  1.5448
 7698TIP3   OH244584   0.261   0.822   4.635 -0.1930  0.2171 -0.0190
 7698TIP3    H144585   0.165   0.812   4.637 -0.0985 -1.2783 -1.5182
 7698TIP3    H244586   0.280   0.856   4.547  0.6563  0.3682  0.2217
 7699TIP3   OH244587   5.714   2.880  11.689  0.3333  0.0083  0.3527
 7699TIP3    H144588   5.624   2.897  11.717  0.4770  1.2603  0.0577
 7699TIP3    H244589   5.763   2.957  11.717  1.0750 -0.1001 -0.6114
 7700TIP3   OH244590   0.533   0.173  16.363  0.5304 -0.4715  0.8684
 7700TIP3    H144591   0.598   0.150  16.429  2.0869  0.9995 -0.1285
 7700TIP3    H244592   0.584   0.205  16.288 -1.3049  0.2424 -0.1080
 7701TIP3   OH244593   4.421   0.982  11.856 -0.0457 -0.6650 -0.0268
 7701TIP3    H144594   4.517   0.979  11.861 -0.0818  0.2073  1.4166
 7701TIP3    H244595   4.391   0.917  11.920 -0.4227 -1.6789 -1.2167
 7702TIP3   OH244596   4.125   6.287  17.233 -0.0235  0.2114  0.1785
 7702TIP3    H144597   4.090   6.249  17.152 -0.5581  1.4893 -0.2107
 7702TIP3    H244598   4.081   6.238  17.303  1.0558 -1.4511 -0.2865
 7703TIP3   OH244599   1.670   3.500  11.576 -0.3779 -0.3042 -0.3586
 7703TIP3    H144600   1.645   3.575  11.523 -1.1188 -1.0329 -1.0579
 7703TIP3    H244601   1.613   3.504  11.652  0.6423  0.7065  0.3702
 7704TIP3   OH244602   6.513   5.151   3.172  0.2192 -0.4145  0.9029
 7704TIP3    H144603   6.425   5.188   3.175  0.1224 -0.6343  0.7973
 7704TIP3    H244604   6.570   5.226   3.154 -0.0801 -0.4794 -0.3327
 7705TIP3   OH244605   1.567   2.216  12.863  0.1158 -0.3208 -0.4214
 7705TIP3    H144606   1.513   2.147  12.825 -0.6224  1.1855 -2.2285
 7705TIP3    H244607   1.509   2.260  12.925  0.1291 -0.4543 -0.3170
 7706TIP3   OH244608   2.310   2.362   4.406  0.5056  0.9202  0.0359
 7706TIP3    H144609   2.267   2.435   4.450  1.1213  1.6381 -0.5534
 7706TIP3    H244610   2.297   2.288   4.465  0.4123  1.6404  0.9254
 7707TIP3   OH244611   3.223   0.896  14.405  0.1645 -0.1516 -0.2177
 7707TIP3    H144612   3.166   0.901  14.329  1.7285 -0.5541 -1.4431
 7707TIP3    H244613   3.168   0.922  14.479 -1.6344 -0.7285 -1.3416
 7708TIP3   OH244614   2.799   0.235   2.504  0.0925  0.4217 -0.3834
 7708TIP3    H144615   2.875   0.284   2.472  0.3640  0.2358 -0.0351
 7708TIP3    H244616   2.796   0.156   2.450  1.5897 -0.7411  1.1638
 7709TIP3   OH244617   1.810   2.791  16.568 -0.0243  0.5311  0.4933
 7709TIP3    H144618   1.790   2.858  16.503  1.1273 -0.1722 -0.5948
 7709TIP3    H244619   1.890   2.821  16.611 -0.6655  0.8904  1.4861
 7710TIP3   OH244620   4.159   4.107   2.119 -0.6155  0.7803 -0.0025
 7710TIP3    H144621   4.239   4.148   2.086  0.2634 -0.6188  0.3533
 7710TIP3    H244622   4.102   4.100   2.043  1.1573 -1.8909 -1.1534
 7711TIP3   OH244623   0.973   0.861  13.575  0.0404 -0.9667 -0.4836
 7711TIP3    H144624   0.928   0.878  13.658 -0.2526 -0.4256 -0.7481
 7711TIP3    H244625   0.990   0.767  13.575 -0.2615 -1.0213  0.0355
 7712TIP3   OH244626   5.614   4.543   6.036 -0.4055 -0.2833  0.1304
 7712TIP3    H144627   5.609   4.540   6.132  3.2810 -0.7558  0.3705
 7712TIP3    H244628   5.651   4.458   6.011  0.1612  0.4535 -1.5862
 7713TIP3   OH244629   0.026   2.087   5.905 -0.1625  0.4824  0.2736
 7713TIP3    H144630   0.084   2.052   5.972 -1.2583  1.2432  1.6463
 7713TIP3    H244631  -0.016   2.163   5.946  1.2702  2.7211 -2.2290
 7714TIP3   OH244632   1.669   3.527  14.958  0.0734 -0.3648  0.3965
 7714TIP3    H144633   1.654   3.621  14.948 -0.8666 -0.6495 -0.9582
 7714TIP3    H244634   1.749   3.522  15.010 -0.7933  1.1773  1.9547
 7715TIP3   OH244635   3.615   5.225  12.913  0.1390  0.0830 -0.3276
 7715TIP3    H144636   3.556   5.190  12.845 -2.0904  1.0848  1.0413
 7715TIP3    H244637   3.595   5.319  12.916  0.3279  0.0836  1.5665
 7716TIP3   OH244638   4.237   5.609   0.548 -0.3435  0.2267 -0.3503
 7716TIP3    H144639   4.172   5.660   0.596 -1.4839 -1.0210 -0.5542
 7716TIP3    H244640   4.255   5.534   0.604  0.4289  0.2199 -0.5974
 7717TIP3   OH244641   4.740   0.745  16.673  0.3993  0.2217  0.5506
 7717TIP3    H144642   4.662   0.697  16.647 -0.4791  1.8109  0.1329
 7717TIP3    H244643   4.708   0.834  16.692  1.9205  0.5774  1.5321
 7718TIP3   OH244644   2.522   2.126  13.169 -0.2307 -0.1768 -0.6923
 7718TIP3    H144645   2.466   2.141  13.245 -0.0704  0.3470 -0.6727
 7718TIP3    H244646   2.557   2.213  13.148  1.5492 -0.6966  0.0412
 7719TIP3   OH244647   5.809   1.171  14.540  0.6830  0.2242 -0.6889
 7719TIP3    H144648   5.742   1.230  14.507  0.4799  0.3826 -0.0095
 7719TIP3    H244649   5.786   1.086  14.505  0.4481  0.3834 -0.9207
 7720TIP3   OH244650   6.022   0.808  10.700 -0.2940  0.2919 -0.2653
 7720TIP3    H144651   6.018   0.813  10.604  0.3169  2.1516 -0.2185
 7720TIP3    H244652   6.020   0.900  10.729 -1.0715 -0.2706  1.5336
 7721TIP3   OH244653   5.320   5.003   0.159  0.1540  0.0358  0.6770
 7721TIP3    H144654   5.295   5.002   0.251 -0.2817 -2.3083  0.5574
 7721TIP3    H244655   5.405   4.959   0.158 -0.5769 -1.3817 -0.2211
 7722TIP3   OH244656   5.642   0.777  12.198 -0.1131  0.6208  0.1687
 7722TIP3    H144657   5.551   0.792  12.172  0.2099  0.7118 -0.9750
 7722TIP3    H244658   5.682   0.734  12.121  0.7671  0.4626  0.7038
 7723TIP3   OH244659   4.834   5.215  16.021  0.5468 -0.0521  0.7067
 7723TIP3    H144660   4.895   5.262  15.964  0.0117 -2.5168 -1.9796
 7723TIP3    H244661   4.752   5.262  16.011  1.1180  1.1759  1.6256
 7724TIP3   OH244662   1.504   5.909   5.978  0.2329 -0.1679 -0.0738
 7724TIP3    H144663   1.526   5.870   5.894 -0.6454 -1.2555  0.1900
 7724TIP3    H244664   1.553   5.991   5.980 -1.4565  0.9606 -2.5994
 7725TIP3   OH244665   4.479   2.685   5.887  0.0706 -0.1620  0.4868
 7725TIP3    H144666   4.537   2.626   5.935  0.2613  0.2477  0.7629
 7725TIP3    H244667   4.479   2.651   5.797  2.3754  1.0100 -0.0104
 7726TIP3   OH244668   6.074   5.838   2.167  0.6386  0.0266 -0.1254
 7726TIP3    H144669   6.111   5.900   2.104 -0.8984 -0.7793 -1.8898
 7726TIP3    H244670   6.149   5.808   2.218  1.7662  1.4786 -0.8979
 7727TIP3   OH244671   6.630   0.987   3.012  0.1726  0.0539 -0.0008
 7727TIP3    H144672   6.615   1.009   2.920 -0.8359  0.6014  0.2818
 7727TIP3    H244673   6.670   0.900   3.010 -0.5816 -0.2804 -0.9360
 7728TIP3   OH244674   1.789   6.643  11.632  0.1983  0.0437 -0.0166
 7728TIP3    H144675   1.763   6.696  11.556  0.9660  0.2359 -0.1398
 7728TIP3    H244676   1.706   6.604  11.662 -0.0204 -0.5675 -1.3621
 7729TIP3   OH244677   6.012   1.112  11.335  0.0091 -0.4971  0.0611
 7729TIP3    H144678   6.043   1.197  11.304 -0.6610  0.3823  1.7275
 7729TIP3    H244679   5.917   1.114  11.322 -0.1478 -0.5449  1.0987
 7730TIP3   OH244680   5.793   3.140   2.076 -0.3092  0.5267  0.0904
 7730TIP3    H144681   5.731   3.198   2.120 -1.8704 -1.5375  0.6533
 7730TIP3    H244682   5.749   3.113   1.996 -0.4144 -1.4352  0.7843
 7731TIP3   OH244683   3.339   0.597   2.513  0.0056 -0.2914  0.0481
 7731TIP3    H144684   3.427   0.634   2.510  1.5919 -3.6350  2.3804
 7731TIP3    H244685   3.340   0.527   2.447 -0.2116 -1.7329  1.5648
 7732TIP3   OH244686   1.982   3.943   4.715 -0.2796  0.2977 -0.1692
 7732TIP3    H144687   1.966   3.943   4.809 -1.6984  2.0539 -0.4023
 7732TIP3    H244688   1.983   3.850   4.691 -2.7220 -0.0759  1.1078
 7733TIP3   OH244689   0.039   2.126  10.785 -0.1841 -0.3599  0.2195
 7733TIP3    H144690   0.001   2.054  10.836 -0.2832 -0.2782  0.2599
 7733TIP3    H244691   0.028   2.203  10.841  0.3417 -0.3957  0.3763
 7734TIP3   OH244692   0.395   3.362   1.248 -0.0445 -0.2671  0.0267
 7734TIP3    H144693   0.471   3.411   1.279 -0.8761  0.6969  0.6159
 7734TIP3    H244694   0.403   3.362   1.153  2.1934 -2.6740  0.1690
 7735TIP3   OH244695   0.757   2.872  14.939 -0.0715  0.5590  0.2105
 7735TIP3    H144696   0.801   2.792  14.968  0.2320  0.8351  0.5115
 7735TIP3    H244697   0.753   2.927  15.017  1.6602  1.7291 -0.5098
 7736TIP3   OH244698   0.176   5.193   1.871 -0.6569 -0.3032  0.2486
 7736TIP3    H144699   0.099   5.147   1.839  0.3239 -1.8497  0.0678
 7736TIP3    H244700   0.226   5.126   1.917  0.0665  0.9272  1.2798
 7737TIP3   OH244701   4.707   3.824   1.426  1.0288  0.6963  0.4686
 7737TIP3    H144702   4.650   3.761   1.381  0.7379  0.7956  0.7018
 7737TIP3    H244703   4.783   3.833   1.367  0.9927  0.2584  0.3539
 7738TIP3   OH244704   4.132   4.327  12.412  0.6649 -0.1277  0.3432
 7738TIP3    H144705   4.141   4.421  12.397 -1.7558  0.3425  1.6024
 7738TIP3    H244706   4.162   4.286  12.331  0.5828  1.7892 -0.6659
 7739TIP3   OH244707   4.530   2.292   0.604 -0.2137 -0.0318 -0.1312
 7739TIP3    H144708   4.596   2.335   0.658 -0.3918 -0.0230  0.0819
 7739TIP3    H244709   4.448   2.336   0.627 -0.2105  0.3121 -0.7813
 7740TIP3   OH244710   1.540   2.599   6.126 -0.0735  0.1120  0.3635
 7740TIP3    H144711   1.475   2.572   6.190 -1.2142  1.3342 -0.2477
 7740TIP3    H244712   1.624   2.592   6.172 -0.7772 -0.0609  1.6315
 7741TIP3   OH244713   1.995   4.280  14.541 -0.4465  0.7031  0.2835
 7741TIP3    H144714   1.951   4.227  14.474 -1.1214 -1.4436  2.3566
 7741TIP3    H244715   2.080   4.300  14.502 -0.0358 -2.2051 -0.5068
 7742TIP3   OH244716   5.555   2.432   1.392  0.3577  0.0338 -0.1713
 7742TIP3    H144717   5.562   2.433   1.297  1.1202 -0.4180 -0.1259
 7742TIP3    H244718   5.584   2.344   1.418 -0.2264  0.0178  0.4498
 7743TIP3   OH244719   4.702   6.504  15.544  0.0131 -0.7901 -0.4229
 7743TIP3    H144720   4.756   6.508  15.623 -1.4317 -1.3404  0.6143
 7743TIP3    H244721   4.622   6.551  15.567  0.0094 -0.0410 -1.9167
 7744TIP3   OH244722   1.495   3.359  11.359  0.0185  0.8078 -0.2731
 7744TIP3    H144723   1.408   3.321  11.366 -0.2985  1.6750  0.7328
 7744TIP3    H244724   1.551   3.301  11.412  0.0253  0.3579 -0.7672
 7745TIP3   OH244725   2.666   1.062   3.178  0.1591  0.0699 -0.0911
 7745TIP3    H144726   2.688   1.155   3.187 -1.2318  0.3917  0.1564
 7745TIP3    H244727   2.622   1.056   3.093 -0.2712 -0.2532  0.1518
 7746TIP3   OH244728   1.408   4.865  12.132 -0.5975  0.0954 -0.0070
 7746TIP3    H144729   1.471   4.915  12.183 -0.6941  0.1931  0.0170
 7746TIP3    H244730   1.334   4.925  12.120 -0.0909  0.4741 -1.2589
 7747TIP3   OH244731   6.275   5.221  12.097 -0.0865  0.1163 -0.1792
 7747TIP3    H144732   6.200   5.274  12.125  0.0481 -0.2543  0.9245
 7747TIP3    H244733   6.329   5.213  12.176  0.3573 -0.8772 -0.5737
 7748TIP3   OH244734   1.949   5.796   6.792  0.4345 -0.3642  0.4459
 7748TIP3    H144735   1.960   5.726   6.857  1.0611 -1.9945 -1.3445
 7748TIP3    H244736   2.034   5.803   6.750  0.4569  1.7315  0.8045
 7749TIP3   OH244737   3.683   0.524   5.237 -0.0096 -0.3180  0.1206
 7749TIP3    H144738   3.759   0.582   5.233  1.7617 -2.2197  3.7529
 7749TIP3    H244739   3.708   0.449   5.184 -2.0699  1.7708 -4.0858
 7750TIP3   OH244740   4.750   4.404  12.962  0.4833 -0.0320  0.1334
 7750TIP3    H144741   4.734   4.376  13.052  1.0945 -0.2995  0.1587
 7750TIP3    H244742   4.663   4.404  12.921  0.0899  0.8671  0.9378
 7751TIP3   OH244743   5.268   0.903  16.010 -0.4199 -0.3664 -0.3621
 7751TIP3    H144744   5.217   0.984  16.003 -0.1015 -0.0684  0.7504
 7751TIP3    H244745   5.211   0.836  15.972 -1.7652 -0.0825  1.0976
 7752TIP3   OH244746   0.511   5.810   3.907 -0.6858 -0.0316  0.1786
 7752TIP3    H144747   0.449   5.780   3.840 -0.8181 -0.5263  0.5267
 7752TIP3    H244748   0.563   5.733   3.928 -0.4114  0.2144  0.3991
 7753TIP3   OH244749   1.788   1.907  15.942 -0.4546  0.1795  0.0417
 7753TIP3    H144750   1.787   1.889  16.036  0.7644  4.5215  1.0070
 7753TIP3    H244751   1.714   1.968  15.929  0.0764  0.4879 -1.5867
 7754TIP3   OH244752   6.275   4.888  12.065 -0.5270 -0.0357  0.2190
 7754TIP3    H144753   6.271   4.919  12.155 -0.1385  0.5331  0.0359
 7754TIP3    H244754   6.249   4.963  12.012 -0.7011 -0.3516 -0.1494
 7755TIP3   OH244755   1.646   0.685   3.803  0.2927 -0.8134 -0.1869
 7755TIP3    H144756   1.691   0.737   3.736  0.1191 -0.0728  0.2719
 7755TIP3    H244757   1.633   0.746   3.875 -3.0231 -0.5306 -0.9709
 7756TIP3   OH244758   6.504   3.127  14.974  0.3023 -0.0693 -0.7972
 7756TIP3    H144759   6.438   3.069  14.935 -0.4441  0.0311  0.2874
 7756TIP3    H244760   6.537   3.178  14.901 -1.5425  0.5779 -1.2177
 7757TIP3   OH244761   5.818   6.803  11.290  0.5291  0.3454 -0.4630
 7757TIP3    H144762   5.853   6.823  11.203  0.5424 -1.9091 -0.9942
 7757TIP3    H244763   5.772   6.720  11.279  0.5793  0.0096  1.7041
 7758TIP3   OH244764   3.737   3.937   1.985  0.3820 -0.5180 -0.7049
 7758TIP3    H144765   3.699   4.017   2.022  0.5600 -0.9699  0.4541
 7758TIP3    H244766   3.668   3.902   1.928  0.5229  0.7731 -1.6953
 7759TIP3   OH244767   5.552   3.557  15.484 -0.4954  0.2215  0.1576
 7759TIP3    H144768   5.575   3.474  15.443  0.4602 -0.1464  1.4360
 7759TIP3    H244769   5.549   3.539  15.578  0.1171  1.7153  0.4865
 7760TIP3   OH244770   4.371   6.041  15.729  0.0094 -0.8192 -0.7307
 7760TIP3    H144771   4.277   6.054  15.720 -0.1277 -1.7433 -0.6357
 7760TIP3    H244772   4.403   6.030  15.639  0.1280  0.1062 -0.8142
 7761TIP3   OH244773   4.682   1.480  16.086  0.4960  0.1307 -0.9345
 7761TIP3    H144774   4.631   1.444  16.013 -0.9381  1.6478 -0.7281
 7761TIP3    H244775   4.686   1.574  16.068  0.5917  0.4437  0.6478
 7762TIP3   OH244776   6.570   3.003   1.016  0.5826 -0.0951  0.4385
 7762TIP3    H144777   6.650   3.032   0.972  0.4214 -0.7541 -0.2986
 7762TIP3    H244778   6.573   2.907   1.011  0.7692 -0.2104  2.2373
 7763TIP3   OH244779   0.733   3.923   3.686 -0.3413 -0.2345  0.0295
 7763TIP3    H144780   0.753   3.989   3.753  1.2582 -1.2574  0.5806
 7763TIP3    H244781   0.702   3.847   3.735  3.3705 -1.9555 -0.0934
 7764TIP3   OH244782   4.718   0.214   2.156  0.0410 -0.2970 -0.0103
 7764TIP3    H144783   4.720   0.271   2.232 -0.3680  0.9318 -0.9154
 7764TIP3    H244784   4.635   0.234   2.113  0.5821 -0.4974 -1.1536
 7765TIP3   OH244785   4.005   5.480   3.780  0.4272  0.1394  0.3501
 7765TIP3    H144786   4.087   5.528   3.779 -0.4751  1.6795 -0.8796
 7765TIP3    H244787   3.967   5.493   3.693 -0.0136 -2.5086  0.0788
 7766TIP3   OH244788   2.090   5.741  12.075  0.4785 -0.6844  0.4183
 7766TIP3    H144789   2.148   5.669  12.099 -0.0173 -0.6889  1.6690
 7766TIP3    H244790   2.134   5.785  12.003  2.4022 -0.2343  1.8356
 7767TIP3   OH244791   5.598   4.357   5.224 -0.1951 -1.0821  0.4942
 7767TIP3    H144792   5.617   4.339   5.132 -0.3637  0.0533  0.2358
 7767TIP3    H244793   5.614   4.450   5.234  0.5251 -1.3476  1.8014
 7768TIP3   OH244794   4.446   2.627   2.480  0.4203  0.2809 -0.0245
 7768TIP3    H144795   4.470   2.664   2.565 -0.4337  1.0929 -0.1200
 7768TIP3    H244796   4.472   2.693   2.416 -3.1162  1.8013 -0.0403
 7769TIP3   OH244797   0.360   4.690  12.949  0.2572 -0.1760 -0.4541
 7769TIP3    H144798   0.393   4.700  12.859  1.4584 -0.6121 -0.0656
 7769TIP3    H244799   0.438   4.683  13.003 -0.4204  2.1781  0.9076
 7770TIP3   OH244800   6.496   3.322  13.491  0.6389 -0.4630  0.2988
 7770TIP3    H144801   6.491   3.328  13.586 -1.2700 -0.7820  0.2358
 7770TIP3    H244802   6.525   3.233  13.474 -0.7722 -0.9932  0.5663
 7771TIP3   OH244803   6.228   5.962  16.057  0.7400 -0.0908 -0.2144
 7771TIP3    H144804   6.267   6.007  15.982  1.9160  0.3888  0.6515
 7771TIP3    H244805   6.134   5.960  16.039  0.7760  1.8824 -0.7177
 7772TIP3   OH244806   0.728   1.406   2.059 -0.4063 -0.2735 -0.3807
 7772TIP3    H144807   0.701   1.336   2.119 -0.8264  1.4710  1.5265
 7772TIP3    H244808   0.762   1.475   2.116 -0.0322  1.1022 -2.2088
 7773TIP3   OH244809   3.677   2.879  10.696  0.4525  0.0792 -0.1420
 7773TIP3    H144810   3.603   2.901  10.640  1.1232  1.2930 -0.5822
 7773TIP3    H244811   3.725   2.962  10.705  0.9421 -0.3659  1.3338
 7774TIP3   OH244812   4.536   3.621  12.551  0.3258  0.2317  0.7861
 7774TIP3    H144813   4.550   3.578  12.635  0.8104 -1.9492 -0.3819
 7774TIP3    H244814   4.445   3.602  12.529  0.9170 -1.3609 -0.3564
 7775TIP3   OH244815   2.839   4.430  14.914  0.0968 -0.2376  0.3014
 7775TIP3    H144816   2.902   4.413  14.984 -0.3249 -0.3870  0.6423
 7775TIP3    H244817   2.757   4.449  14.959  0.3008  1.6765 -0.0870
 7776TIP3   OH244818   5.719   4.463   3.928 -0.2272  0.5604 -0.1481
 7776TIP3    H144819   5.787   4.445   3.992 -0.5194 -1.4371 -0.3902
 7776TIP3    H244820   5.708   4.381   3.880 -3.1547  0.6930  0.2168
 7777TIP3   OH244821   4.711   2.453  13.352 -0.0259 -0.4719  0.0230
 7777TIP3    H144822   4.737   2.406  13.432 -1.8558 -0.9864  0.3307
 7777TIP3    H244823   4.719   2.545  13.375  0.8207 -0.6164  0.3384
 7778TIP3   OH244824   1.465   3.164   5.337 -0.8428 -0.3044 -0.1432
 7778TIP3    H144825   1.549   3.208   5.349 -0.8828 -0.8544  2.5872
 7778TIP3    H244826   1.487   3.084   5.290  0.0345  0.0303 -0.3185
 7779TIP3   OH244827   4.896   0.876  10.819 -0.0574  0.2738 -0.1657
 7779TIP3    H144828   4.955   0.806  10.846  0.3032  0.6119 -0.0909
 7779TIP3    H244829   4.940   0.957  10.843 -0.4162  0.5356 -0.3755
 7780TIP3   OH244830   0.719   5.873  17.093 -0.1141  0.2085 -0.7593
 7780TIP3    H144831   0.704   5.809  17.024  1.1191  0.8759 -1.6598
 7780TIP3    H244832   0.806   5.852  17.127 -0.6495 -0.0272  0.5030
 7781TIP3   OH244833   5.369   2.882  15.896  0.3666  0.6122  0.4571
 7781TIP3    H144834   5.344   2.973  15.911 -1.9603  0.1959 -0.7472
 7781TIP3    H244835   5.288   2.832  15.901  1.4802 -1.3084  0.2933
 7782TIP3   OH244836   5.657   6.551  16.985 -0.7937  0.1193  0.6777
 7782TIP3    H144837   5.702   6.521  17.064 -0.0486 -1.2819 -0.2608
 7782TIP3    H244838   5.691   6.495  16.915 -1.2534  1.5117 -0.6872
 7783TIP3   OH244839   4.857   0.328   0.983  0.0063  0.2158  0.0437
 7783TIP3    H144840   4.809   0.360   0.906  0.8007 -0.9625 -0.9724
 7783TIP3    H244841   4.797   0.266   1.024  0.2395 -0.4629 -0.6261
 7784TIP3   OH244842   3.851   2.138   5.992  0.5086  0.2141  0.0555
 7784TIP3    H144843   3.899   2.178   5.920  0.1959  0.1551 -0.1844
 7784TIP3    H244844   3.793   2.208   6.024  0.8842  0.3414  0.4630
 7785TIP3   OH244845   2.366   4.922   4.629 -0.1427  0.3135 -0.2943
 7785TIP3    H144846   2.331   4.865   4.560 -0.7918  0.5424 -0.1671
 7785TIP3    H244847   2.296   4.927   4.694  0.4688  0.1006  0.3878
 7786TIP3   OH244848   0.836   0.993  15.253  0.0609  0.2062  0.5675
 7786TIP3    H144849   0.820   0.924  15.317  0.7328  0.2025  0.7286
 7786TIP3    H244850   0.748   1.027  15.233 -0.3512 -1.1319 -0.0096
 7787TIP3   OH244851   4.336   0.147   1.623 -0.0245 -0.0692  0.1075
 7787TIP3    H144852   4.311   0.156   1.715 -3.7762 -2.0713 -0.5797
 7787TIP3    H244853   4.361   0.055   1.614  0.5939  0.1828 -0.7955
 7788TIP3   OH244854   2.996   1.377   1.621 -0.6112 -0.0522  0.2190
 7788TIP3    H144855   3.091   1.387   1.629 -0.6770  1.5172 -0.7198
 7788TIP3    H244856   2.983   1.336   1.535 -0.8019  0.0909  0.1778
 7789TIP3   OH244857   1.277   1.651  14.955 -0.1419 -0.1274 -0.1572
 7789TIP3    H144858   1.223   1.593  14.901 -0.5519 -1.3318  1.5021
 7789TIP3    H244859   1.292   1.602  15.035 -2.4953  3.0169  2.3140
 7790TIP3   OH244860   4.676   0.934  15.484  0.2646  0.7289  0.5050
 7790TIP3    H144861   4.705   1.008  15.432 -0.4383  0.8478  0.2760
 7790TIP3    H244862   4.739   0.864  15.465 -0.7297  0.3586 -1.5167
 7791TIP3   OH244863   1.635   4.123  17.000 -0.0923 -0.2047  0.2323
 7791TIP3    H144864   1.639   4.104  16.906  0.6657 -0.5596  0.3312
 7791TIP3    H244865   1.551   4.086  17.028  0.5734 -1.8827  0.0732
 7792TIP3   OH244866   2.456   1.940  14.443 -0.4707 -0.6183  0.6233
 7792TIP3    H144867   2.487   1.897  14.523 -1.0157 -0.3070  0.9987
 7792TIP3    H244868   2.363   1.920  14.439 -0.2122 -1.5986 -0.5463
 7793TIP3   OH244869   5.886   4.324  16.108  0.2272 -0.0321 -0.3594
 7793TIP3    H144870   5.877   4.404  16.160 -0.4930 -1.6923  2.1369
 7793TIP3    H244871   5.830   4.340  16.031  0.9256  2.2530 -0.4471
 7794TIP3   OH244872   4.026   3.325  12.783 -0.5864 -0.2933  0.2506
 7794TIP3    H144873   4.065   3.308  12.869  0.1987 -0.1293 -0.0702
 7794TIP3    H244874   4.096   3.367  12.733 -1.0515 -0.3613 -0.4592
 7795TIP3   OH244875   3.738   4.244  11.196  0.7069  0.2199  0.2515
 7795TIP3    H144876   3.802   4.314  11.187  0.1215  0.8146  0.7038
 7795TIP3    H244877   3.708   4.228  11.106 -2.3035  3.5240  0.5344
 7796TIP3   OH244878   1.128   2.569  15.910  0.2065  0.0140  0.7181
 7796TIP3    H144879   1.089   2.656  15.911 -0.0763 -0.1158  1.3468
 7796TIP3    H244880   1.152   2.554  15.819  0.1977  0.7226  0.5973
 7797TIP3   OH244881   2.609   1.095   2.893 -0.3970  0.0320 -0.0386
 7797TIP3    H144882   2.568   1.162   2.839 -0.1225  1.7054  1.7591
 7797TIP3    H244883   2.688   1.070   2.846 -0.1244  1.5168 -0.3836
 7798TIP3   OH244884   6.176   6.381   3.053 -0.2362 -0.1101  0.2940
 7798TIP3    H144885   6.130   6.451   3.099 -0.5309  0.4768 -0.8643
 7798TIP3    H244886   6.107   6.327   3.016 -0.1100  2.2469 -3.6838
 7799TIP3   OH244887   3.809   0.986   4.243  0.7008  0.8176 -0.7803
 7799TIP3    H144888   3.902   0.962   4.250  0.5870  0.8601  1.1330
 7799TIP3    H244889   3.808   1.080   4.264 -0.0564  0.2634  1.9332
 7800TIP3   OH244890   6.795   5.862  13.736 -0.0408 -0.3063 -0.0087
 7800TIP3    H144891   6.745   5.870  13.655 -0.4439  1.0095  0.3558
 7800TIP3    H244892   6.826   5.951  13.753 -1.0179 -0.3139  1.9411
 7801TIP3   OH244893   4.177   4.982  13.695 -0.5217  0.2255  0.6061
 7801TIP3    H144894   4.147   5.064  13.655 -0.0544  0.8124  1.4678
 7801TIP3    H244895   4.269   4.976  13.671  0.3875  1.7640  3.5439
 7802TIP3   OH244896   1.104   3.722  12.677  0.5557 -0.2507  0.5809
 7802TIP3    H144897   1.180   3.779  12.681  2.4680 -2.6460 -0.3031
 7802TIP3    H244898   1.134   3.645  12.629 -1.9993 -1.8994  1.5066
 7803TIP3   OH244899   0.052   4.403  14.405  0.6610 -0.0411  0.6864
 7803TIP3    H144900   0.145   4.425  14.393  1.2942 -3.1688 -0.8306
 7803TIP3    H244901   0.029   4.355  14.325 -1.6620 -1.1387  1.9710
 7804TIP3   OH244902   4.175   5.957   2.345  0.0090  0.6564 -0.3782
 7804TIP3    H144903   4.232   5.994   2.413 -0.6982  1.7490 -0.3594
 7804TIP3    H244904   4.110   5.907   2.394 -0.2779  1.1364 -0.2609
 7805TIP3   OH244905   1.629   2.118  13.892  0.3373  0.2334 -0.5532
 7805TIP3    H144906   1.679   2.038  13.905  0.7003  0.5743  0.1527
 7805TIP3    H244907   1.552   2.091  13.842 -0.2311 -0.7782  0.8575
 7806TIP3   OH244908   1.882   3.816  14.989 -0.0416 -0.5057 -0.1773
 7806TIP3    H144909   1.940   3.874  15.039  1.2007 -0.2340 -1.8641
 7806TIP3    H244910   1.924   3.730  14.995 -0.9244 -0.8797  0.8260
 7807TIP3   OH244911   1.347   2.883   3.876 -0.1573 -0.0949  0.0119
 7807TIP3    H144912   1.427   2.903   3.924  1.9004 -3.0222 -2.0658
 7807TIP3    H244913   1.352   2.936   3.796 -0.1544 -0.4830 -0.2475
 7808TIP3   OH244914   0.160   0.143   4.424 -0.4916 -0.3339  0.0829
 7808TIP3    H144915   0.089   0.188   4.377 -0.3527 -0.8176 -0.6017
 7808TIP3    H244916   0.194   0.209   4.485 -2.2037 -0.4132  1.1515
 7809TIP3   OH244917   2.977   1.821   6.244 -0.4554  0.2930 -0.1170
 7809TIP3    H144918   2.932   1.901   6.218  0.7055  0.9620 -0.1463
 7809TIP3    H244919   3.057   1.852   6.286  0.2990 -0.8597 -0.6655
 7810TIP3   OH244920   5.419   3.900  13.855  0.2942  0.1952 -0.5136
 7810TIP3    H144921   5.362   3.963  13.812  1.4690  1.2964 -0.4912
 7810TIP3    H244922   5.507   3.926  13.828  0.9012 -0.3813  0.8964
 7811TIP3   OH244923   6.480   6.148  14.155  1.0348  0.2892 -0.3841
 7811TIP3    H144924   6.513   6.084  14.091  2.5938  0.5110  0.1718
 7811TIP3    H244925   6.493   6.105  14.240 -1.9188 -0.4061 -0.2280
 7812TIP3   OH244926   3.724   2.163  14.075  0.2043  0.9551 -0.0736
 7812TIP3    H144927   3.773   2.104  14.132 -0.2050  0.5233 -0.1598
 7812TIP3    H244928   3.754   2.251  14.098  0.4548  0.7410  0.4088
 7813TIP3   OH244929   5.919   6.521   4.733  0.4796  0.8801  0.1547
 7813TIP3    H144930   5.981   6.458   4.769  1.7629  2.1033  0.1198
 7813TIP3    H244931   5.892   6.484   4.649 -2.7403 -2.1329  2.3582
 7814TIP3   OH244932   1.747   6.230   0.875  0.0450 -0.3659  0.1182
 7814TIP3    H144933   1.762   6.166   0.805  0.0226  1.0829 -1.2300
 7814TIP3    H244934   1.815   6.210   0.940  0.4641 -1.3158 -0.5962
 7815TIP3   OH244935   1.871   6.448  13.046 -0.0966 -0.2009 -0.2809
 7815TIP3    H144936   1.875   6.503  12.968  0.6391  0.0363 -0.0802
 7815TIP3    H244937   1.885   6.359  13.014  0.4341 -0.0773 -0.3886
 7816TIP3   OH244938   1.505   6.133  13.244 -0.3389  0.2820  0.2812
 7816TIP3    H144939   1.534   6.146  13.153  2.5076 -1.6456  0.8458
 7816TIP3    H244940   1.412   6.110  13.236 -0.2031  0.4249 -2.1191
 7817TIP3   OH244941   6.303   2.358   0.021 -0.2400 -0.2777 -0.7938
 7817TIP3    H144942   6.258   2.434   0.058  0.0844 -0.1886 -0.5808
 7817TIP3    H244943   6.378   2.343   0.079 -0.0665 -0.5028 -1.0703
 7818TIP3   OH244944   5.258   0.680   6.381 -0.5711 -0.0224 -0.6220
 7818TIP3    H144945   5.176   0.646   6.417  0.0458 -1.1940 -0.3226
 7818TIP3    H244946   5.262   0.771   6.412 -0.2872 -0.8491  1.8844
 7819TIP3   OH244947   0.198   0.784   0.787  0.6355  0.8402 -0.1805
 7819TIP3    H144948   0.279   0.817   0.746  1.4651  0.6954  1.3035
 7819TIP3    H244949   0.229   0.736   0.864 -0.6227 -2.3979 -1.6160
 7820TIP3   OH244950   2.434   0.563  11.247  0.5558  0.5973  0.1088
 7820TIP3    H144951   2.380   0.568  11.168 -0.0589 -1.2304  0.4022
 7820TIP3    H244952   2.478   0.648  11.250 -0.5834  1.2793 -1.3553
 7821TIP3   OH244953   5.073   0.739  12.060  0.1915 -0.0763  0.4310
 7821TIP3    H144954   5.129   0.713  11.987  1.6331  0.8528  1.1879
 7821TIP3    H244955   5.041   0.656  12.096  2.5754 -0.7201  1.1492
 7822TIP3   OH244956   4.443   4.890   6.166 -0.0653  0.3855  0.0270
 7822TIP3    H144957   4.486   4.973   6.186 -0.0341  0.7365 -1.4477
 7822TIP3    H244958   4.393   4.908   6.085 -1.4932 -0.5176  0.6825
 7823TIP3   OH244959   5.207   1.842   1.492  0.0942  0.1024 -0.1118
 7823TIP3    H144960   5.121   1.881   1.474  1.0448  2.1724 -0.2777
 7823TIP3    H244961   5.255   1.850   1.409  2.1525  3.5306  1.3049
 7824TIP3   OH244962   5.729   0.887   5.094 -0.3826  0.0345  0.2882
 7824TIP3    H144963   5.799   0.824   5.112 -1.2999 -1.0518  0.1675
 7824TIP3    H244964   5.725   0.941   5.172  0.1448 -0.3354  0.5777
 7825TIP3   OH244965   3.609   1.736  13.588  0.6193 -0.3934  0.6803
 7825TIP3    H144966   3.622   1.821  13.546  1.1649 -1.5346 -1.5313
 7825TIP3    H244967   3.516   1.717  13.577  0.6751 -0.4902  0.3791
 7826TIP3   OH244968   4.487   3.889  12.278  0.2286  0.7025  0.2333
 7826TIP3    H144969   4.556   3.938  12.232  0.2841  0.3125 -0.1037
 7826TIP3    H244970   4.473   3.811  12.223  0.3567  0.1908  0.9167
 7827TIP3   OH244971   2.664   4.983   3.234 -0.4229 -1.0987  0.6831
 7827TIP3    H144972   2.731   4.984   3.301 -1.2791 -0.5741  1.5432
 7827TIP3    H244973   2.709   5.009   3.154 -0.0127  1.3357  1.6586
 7828TIP3   OH244974   2.300   1.192   3.687 -0.1042  0.2234 -0.3936
 7828TIP3    H144975   2.346   1.115   3.654 -0.3480  0.0404 -0.3135
 7828TIP3    H244976   2.229   1.156   3.740  0.6975  0.5206  0.8940
 7829TIP3   OH244977   4.815   0.719  13.971  0.0123 -0.2536 -0.4656
 7829TIP3    H144978   4.751   0.724  13.900 -1.0272  1.7225  0.5821
 7829TIP3    H244979   4.888   0.774  13.942  0.1191 -0.4247 -0.5241
 7830TIP3   OH244980   5.516   5.209  11.750  0.5995 -0.4281  0.0081
 7830TIP3    H144981   5.605   5.184  11.772  0.9499 -1.3691 -2.2813
 7830TIP3    H244982   5.475   5.127  11.720 -0.6834  0.2145 -0.0437
 7831TIP3   OH244983   1.916   6.386   1.823 -0.2017  0.0618  0.3841
 7831TIP3    H144984   1.874   6.352   1.902 -1.0665  1.5608  0.5825
 7831TIP3    H244985   1.961   6.310   1.785 -1.8128 -1.2084  0.9817
 7832TIP3   OH244986   2.437   6.734  16.180  0.4742 -0.1192  0.1683
 7832TIP3    H144987   2.358   6.716  16.128  0.8292  2.1253 -1.2088
 7832TIP3    H244988   2.509   6.708  16.124  0.8399  1.6692 -0.2142
 7833TIP3   OH244989   3.281   3.880  11.930  0.0581 -0.1653  0.4215
 7833TIP3    H144990   3.310   3.971  11.929 -0.7140  0.1013  1.2526
 7833TIP3    H244991   3.340   3.835  11.869  0.6247  0.8300  0.2230
 7834TIP3   OH244992   3.659   0.233   4.612 -0.4201  0.6161  0.3106
 7834TIP3    H144993   3.577   0.208   4.654 -0.0369  0.4497  0.9670
 7834TIP3    H244994   3.638   0.313   4.564 -1.7946 -1.2455 -2.2940
 7835TIP3   OH244995   6.176   5.664  11.552 -0.1936  0.1342  0.2681
 7835TIP3    H144996   6.165   5.657  11.647 -0.4209  2.5681  0.4558
 7835TIP3    H244997   6.124   5.741  11.528 -2.0887 -1.8363 -2.1818
 7836TIP3   OH244998   4.830   3.465  15.023 -0.0034  0.2933  0.1639
 7836TIP3    H144999   4.838   3.556  14.993  0.2784  0.2931  0.2323
 7836TIP3    H245000   4.920   3.433  15.024  0.0275  0.3863  1.3181
 7837TIP3   OH245001   2.053   1.101   3.042  0.4587 -0.2798  0.1528
 7837TIP3    H145002   2.035   1.016   3.001  1.0743  0.1343 -1.0215
 7837TIP3    H245003   2.148   1.106   3.046  0.3990 -0.6298  2.3713
 7838TIP3   OH245004   6.174   5.315  13.304  0.4106 -0.4547  0.5245
 7838TIP3    H145005   6.221   5.397  13.290  0.4918 -0.6186 -0.1425
 7838TIP3    H245006   6.116   5.307  13.228  0.2800 -0.9312  0.6724
 7839TIP3   OH245007   2.465   1.479  12.032  0.4417  0.3771  0.4513
 7839TIP3    H145008   2.525   1.417  12.073  1.0454  1.3840  1.1159
 7839TIP3    H245009   2.419   1.520  12.106  2.0235  2.6991  0.1777
 7840TIP3   OH245010   0.707   4.341  15.539  0.6687  0.3722 -0.4968
 7840TIP3    H145011   0.709   4.351  15.444  1.7542  4.0751 -0.1539
 7840TIP3    H245012   0.791   4.301  15.561  1.0381  0.8695 -0.9848
 7841TIP3   OH245013   6.708   0.561   3.275 -0.1520  0.4174 -0.0264
 7841TIP3    H145014   6.730   0.484   3.328  1.7475 -0.9551 -2.7294
 7841TIP3    H245015   6.617   0.579   3.297 -0.9626 -3.1999 -0.0152
 7842TIP3   OH245016   2.327   2.759  12.682 -0.2043 -0.7524 -0.3207
 7842TIP3    H145017   2.349   2.822  12.750 -0.1585 -0.4492 -0.6128
 7842TIP3    H245018   2.249   2.795  12.641 -0.6336 -1.2898  0.0290
 7843TIP3   OH245019   2.280   5.781   5.183 -0.0841  0.3850  0.6078
 7843TIP3    H145020   2.334   5.837   5.127  0.0427  0.0665  0.4163
 7843TIP3    H245021   2.311   5.799   5.272 -1.6087  2.4013  0.7929
 7844TIP3   OH245022   4.842   3.138  11.197  0.0835  0.7928 -0.0047
 7844TIP3    H145023   4.861   3.142  11.291  0.2610 -1.0886  0.0574
 7844TIP3    H245024   4.749   3.160  11.191 -0.5887 -1.5670  0.9133
 7845TIP3   OH245025   2.646   5.094   5.187 -0.3468 -0.1100  0.1940
 7845TIP3    H145026   2.608   5.132   5.108  0.6276  0.7260  0.1177
 7845TIP3    H245027   2.715   5.036   5.156  0.3622  0.5929  0.4408
 7846TIP3   OH245028   3.725   2.274   3.967 -0.0923 -0.2193  0.1369
 7846TIP3    H145029   3.779   2.333   3.915 -1.1827  1.4094  0.8186
 7846TIP3    H245030   3.679   2.221   3.903  0.3256  0.1818 -0.5024
 7847TIP3   OH245031   1.461   4.917   2.372  0.0615  0.2270 -0.3776
 7847TIP3    H145032   1.470   4.843   2.432  0.3820  0.0111 -0.6877
 7847TIP3    H245033   1.532   4.906   2.310 -0.2597  0.4616 -0.7891
 7848TIP3   OH245034   2.001   2.296   6.265 -0.8218 -0.1626  0.0944
 7848TIP3    H145035   2.039   2.296   6.177  1.6005  0.0851  1.1234
 7848TIP3    H245036   2.060   2.350   6.317 -3.7347  2.0124  1.2652
 7849TIP3   OH245037   4.730   2.853  13.018  0.3952  0.1626 -0.6557
 7849TIP3    H145038   4.665   2.856  13.088  1.5309  0.0454  0.4268
 7849TIP3    H245039   4.750   2.945  13.000  1.0928  0.1697  0.1267
 7850TIP3   OH245040   5.736   1.926   6.668  0.1883 -0.3026 -0.5593
 7850TIP3    H145041   5.818   1.975   6.659 -0.0096  0.3472  0.9305
 7850TIP3    H245042   5.669   1.993   6.675 -0.1953 -0.7797  0.5158
 7851TIP3   OH245043   0.389   6.725  10.725  0.1578 -0.2258  0.6130
 7851TIP3    H145044   0.397   6.630  10.723  2.9985 -0.0224  0.3630
 7851TIP3    H245045   0.420   6.754  10.640 -1.5719  0.9011  0.3355
 7852TIP3   OH245046   2.931   1.319   4.849 -0.2474  0.7422 -0.2674
 7852TIP3    H145047   2.906   1.411   4.860  1.2583  1.3897 -1.9330
 7852TIP3    H245048   2.952   1.311   4.755  0.1629 -1.1616 -0.0338
 7853TIP3   OH245049   5.201   6.697   2.958  0.1964 -0.4721 -0.9830
 7853TIP3    H145050   5.288   6.657   2.965  1.2706  1.7321 -1.2371
 7853TIP3    H245051   5.182   6.729   3.046 -0.1979 -0.6045 -1.0179
 7854TIP3   OH245052   3.641   1.659  14.072 -0.0950 -0.2533 -0.2867
 7854TIP3    H145053   3.617   1.711  13.995  1.2582  0.1768 -0.4278
 7854TIP3    H245054   3.663   1.725  14.139 -0.6659 -0.6285  0.2737
 7855TIP3   OH245055   3.989   1.109  10.776 -0.0028 -0.1135 -0.2274
 7855TIP3    H145056   4.037   1.126  10.694 -0.1825  1.8963  0.0503
 7855TIP3    H245057   4.040   1.040  10.819  0.1447 -1.1428 -1.9793
 7856TIP3   OH245058   4.731   1.601   6.802 -0.2241  0.1426  0.2689
 7856TIP3    H145059   4.642   1.565   6.795  0.1330 -0.7877  0.3828
 7856TIP3    H245060   4.785   1.541   6.750  0.5304 -0.0006  1.2036
 7857TIP3   OH245061   0.533   3.616   5.863  0.0642 -0.0598  0.4107
 7857TIP3    H145062   0.499   3.703   5.842  3.1561  0.7281 -1.5918
 7857TIP3    H245063   0.505   3.560   5.791  0.5232 -0.0663  0.2356
 7858TIP3   OH245064   2.519   6.423  16.217 -0.6962  0.9227  0.3462
 7858TIP3    H145065   2.517   6.371  16.297  0.5466  1.8372  0.9944
 7858TIP3    H245066   2.476   6.368  16.151 -1.5742  0.0897  1.5903
 7859TIP3   OH245067   3.118   5.435   3.867  0.0769 -0.1203  0.0687
 7859TIP3    H145068   3.157   5.509   3.820  0.1359 -0.2886 -0.1466
 7859TIP3    H245069   3.185   5.367   3.864 -0.2700 -0.4405 -0.3788
 7860TIP3   OH245070   3.648   1.704   3.839  0.4535  0.2496  0.9661
 7860TIP3    H145071   3.615   1.793   3.849  3.1660  1.4692 -0.2890
 7860TIP3    H245072   3.716   1.696   3.906 -0.4784 -1.2603  1.7513
 7861TIP3   OH245073   1.568   6.755   2.195 -0.3051 -0.4074 -0.4555
 7861TIP3    H145074   1.536   6.782   2.109 -0.9104 -1.6055 -0.6247
 7861TIP3    H245075   1.651   6.711   2.177  0.3440  0.7232 -0.2540
 7862TIP3   OH245076   5.808   4.821  12.493  0.3013 -0.1459  0.4543
 7862TIP3    H145077   5.756   4.766  12.551  1.3976 -0.8591  0.7868
 7862TIP3    H245078   5.861   4.759  12.442  0.7872  0.5555  0.0922
 7863TIP3   OH245079   3.459   3.601  15.922  0.0956  0.3866 -0.3451
 7863TIP3    H145080   3.536   3.545  15.921 -0.5607 -0.5755  1.4253
 7863TIP3    H245081   3.455   3.639  15.834  1.9083 -0.4682 -0.7984
 7864TIP3   OH245082   2.654   5.603  16.855  0.2782 -0.2114  0.1423
 7864TIP3    H145083   2.650   5.569  16.766 -1.3900 -1.2207  0.5695
 7864TIP3    H245084   2.731   5.562  16.893  2.1602  1.7814 -1.4256
 7865TIP3   OH245085   0.329   1.650   5.148 -0.4324  0.0952  0.3109
 7865TIP3    H145086   0.349   1.598   5.070  0.7832  0.6366  0.2473
 7865TIP3    H245087   0.262   1.712   5.119 -0.6476 -0.3133 -0.0638
 7866TIP3   OH245088   1.320   0.490  15.463 -0.1505 -0.0784 -0.5038
 7866TIP3    H145089   1.229   0.474  15.485 -0.0483  0.5286  0.3696
 7866TIP3    H245090   1.365   0.499  15.547  0.2938  1.9502 -0.9242
 7867TIP3   OH245091   4.381   3.132   0.599  0.0508  0.4271 -0.0185
 7867TIP3    H145092   4.452   3.082   0.559  1.9362  0.6725  2.9098
 7867TIP3    H245093   4.328   3.066   0.645  2.3404  0.9357  3.5496
 7868TIP3   OH245094   5.413   5.933  16.680  0.0307  0.7173  0.7976
 7868TIP3    H145095   5.342   5.977  16.727 -1.3378 -1.0074  0.3957
 7868TIP3    H245096   5.446   5.999  16.619 -1.1329  1.5843  1.0860
 7869TIP3   OH245097   5.116   6.253  13.201 -0.8516 -0.4695  0.2370
 7869TIP3    H145098   5.049   6.241  13.135 -1.3018 -2.2163  0.9905
 7869TIP3    H245099   5.068   6.270  13.282 -0.3405 -0.0364  0.4576
 7870TIP3   OH245100   1.347   2.653   6.593  0.3527 -0.6730 -0.6128
 7870TIP3    H145101   1.371   2.744   6.574 -0.9645 -0.1789  0.0100
 7870TIP3    H245102   1.426   2.615   6.631  0.5663  0.5485  0.2115
 7871TIP3   OH245103   3.016   2.903  16.615 -0.3856  0.0065  0.6039
 7871TIP3    H145104   3.056   2.981  16.578  0.2049  0.4242  2.0952
 7871TIP3    H245105   2.931   2.932  16.647 -0.9698 -0.3931 -0.5632
 7872TIP3   OH245106   2.563   3.681   1.882  0.2313 -0.2233 -0.3025
 7872TIP3    H145107   2.615   3.735   1.942  0.0130 -0.7599  0.3647
 7872TIP3    H245108   2.624   3.658   1.812 -0.3014  3.0438 -1.9808
 7873TIP3   OH245109   3.921   1.275  14.989 -0.3853  0.9767  0.1341
 7873TIP3    H145110   3.942   1.202  14.931 -1.6969 -0.1538  1.0383
 7873TIP3    H245111   3.965   1.350  14.950  1.5449 -0.4217 -0.4665
 7874TIP3   OH245112   3.185   5.724  13.843  0.0404  0.8798 -0.2540
 7874TIP3    H145113   3.199   5.659  13.775  1.4733  1.0874 -0.1629
 7874TIP3    H245114   3.113   5.689  13.895  0.1651 -0.1656 -0.7737
 7875TIP3   OH245115   1.888   3.495  15.412 -0.2123  0.0729 -0.3413
 7875TIP3    H145116   1.895   3.518  15.319  0.7545 -3.1277 -1.1231
 7875TIP3    H245117   1.976   3.464  15.436 -1.3891 -2.7064  0.5892
 7876TIP3   OH245118   3.227   4.985  11.465 -0.0952  0.0122  0.0862
 7876TIP3    H145119   3.163   4.918  11.488 -0.5844  0.8289  1.1085
 7876TIP3    H245120   3.178   5.067  11.462 -0.2295 -0.0562 -4.5081
 7877TIP3   OH245121   0.583   1.584   0.989  0.3677 -0.4408 -0.0071
 7877TIP3    H145122   0.639   1.589   0.911  0.3046 -0.1452 -0.0354
 7877TIP3    H245123   0.642   1.604   1.062 -0.0736  1.6993 -0.2036
 7878TIP3   OH245124   5.346   6.189  15.401 -0.3093 -0.0914  0.2170
 7878TIP3    H145125   5.350   6.182  15.496 -2.6929 -0.2137  0.3272
 7878TIP3    H245126   5.258   6.159  15.378 -0.2046  1.1631 -1.9220
 7879TIP3   OH245127   3.267   2.973   6.288 -0.6616  0.2076  0.2481
 7879TIP3    H145128   3.176   2.998   6.306  0.1118  1.7562  2.1382
 7879TIP3    H245129   3.259   2.900   6.226 -3.2578 -0.6946  1.5200
 7880TIP3   OH245130   1.753   3.034  13.892 -0.3545 -0.2156  0.7953
 7880TIP3    H145131   1.844   3.047  13.866 -0.9661  0.5586 -0.9718
 7880TIP3    H245132   1.749   3.070  13.981  0.7018  1.1624  0.3012
 7881TIP3   OH245133   1.979   3.473  14.185  0.3954  0.1413  0.1184
 7881TIP3    H145134   2.067   3.510  14.195  0.4668  0.1731 -0.6182
 7881TIP3    H245135   1.962   3.476  14.091 -0.3042 -0.0796  0.2348
 7882TIP3   OH245136   3.086   4.300  10.939  0.0868  0.3860 -0.5056
 7882TIP3    H145137   3.063   4.343  10.857  2.5972  0.9509 -0.9587
 7882TIP3    H245138   3.110   4.211  10.913  2.0102  0.9027 -0.5720
 7883TIP3   OH245139   4.690   5.315   4.633  0.0747  0.0380 -0.4137
 7883TIP3    H145140   4.671   5.271   4.716 -0.5976  0.3378 -0.4049
 7883TIP3    H245141   4.621   5.286   4.574  0.5581 -0.1826 -0.8749
 7884TIP3   OH245142   2.195   3.694   3.016 -0.5697  0.2599  0.0659
 7884TIP3    H145143   2.262   3.634   3.049 -1.0466  0.7731  2.0682
 7884TIP3    H245144   2.243   3.775   2.995 -0.3520  0.1425  0.1132
 7885TIP3   OH245145   2.222   0.512  14.885  0.0808  0.1840  0.2633
 7885TIP3    H145146   2.130   0.489  14.894  0.4945 -0.8284  2.3384
 7885TIP3    H245147   2.221   0.602  14.851 -1.6832  0.3783  0.7481
 7886TIP3   OH245148   6.655   6.479   6.302 -0.2208  0.1186 -0.0668
 7886TIP3    H145149   6.722   6.490   6.369 -0.1062 -0.6412 -0.0559
 7886TIP3    H245150   6.598   6.555   6.314  0.4062  0.5615  0.1816
 7887TIP3   OH245151   0.969   6.806   0.226 -0.1602  0.4891 -0.3176
 7887TIP3    H145152   1.029   6.864   0.272 -0.6755  0.2402  0.6686
 7887TIP3    H245153   1.018   6.778   0.149  0.4759  1.3910 -0.2487
 7888TIP3   OH245154   1.359   1.783  13.895  0.1426 -0.3022  0.2028
 7888TIP3    H145155   1.322   1.820  13.975 -1.6931 -2.2582  0.3256
 7888TIP3    H245156   1.283   1.771  13.837  1.1226 -1.0017 -0.9722
 7889TIP3   OH245157   0.198   0.255   5.169 -0.1319 -0.8490 -0.4545
 7889TIP3    H145158   0.115   0.289   5.202  0.1956 -0.5515  0.0705
 7889TIP3    H245159   0.240   0.216   5.246  0.7563  0.0867 -0.4622
 7890TIP3   OH245160   5.837   5.840  12.569 -0.5186 -0.3680  0.2469
 7890TIP3    H145161   5.766   5.819  12.507 -0.6916  1.1221 -0.0611
 7890TIP3    H245162   5.901   5.770  12.555 -1.0471 -0.6599 -0.8334
 7891TIP3   OH245163   1.587   4.655  16.978 -0.1707 -0.1997 -0.4719
 7891TIP3    H145164   1.492   4.654  16.993 -0.2698  0.2653 -1.0751
 7891TIP3    H245165   1.603   4.735  16.929  0.7325  0.4683  0.8909
 7892TIP3   OH245166   3.016   6.416  12.156 -0.8557 -1.0830  0.3911
 7892TIP3    H145167   3.046   6.330  12.127  1.5511 -0.5257  1.1248
 7892TIP3    H245168   3.004   6.407  12.250  0.3437 -0.3890  0.6299
 7893TIP3   OH245169   5.834   6.166   4.375 -0.4149 -0.4612  0.2811
 7893TIP3    H145170   5.848   6.261   4.371 -0.5531 -0.3269  2.5408
 7893TIP3    H245171   5.741   6.156   4.394 -0.3254 -1.0338  0.4326
 7894TIP3   OH245172   5.700   0.259   3.433 -0.2632 -0.3393 -0.2595
 7894TIP3    H145173   5.625   0.215   3.473  0.4778 -0.5609  0.9251
 7894TIP3    H245174   5.771   0.246   3.496  0.7063  0.0627 -1.2608
 7895TIP3   OH245175   2.528   5.832   2.239  0.7308 -0.1927 -0.1989
 7895TIP3    H145176   2.590   5.803   2.306  0.0927  0.7120  0.8060
 7895TIP3    H245177   2.561   5.917   2.211 -0.1607  0.3842  0.4864
 7896TIP3   OH245178   5.405   3.507   0.214  0.2477 -0.3709  0.0365
 7896TIP3    H145179   5.337   3.575   0.214  0.2799 -0.3389  0.6446
 7896TIP3    H245180   5.372   3.441   0.276  0.5688 -0.5614  0.0022
 7897TIP3   OH245181   5.031   3.466  12.400 -0.2367  0.1602 -0.4597
 7897TIP3    H145182   5.069   3.402  12.341 -3.3315 -0.5065 -1.8293
 7897TIP3    H245183   5.036   3.549  12.353 -1.8409 -0.2069 -1.3208
 7898TIP3   OH245184   0.150   3.458   5.546  0.0857 -0.5331 -0.3666
 7898TIP3    H145185   0.067   3.505   5.541  0.6138  0.3625 -0.8560
 7898TIP3    H245186   0.193   3.476   5.462  1.4357  0.2859  0.4743
 7899TIP3   OH245187   1.207   2.666   0.715  0.1572 -0.8962  0.4624
 7899TIP3    H145188   1.129   2.649   0.768  0.7373 -0.5424  1.4529
 7899TIP3    H245189   1.266   2.594   0.737  0.9432  0.0155  1.3604
 7900TIP3   OH245190   2.038   1.506   1.461 -0.9392 -0.7562  0.0064
 7900TIP3    H145191   2.050   1.587   1.411  1.6544 -0.9319  0.2521
 7900TIP3    H245192   1.953   1.516   1.503 -1.4590  1.0521 -1.4104
 7901TIP3   OH245193   4.019   3.701  14.151 -0.3978 -0.1434 -1.0302
 7901TIP3    H145194   4.113   3.686  14.154 -0.5292 -1.0007 -1.1473
 7901TIP3    H245195   3.998   3.705  14.058 -0.8960 -2.6530 -1.0382
 7902TIP3   OH245196   0.126   4.508  12.043  0.2099 -1.2768  0.2162
 7902TIP3    H145197   0.040   4.504  12.084  0.0503 -0.0669  0.0260
 7902TIP3    H245198   0.115   4.567  11.969  1.2925 -0.7926  0.4258
 7903TIP3   OH245199   4.947   1.067  14.125  0.2899  0.3617 -0.3335
 7903TIP3    H145200   5.031   1.023  14.133  0.4879  0.8438  0.2310
 7903TIP3    H245201   4.900   1.017  14.058  0.9392 -0.0352 -0.4914
 7904TIP3   OH245202   5.084   3.183   2.615 -0.0466 -0.3797  0.4655
 7904TIP3    H145203   5.027   3.109   2.635 -0.0875  0.3925  3.3934
 7904TIP3    H245204   5.025   3.250   2.579 -0.1212 -1.4630 -1.4992
 7905TIP3   OH245205   4.543   5.593   5.885 -0.5464  0.3416  0.5014
 7905TIP3    H145206   4.498   5.551   5.812  0.2899  0.3596 -0.0240
 7905TIP3    H245207   4.477   5.597   5.954 -1.0649 -0.5035  0.0618
 7906TIP3   OH245208   3.447   5.203   3.299  0.0693 -0.5796 -0.3319
 7906TIP3    H145209   3.358   5.174   3.318 -0.5734  1.2955 -0.3141
 7906TIP3    H245210   3.483   5.227   3.385 -0.2150  0.7982 -0.5844
 7907TIP3   OH245211   1.642   5.542  14.836  0.1510  0.5252 -0.0815
 7907TIP3    H145212   1.549   5.524  14.849 -0.2075  1.0743 -1.6954
 7907TIP3    H245213   1.685   5.457  14.846 -0.4148  0.4134  1.5184
 7908TIP3   OH245214   0.050   5.714  16.949 -0.2252  0.0299  0.3102
 7908TIP3    H145215   0.053   5.751  16.861 -0.8384  1.6109  0.9294
 7908TIP3    H245216   0.137   5.731  16.985  0.7386 -2.5121 -0.7016
 7909TIP3   OH245217   2.991   4.569  16.950 -0.0330  0.4513  0.0557
 7909TIP3    H145218   3.024   4.656  16.973 -1.5595  1.1293 -0.2761
 7909TIP3    H245219   3.040   4.509  17.006  1.6118  1.4490 -0.2887
 7910TIP3   OH245220   4.493   6.400  12.677  0.1040 -0.2322  0.3219
 7910TIP3    H145221   4.562   6.463  12.692  0.6504 -1.0775  1.4788
 7910TIP3    H245222   4.531   6.334  12.619  0.0658 -0.3534  0.4319
 7911TIP3   OH245223   6.394   3.020   1.224  0.0181 -0.4770  0.1286
 7911TIP3    H145224   6.462   3.016   1.157 -1.2151 -1.2613 -1.1161
 7911TIP3    H245225   6.441   3.014   1.307  1.4726 -0.8474 -0.7114
 7912TIP3   OH245226   1.369   0.810  15.411  0.4638  0.1260  0.0136
 7912TIP3    H145227   1.358   0.720  15.443  1.1246 -0.0122 -0.1274
 7912TIP3    H245228   1.430   0.801  15.337 -2.0972  0.2449 -2.1912
 7913TIP3   OH245229   4.354   5.764   4.685 -0.3059 -0.9231 -0.0924
 7913TIP3    H145230   4.398   5.717   4.756  0.6646 -0.7781 -0.5997
 7913TIP3    H245231   4.358   5.704   4.610  0.9527 -0.0315 -0.7479
 7914TIP3   OH245232   5.276   5.449  15.738  0.3076 -0.1809 -0.2068
 7914TIP3    H145233   5.211   5.519  15.737  0.0274 -0.4225 -2.0428
 7914TIP3    H245234   5.314   5.451  15.650  2.4051 -0.3876  0.6874
 7915TIP3   OH245235   1.097   6.559  11.188  0.4828 -0.0355  0.0474
 7915TIP3    H145236   1.025   6.523  11.240  0.0909 -0.3647 -0.7179
 7915TIP3    H245237   1.121   6.488  11.128 -1.5112  1.5414 -2.7191
 7916TIP3   OH245238   5.379   0.105   2.507  0.4518  0.0574 -0.3994
 7916TIP3    H145239   5.300   0.059   2.478  0.6166 -0.1466 -0.5213
 7916TIP3    H245240   5.431   0.116   2.427  1.3421 -1.3504 -0.0194
 7917TIP3   OH245241   5.429   5.230  12.588  0.4209 -0.0750 -0.2121
 7917TIP3    H145242   5.461   5.142  12.569 -2.2887 -1.2803  0.5815
 7917TIP3    H245243   5.404   5.265  12.503  0.4692 -0.4785 -0.3941
 7918TIP3   OH245244   1.011   0.582  13.595 -0.8754 -0.2652  0.1564
 7918TIP3    H145245   1.037   0.569  13.686  0.5860 -0.3371 -0.2626
 7918TIP3    H245246   0.962   0.503  13.572 -1.4783 -0.1302  0.9501
 7919TIP3   OH245247   5.869   3.377  14.918 -0.3025  0.4540 -0.4950
 7919TIP3    H145248   5.787   3.426  14.919  0.6962  2.2605 -2.6329
 7919TIP3    H245249   5.915   3.404  14.998 -1.2999  0.2902  0.1357
 7920TIP3   OH245250   4.509   5.124  16.224 -0.7624  0.2463 -0.4430
 7920TIP3    H145251   4.543   5.213  16.218 -3.1567  1.1144 -1.8145
 7920TIP3    H245252   4.422   5.134  16.263 -1.5502 -1.3399 -1.7359
 7921TIP3   OH245253   4.823   6.425   1.620 -0.2103 -0.3229 -0.2375
 7921TIP3    H145254   4.904   6.390   1.657 -0.1260  0.0431 -0.0760
 7921TIP3    H245255   4.798   6.361   1.552 -0.0166 -0.6557  0.0018
 7922TIP3   OH245256   2.334   0.844   6.162 -0.0339  0.0544  0.6330
 7922TIP3    H145257   2.405   0.791   6.126 -2.2365 -2.3012 -0.4441
 7922TIP3    H245258   2.313   0.906   6.092 -0.8462 -1.0939 -0.1702
 7923TIP3   OH245259   0.109   3.006  16.743 -0.6480  0.1582 -0.2042
 7923TIP3    H145260   0.066   2.958  16.672  0.2148 -0.6268 -0.1962
 7923TIP3    H245261   0.186   3.046  16.703  0.2414 -0.8790  0.4369
 7924TIP3   OH245262   6.203   1.154  14.474  0.1160  0.1832 -0.1110
 7924TIP3    H145263   6.138   1.153  14.404  0.3774  0.2653 -0.3546
 7924TIP3    H245264   6.151   1.155  14.555 -0.1994  1.6941 -0.3110
 7925TIP3   OH245265   0.031   3.154   5.820 -0.3364 -0.2963 -0.5676
 7925TIP3    H145266   0.017   3.205   5.900  2.8342 -4.1224  2.6181
 7925TIP3    H245267   0.103   3.198   5.775 -1.4333  1.2442 -0.9014
 7926TIP3   OH245268   0.426   6.054   5.244 -0.1151  0.1324  0.1285
 7926TIP3    H145269   0.373   5.991   5.195  0.5647 -0.8629  0.6719
 7926TIP3    H245270   0.365   6.125   5.265 -0.8977 -0.3676 -0.4257
 7927TIP3   OH245271   2.247   0.805   0.422  0.0366 -0.4685  0.0616
 7927TIP3    H145272   2.181   0.862   0.382 -0.0120 -0.2611  0.4367
 7927TIP3    H245273   2.281   0.753   0.349 -0.2073 -0.2450 -0.2131
 7928TIP3   OH245274   1.015   6.162  14.361 -0.2983  0.0811 -0.6722
 7928TIP3    H145275   1.057   6.231  14.411  0.8734 -0.8928 -0.2896
 7928TIP3    H245276   1.052   6.081  14.396  0.0778 -0.6425 -2.6566
 7929TIP3   OH245277   4.592   4.156  15.394  0.1076  0.3813 -0.1855
 7929TIP3    H145278   4.519   4.157  15.457 -1.4544 -2.5816 -1.8336
 7929TIP3    H245279   4.569   4.223  15.330  0.3440  1.5120  0.8877
 7930TIP3   OH245280   5.062   1.526   0.407  0.2935 -0.7987 -0.1190
 7930TIP3    H145281   5.121   1.453   0.389 -0.8229 -1.8914  0.5767
 7930TIP3    H245282   5.054   1.527   0.503 -0.1408 -0.1150 -0.1577
 7931TIP3   OH245283   5.792   5.867  15.803 -0.2182 -0.4393 -0.6173
 7931TIP3    H145284   5.722   5.885  15.741  0.7327 -0.7496 -1.8069
 7931TIP3    H245285   5.830   5.784  15.773 -0.7519 -1.4153  1.3058
 7932TIP3   OH245286   0.662   2.232  13.905 -0.1123  0.1009 -0.0424
 7932TIP3    H145287   0.679   2.138  13.893 -0.6248 -0.1147  0.8561
 7932TIP3    H245288   0.657   2.267  13.816  0.2798 -0.6886 -0.3852
 7933TIP3   OH245289   2.694   3.751  15.118 -0.5473  0.4413  0.9890
 7933TIP3    H145290   2.673   3.803  15.041  0.7554 -1.1742 -0.4837
 7933TIP3    H245291   2.610   3.718  15.148 -0.8270 -0.7324 -1.0521
 7934TIP3   OH245292   2.536   4.978  12.960 -0.4433 -0.3732  0.7248
 7934TIP3    H145293   2.447   5.004  12.938  0.3400 -0.5925 -2.9738
 7934TIP3    H245294   2.540   4.885  12.940  0.9524 -0.1135 -0.2499
 7935TIP3   OH245295   4.669   3.982  13.783 -0.0799  1.1257 -1.0772
 7935TIP3    H145296   4.743   3.930  13.814 -0.6953  0.4347 -0.7342
 7935TIP3    H245297   4.616   3.995  13.862 -0.9550  0.5459 -1.5633
 7936TIP3   OH245298   2.969   3.784  12.456  0.1580 -0.2194  0.0791
 7936TIP3    H145299   3.040   3.833  12.498 -0.3739  1.5615 -1.0136
 7936TIP3    H245300   2.967   3.818  12.366 -3.0233  0.8746  0.4894
 7937TIP3   OH245301   4.943   1.865  12.995 -0.1572  0.1799  0.4669
 7937TIP3    H145302   4.874   1.920  13.033  1.1289  1.0036  1.6488
 7937TIP3    H245303   5.002   1.927  12.952 -1.2104 -0.6842 -2.3383
 7938TIP3   OH245304   1.561   0.424   0.810  0.5475  0.0645 -0.7068
 7938TIP3    H145305   1.501   0.364   0.766 -0.9654 -0.0069  1.4012
 7938TIP3    H245306   1.588   0.485   0.742 -1.4814 -0.2469 -1.8305
 7939TIP3   OH245307   4.508   3.325  14.026 -0.1825  0.3475 -0.6388
 7939TIP3    H145308   4.553   3.397  13.982 -0.9302  0.6574 -0.8921
 7939TIP3    H245309   4.500   3.257  13.958  2.1408 -0.6982  0.0799
 7940TIP3   OH245310   1.987   0.187   4.942  0.0128  0.0384 -0.3803
 7940TIP3    H145311   1.933   0.259   4.975  2.7954  1.7740  0.5111
 7940TIP3    H245312   1.989   0.124   5.014 -2.2152 -0.8808 -1.0672
 7941TIP3   OH245313   3.482   1.998   1.141 -0.2632  0.2945  0.0931
 7941TIP3    H145314   3.393   2.022   1.117  0.8624  1.7198 -2.9078
 7941TIP3    H245315   3.492   1.908   1.110 -0.6922  0.1115  0.4945
 7942TIP3   OH245316   1.669   4.746   2.196  0.1461 -0.1949 -0.0139
 7942TIP3    H145317   1.650   4.806   2.125 -0.9738 -0.0130  0.4296
 7942TIP3    H245318   1.614   4.669   2.178  0.2680 -0.3738  0.3611
 7943TIP3   OH245319   4.871   4.426   1.984 -0.4170  0.3362  0.4537
 7943TIP3    H145320   4.833   4.403   2.069 -0.0079  1.0582  0.8347
 7943TIP3    H245321   4.917   4.508   2.000 -0.0597  0.3023 -0.3925
 7944TIP3   OH245322   2.185   6.319   2.874 -0.6129  0.1112 -0.6606
 7944TIP3    H145323   2.236   6.244   2.844 -0.3390  0.4817 -1.1365
 7944TIP3    H245324   2.162   6.298   2.965 -0.2921 -0.4142 -0.6979
 7945TIP3   OH245325   0.990   0.416  11.973 -0.1429  0.6795  0.2931
 7945TIP3    H145326   0.988   0.502  12.016  2.4624  0.9536 -0.0921
 7945TIP3    H245327   0.935   0.428  11.895  2.4820  2.8773 -1.2939
 7946TIP3   OH245328   1.391   6.184   1.479 -0.1036  0.5991  0.4647
 7946TIP3    H145329   1.382   6.280   1.479  1.0079  0.7176  0.8930
 7946TIP3    H245330   1.461   6.167   1.543  1.7128 -0.2720 -1.6814
 7947TIP3   OH245331   0.737   1.105  11.106  0.1286  0.3652  0.1307
 7947TIP3    H145332   0.779   1.185  11.137 -1.5732  1.6180 -0.7161
 7947TIP3    H245333   0.665   1.136  11.051 -1.8210 -1.7263  1.4681
 7948TIP3   OH245334   1.986   2.253   3.780 -0.3630 -0.0344 -0.5364
 7948TIP3    H145335   1.991   2.330   3.836  3.2278 -0.1336 -0.5934
 7948TIP3    H245336   2.057   2.197   3.810 -2.2098 -2.8523 -1.2376
 7949TIP3   OH245337   4.227   4.164   4.985  0.0730  0.1615  0.5710
 7949TIP3    H145338   4.214   4.081   5.031  0.2346  0.4332  1.1092
 7949TIP3    H245339   4.317   4.158   4.951  1.1236  1.2627  3.0111
 7950TIP3   OH245340   1.497   0.414  15.251 -0.3269  0.2557  0.0259
 7950TIP3    H145341   1.574   0.459  15.287 -0.5974  0.0500  0.8849
 7950TIP3    H245342   1.431   0.423  15.319 -0.7892 -0.3234 -0.3456
 7951TIP3   OH245343   1.190   2.171   5.862  0.8782 -0.0492 -0.5051
 7951TIP3    H145344   1.223   2.132   5.943  3.3572 -1.0549 -1.9319
 7951TIP3    H245345   1.187   2.265   5.880  1.5447 -0.2519  0.6973
 7952TIP3   OH245346   0.830   1.502  14.130  0.6897 -0.5525 -0.3591
 7952TIP3    H145347   0.759   1.552  14.090 -0.7277 -0.7963  1.7628
 7952TIP3    H245348   0.822   1.414  14.093 -1.0223 -0.9534  0.8612
 7953TIP3   OH245349   5.400   2.167  10.998  0.3489 -0.2915 -0.2413
 7953TIP3    H145350   5.310   2.140  11.017  0.8176 -1.3709  0.5025
 7953TIP3    H245351   5.411   2.146  10.905  0.0861 -0.8865 -0.1408
 7954TIP3   OH245352   2.217   5.793  11.836 -0.1884 -0.1254  0.6941
 7954TIP3    H145353   2.251   5.710  11.804  0.0352 -0.4555  1.7860
 7954TIP3    H245354   2.140   5.810  11.781  0.4883 -0.4278 -0.3582
 7955TIP3   OH245355   0.127   5.300  15.746  0.0840 -0.2701 -0.6773
 7955TIP3    H145356   0.150   5.391  15.766  0.8674 -0.3597 -1.1324
 7955TIP3    H245357   0.102   5.302  15.653 -0.8742 -0.3433 -0.4262
 7956TIP3   OH245358   6.566   1.710  16.450 -0.0894 -0.4250 -0.3211
 7956TIP3    H145359   6.495   1.747  16.503  0.0480 -0.6699  0.0342
 7956TIP3    H245360   6.638   1.697  16.512  0.7359  1.0733 -0.9274
 7957TIP3   OH245361   0.235   4.154  13.055 -0.2814 -0.2772 -0.0528
 7957TIP3    H145362   0.250   4.215  12.982 -0.7714  2.0919  1.7818
 7957TIP3    H245363   0.267   4.070  13.022 -0.2655  0.7932 -2.9131
 7958TIP3   OH245364   1.013   3.113   0.453  0.4474  0.5958  0.9291
 7958TIP3    H145365   1.082   3.168   0.418  0.0304  0.5678  0.0397
 7958TIP3    H245366   0.943   3.174   0.477 -0.6914  0.3693 -1.6136
 7959TIP3   OH245367   0.706   3.859   2.976 -0.1171 -0.0782 -0.0509
 7959TIP3    H145368   0.615   3.886   2.965 -0.4148 -1.2707 -0.6163
 7959TIP3    H245369   0.704   3.763   2.971  1.1002 -0.1446  0.4404
 7960TIP3   OH245370   4.819   5.343   6.674 -0.4272  0.6419  0.6251
 7960TIP3    H145371   4.726   5.327   6.656 -0.1028 -3.3596  2.1060
 7960TIP3    H245372   4.864   5.316   6.595 -0.3761  1.0234  0.5207
 7961TIP3   OH245373   3.430   6.733  12.377  0.1036  0.1166  0.3539
 7961TIP3    H145374   3.398   6.643  12.380  0.6625 -0.0377  1.8273
 7961TIP3    H245375   3.518   6.726  12.339 -0.4595  0.2279 -1.0057
 7962TIP3   OH245376   1.681   3.408   2.327  0.0479  0.0571  0.1449
 7962TIP3    H145377   1.588   3.420   2.309  0.1781 -1.1064 -1.4045
 7962TIP3    H245378   1.697   3.315   2.311  1.1282 -0.1156  2.0466
 7963TIP3   OH245379   3.979   6.489   1.937  0.4473  1.1120  0.1381
 7963TIP3    H145380   3.949   6.411   1.983  2.7861  0.7609  1.1776
 7963TIP3    H245381   3.952   6.476   1.846  0.4137 -0.6927  0.3964
 7964TIP3   OH245382   6.545   5.348  15.509 -0.1774 -0.1835  0.1743
 7964TIP3    H145383   6.469   5.305  15.548 -0.5865  0.7202  0.3647
 7964TIP3    H245384   6.509   5.419  15.456  0.4832 -0.2550 -0.3869
 7965TIP3   OH245385   5.111   6.377   3.139 -0.2140 -0.5087 -0.5042
 7965TIP3    H145386   5.141   6.402   3.051  0.4035  3.5533  0.7665
 7965TIP3    H245387   5.022   6.411   3.145 -0.9981 -2.5444 -0.2210
 7966TIP3   OH245388   0.705   3.247  14.295 -0.1323  0.0473 -0.1457
 7966TIP3    H145389   0.710   3.253  14.200 -0.3984 -0.5755 -0.2031
 7966TIP3    H245390   0.689   3.337  14.324  1.4460  0.5029 -0.5804
 7967TIP3   OH245391   0.250   5.056  15.739 -0.1597  0.0008 -0.4177
 7967TIP3    H145392   0.201   5.138  15.741  1.1534  0.8464 -1.7344
 7967TIP3    H245393   0.190   4.991  15.775 -2.3351  0.9580 -2.1997
 7968TIP3   OH245394   2.939   2.921  13.094  0.2281  0.1945 -0.4936
 7968TIP3    H145395   2.868   2.973  13.132 -0.1171 -0.8548  0.3301
 7968TIP3    H245396   2.917   2.830  13.117  1.8263 -0.1456 -0.2209
 7969TIP3   OH245397   1.003   0.595  16.306  0.1859  0.2001  0.8605
 7969TIP3    H145398   1.015   0.599  16.211  0.1712 -0.8767  0.8072
 7969TIP3    H245399   1.089   0.619  16.342  0.1949  0.6002  0.5792
 7970TIP3   OH245400   5.956   1.935  15.605 -0.3863 -0.4726 -0.5957
 7970TIP3    H145401   6.051   1.929  15.593 -0.2649  0.8483 -0.3194
 7970TIP3    H245402   5.930   2.014  15.558 -1.2244 -0.3389  0.0755
 7971TIP3   OH245403   3.277   3.578   5.913 -0.4612 -0.2339 -0.4545
 7971TIP3    H145404   3.234   3.540   5.837  0.3124 -1.1777 -0.4311
 7971TIP3    H245405   3.370   3.575   5.893 -0.2398 -0.6097  0.5659
 7972TIP3   OH245406   6.626   2.369   2.559  0.2955  0.1263 -0.9354
 7972TIP3    H145407   6.597   2.443   2.612 -1.1402 -2.2890  1.8087
 7972TIP3    H245408   6.687   2.322   2.615  0.7005 -1.1322 -2.3949
 7973TIP3   OH245409   4.114   4.341  14.048  0.0390 -0.0672 -0.9284
 7973TIP3    H145410   4.066   4.421  14.067  0.1562  0.3532 -2.3926
 7973TIP3    H245411   4.113   4.333  13.953 -0.5892 -2.1824 -0.7776
 7974TIP3   OH245412   4.422   3.613   3.346  0.2763  0.0904  0.5444
 7974TIP3    H145413   4.390   3.634   3.434 -0.4890 -1.6243  0.6917
 7974TIP3    H245414   4.368   3.666   3.287 -0.1725  0.1806  1.0323
 7975TIP3   OH245415   3.404   3.257  14.324  0.2369 -0.8194  0.2184
 7975TIP3    H145416   3.316   3.275  14.291  0.6192 -1.5369 -1.2415
 7975TIP3    H245417   3.446   3.208  14.254  2.0891  0.2537  0.5317
 7976TIP3   OH245418   4.942   0.324   4.780  0.1250  0.6404 -0.2945
 7976TIP3    H145419   5.033   0.353   4.778  0.3433 -0.1614 -2.8658
 7976TIP3    H245420   4.946   0.232   4.806  0.3171 -0.2513 -3.3264
 7977TIP3   OH245421   1.833   2.740  13.293  0.1025 -0.5831  0.3795
 7977TIP3    H145422   1.874   2.805  13.237  1.4050  0.2039  2.1971
 7977TIP3    H245423   1.906   2.687  13.325 -0.3935  0.1262  2.7621
 7978TIP3   OH245424   1.841   0.359   0.109  0.1268 -0.5384  0.4191
 7978TIP3    H145425   1.823   0.306   0.031  0.7909  1.3064 -1.0118
 7978TIP3    H245426   1.935   0.371   0.109  0.0935 -0.2276  1.3319
 7979TIP3   OH245427   0.349   1.539  14.592 -0.3563 -0.3844  0.0052
 7979TIP3    H145428   0.312   1.452  14.600 -1.8744  0.1515 -0.9593
 7979TIP3    H245429   0.273   1.598  14.585  0.6365  0.8668 -0.6159
 7980TIP3   OH245430   4.243   2.349  16.064  0.1515 -0.3299 -0.1050
 7980TIP3    H145431   4.299   2.276  16.089  0.2823 -0.1264  0.1940
 7980TIP3    H245432   4.177   2.310  16.007 -0.1525 -0.7925  0.5620
 7981TIP3   OH245433   2.261   6.615   4.937 -0.3848 -0.4168 -0.1370
 7981TIP3    H145434   2.194   6.596   5.002 -0.0251  0.2264  0.4228
 7981TIP3    H245435   2.315   6.536   4.934 -0.1126 -0.2543  0.6866
 7982TIP3   OH245436   6.740   2.625   4.638 -0.2941 -0.0749  0.3836
 7982TIP3    H145437   6.665   2.676   4.669 -0.1478  0.3330  0.0832
 7982TIP3    H245438   6.764   2.569   4.711 -1.7259 -1.1776  0.0386
 7983TIP3   OH245439   0.535   0.738  13.382 -0.3478 -0.6525  0.1398
 7983TIP3    H145440   0.479   0.811  13.354  0.3929 -1.1488 -2.7420
 7983TIP3    H245441   0.622   0.777  13.392  0.0704 -1.1052 -1.4993
 7984TIP3   OH245442   0.868   4.562   0.421  0.1186 -0.1387  0.1511
 7984TIP3    H145443   0.897   4.482   0.464 -0.9368 -1.7949 -2.1639
 7984TIP3    H245444   0.808   4.603   0.484 -1.1585 -2.3552  0.3988
 7985TIP3   OH245445   5.449   0.266   1.359 -0.5671 -0.0552  0.0294
 7985TIP3    H145446   5.456   0.262   1.264  1.4247  0.8710  0.1086
 7985TIP3    H245447   5.462   0.358   1.381  0.7951 -0.5158  1.2891
 7986TIP3   OH245448   6.189   4.207   4.986 -0.0977 -0.3001 -0.0407
 7986TIP3    H145449   6.252   4.278   4.993  1.1497 -1.1611 -2.1019
 7986TIP3    H245450   6.238   4.135   4.946 -1.6958 -1.8738  0.7575
 7987TIP3   OH245451   4.982   4.446  13.639 -0.0884  0.1737 -0.5081
 7987TIP3    H145452   4.914   4.379  13.638  0.5809 -0.5158 -1.3594
 7987TIP3    H245453   4.944   4.519  13.589  0.4607 -0.9177 -2.6020
 7988TIP3   OH245454   4.322   6.015   3.859  0.4021  0.6346  0.4723
 7988TIP3    H145455   4.261   6.005   3.932  0.5535 -2.2750  0.2208
 7988TIP3    H245456   4.283   6.084   3.805 -2.9989 -1.5492 -0.0066
 7989TIP3   OH245457   0.995   6.354   5.571 -0.7461 -0.0454  0.1204
 7989TIP3    H145458   0.934   6.427   5.568  0.0781  0.7117  1.4809
 7989TIP3    H245459   1.076   6.391   5.607 -0.4216 -1.6908  1.1420
 7990TIP3   OH245460   5.937   2.174  15.452 -0.1721 -0.1171  0.4646
 7990TIP3    H145461   6.013   2.191  15.397 -0.4557 -2.2101 -0.5846
 7990TIP3    H245462   5.922   2.257  15.498  1.3460  0.9920 -1.0085
 7991TIP3   OH245463   4.451   4.950  11.340 -0.0464 -0.2800  0.4312
 7991TIP3    H145464   4.383   5.017  11.340 -0.4674 -0.6755 -0.9460
 7991TIP3    H245465   4.527   4.992  11.379 -0.4853  0.8165  0.1218
 7992TIP3   OH245466   6.145   6.014   6.143 -0.2547 -0.6215  0.3534
 7992TIP3    H145467   6.088   6.075   6.189 -1.6935 -1.7108  0.0784
 7992TIP3    H245468   6.159   5.943   6.206  0.1881 -0.7019  0.1615
 7993TIP3   OH245469   6.186   2.075   5.181  0.1261 -0.2165 -0.4788
 7993TIP3    H145470   6.227   2.023   5.250  2.0419 -0.1052 -1.4971
 7993TIP3    H245471   6.148   2.010   5.122 -0.2306 -0.3660 -0.0828
 7994TIP3   OH245472   5.949   2.686   4.729  0.0226 -0.7104 -0.2214
 7994TIP3    H145473   5.926   2.753   4.664  0.9610 -0.4174 -0.2607
 7994TIP3    H245474   5.900   2.609   4.701 -0.9006 -0.1085 -0.3030
 7995TIP3   OH245475   5.758   0.176  14.689 -0.2533 -0.5859  0.0428
 7995TIP3    H145476   5.850   0.170  14.716 -0.5047 -0.5125  0.9321
 7995TIP3    H245477   5.734   0.086  14.666  0.2403 -0.4881 -0.8597
 7996TIP3   OH245478   5.030   2.839  11.637 -0.2368 -0.3154  0.0980
 7996TIP3    H145479   4.978   2.891  11.575 -1.5342 -0.5803  0.9407
 7996TIP3    H245480   5.113   2.886  11.645 -0.3214  0.0973 -1.3004
 7997TIP3   OH245481   4.005   0.029  11.474 -0.0291 -0.5876  0.3391
 7997TIP3    H145482   3.988  -0.044  11.533 -1.5329 -0.4645  0.0924
 7997TIP3    H245483   3.951   0.010  11.397  0.8604 -0.0607 -0.4313
 7998TIP3   OH245484   4.320   0.676   1.532  0.0988 -0.3635  0.0745
 7998TIP3    H145485   4.410   0.645   1.537  0.6638  0.7347 -2.3024
 7998TIP3    H245486   4.311   0.736   1.606  1.1700 -0.8277  0.5876
 7999TIP3   OH245487   2.055   3.750   5.186 -0.1049  0.0386 -0.8248
 7999TIP3    H145488   2.103   3.715   5.111  0.4808  0.6005 -0.7178
 7999TIP3    H245489   2.102   3.717   5.263 -1.3490 -1.4368 -0.6847
 8000TIP3   OH245490   4.420   4.537  16.940 -0.1441  0.4872  0.7012
 8000TIP3    H145491   4.505   4.554  16.899 -0.2156 -0.0725  0.3020
 8000TIP3    H245492   4.366   4.501  16.869 -0.0247 -1.2311  1.4600
 8001TIP3   OH245493   5.152   4.573   5.883  0.0424 -0.5091 -0.4718
 8001TIP3    H145494   5.072   4.617   5.854 -0.2552 -0.1043  0.9018
 8001TIP3    H245495   5.127   4.481   5.892 -0.3557 -0.3341  0.2398
 8002TIP3   OH245496   6.453   5.168  14.959  0.3067  0.4149 -0.5189
 8002TIP3    H145497   6.370   5.122  14.953  0.0592  0.5688  1.3835
 8002TIP3    H245498   6.432   5.249  15.004  1.4437  0.5824 -0.2779
 8003TIP3   OH245499   4.133   0.249   1.447  0.3722 -0.3074 -0.0419
 8003TIP3    H145500   4.169   0.332   1.414 -2.4124  1.0578  0.1765
 8003TIP3    H245501   4.154   0.250   1.540  1.0418 -0.2076 -0.1937
 8004TIP3   OH245502   5.700   4.942   3.886 -0.9083  0.0449 -0.4956
 8004TIP3    H145503   5.633   4.922   3.820  0.0347 -2.0238 -0.8753
 8004TIP3    H245504   5.762   4.868   3.880 -0.4406  0.1819  2.2341
 8005TIP3   OH245505   1.800   6.102   0.275  0.1344 -0.2661  0.3096
 8005TIP3    H145506   1.864   6.040   0.312  1.1000  0.1223 -0.6687
 8005TIP3    H245507   1.731   6.107   0.340 -1.5092 -4.7457 -0.9398
 8006TIP3   OH245508   5.101   6.502   1.315  0.3693  0.2880 -0.1534
 8006TIP3    H145509   5.094   6.597   1.304 -3.9659  0.1089  0.2906
 8006TIP3    H245510   5.071   6.467   1.231  0.6622 -0.6990  0.1544
 8007TIP3   OH245511   6.120   5.204  13.577  0.0455  0.3327 -0.2751
 8007TIP3    H145512   6.146   5.217  13.486 -1.2921 -0.2473 -0.7524
 8007TIP3    H245513   6.025   5.216  13.577 -0.4144 -2.9242  0.4297
 8008TIP3   OH245514   4.018   5.650  14.308  0.2004 -0.5375  0.8756
 8008TIP3    H145515   4.067   5.573  14.336  0.8396  0.0095  1.2699
 8008TIP3    H245516   4.084   5.719  14.300 -0.3318 -0.0877  0.2978
 8009TIP3   OH245517   6.321   5.982  14.622  0.0252  0.3935  0.1724
 8009TIP3    H145518   6.377   6.060  14.617 -0.0105  0.4095  0.0486
 8009TIP3    H245519   6.346   5.941  14.705 -2.2270  2.2697  1.8311
 8010TIP3   OH245520   5.421   4.203  12.587 -0.0784  0.2438  0.3583
 8010TIP3    H145521   5.507   4.220  12.548 -1.1783  0.7460 -1.9136
 8010TIP3    H245522   5.414   4.107  12.587  0.1576  0.2203 -0.2175
 8011TIP3   OH245523   0.619   1.375  11.872  0.3254  0.5777 -0.0182
 8011TIP3    H145524   0.524   1.377  11.862  0.4791  0.3532 -1.5397
 8011TIP3    H245525   0.652   1.415  11.792  1.4836  1.8309  1.0669
 8012TIP3   OH245526   1.144   4.655   5.029 -0.6130 -0.3846  0.6521
 8012TIP3    H145527   1.173   4.745   5.048  1.5196 -0.7774 -0.5180
 8012TIP3    H245528   1.072   4.640   5.090 -0.9671  2.0915  0.9302
 8013TIP3   OH245529   1.311   2.848   2.452  0.2172 -0.5384  0.0157
 8013TIP3    H145530   1.294   2.907   2.379  0.5541 -1.1315 -0.5456
 8013TIP3    H245531   1.239   2.785   2.450 -1.0252  0.7644  1.5843
 8014TIP3   OH245532   1.221   1.239  16.772  0.2002  0.0304  0.6108
 8014TIP3    H145533   1.262   1.325  16.763  0.7027 -0.2813 -0.1357
 8014TIP3    H245534   1.139   1.246  16.724  1.0870 -0.4501 -1.0231
 8015TIP3   OH245535   3.566   0.347   5.804  0.8835 -0.0262 -0.2145
 8015TIP3    H145536   3.495   0.303   5.757  0.7010  1.6296 -1.5578
 8015TIP3    H245537   3.523   0.420   5.848  1.6755  0.8169 -0.7980
 8016TIP3   OH245538   0.870   5.307  15.562 -0.7011  0.8501 -0.5674
 8016TIP3    H145539   0.801   5.286  15.499  1.2759 -1.0429 -2.1841
 8016TIP3    H245540   0.917   5.225  15.575  1.9753  2.3244 -0.4249
 8017TIP3   OH245541   2.464   1.843   5.906  0.0293 -0.0429  0.7600
 8017TIP3    H145542   2.381   1.798   5.921 -0.2277  0.2670  0.2926
 8017TIP3    H245543   2.466   1.858   5.811  1.3285 -1.4165  0.5633
 8018TIP3   OH245544   4.260   6.427  15.906  0.3137 -0.3233  0.4957
 8018TIP3    H145545   4.259   6.466  15.818 -0.9506 -2.2166 -0.3621
 8018TIP3    H245546   4.187   6.365  15.906  1.7351 -2.0754  2.0999
 8019TIP3   OH245547   6.381   4.568   5.285  0.3384 -0.0161 -0.4790
 8019TIP3    H145548   6.305   4.510   5.286  0.2630  0.0448  2.8176
 8019TIP3    H245549   6.350   4.649   5.245 -1.3158 -0.0280  0.7314
 8020TIP3   OH245550   3.134   4.866  13.896 -0.4571 -0.4040 -0.1753
 8020TIP3    H145551   3.109   4.830  13.982 -2.1174 -0.5303 -0.6966
 8020TIP3    H245552   3.079   4.944  13.886  0.4775  0.2052 -0.6869
 8021TIP3   OH245553   1.230   5.805   7.113 -0.0071  0.5618  0.8216
 8021TIP3    H145554   1.184   5.725   7.088  0.9339  0.0145  0.8213
 8021TIP3    H245555   1.309   5.774   7.159 -0.2792  1.5038  1.9606
 8022TIP3   OH245556   5.231   1.880  15.869  0.0751  0.0790 -0.1791
 8022TIP3    H145557   5.168   1.945  15.838  2.2336  1.9489 -0.7572
 8022TIP3    H245558   5.257   1.912  15.956 -0.2637 -1.0465  0.3449
 8023TIP3   OH245559   4.525   3.800  15.064  0.6301  0.3753 -0.7616
 8023TIP3    H145560   4.466   3.872  15.040  0.0855  0.4785  0.8106
 8023TIP3    H245561   4.603   3.814  15.010  0.6713  2.3613 -0.2547
 8024TIP3   OH245562   1.479   2.066   2.563  0.0039  0.1994  0.1433
 8024TIP3    H145563   1.461   2.147   2.611 -1.4283 -0.4780  0.7597
 8024TIP3    H245564   1.485   2.094   2.471 -2.4793  0.7405  0.1014
 8025TIP3   OH245565   3.103   6.522  15.038  0.1548 -1.1581 -0.2975
 8025TIP3    H145566   3.064   6.568  15.112 -0.0884 -0.0842 -1.0738
 8025TIP3    H245567   3.071   6.570  14.961  3.1599 -0.1487 -0.9673
 8026TIP3   OH245568   3.520   3.403  12.805  0.3749  0.8344  0.0346
 8026TIP3    H145569   3.471   3.427  12.883  1.0215 -1.9004  1.3416
 8026TIP3    H245570   3.492   3.314  12.786  2.2535  0.4896 -1.2554
 8027TIP3   OH245571   6.744   5.753  11.583  0.2592  0.1176 -0.1055
 8027TIP3    H145572   6.754   5.672  11.632  0.3843  0.7009  0.8319
 8027TIP3    H245573   6.655   5.748  11.546  0.6055 -0.8648 -0.8386
 8028TIP3   OH245574   0.941   3.561  16.726  0.0634 -0.4624  0.2009
 8028TIP3    H145575   1.010   3.573  16.791  0.3678 -1.4349  0.0701
 8028TIP3    H245576   0.902   3.476  16.749 -0.1507 -0.5780 -0.5872
 8029TIP3   OH245577   6.251   6.775   5.347  0.2014 -0.3310  0.0754
 8029TIP3    H145578   6.305   6.785   5.425 -0.3180 -0.1505  0.4157
 8029TIP3    H245579   6.194   6.852   5.346 -2.3083 -2.0735  1.5273
 8030TIP3   OH245580   5.613   3.068  16.084 -0.5535  0.1703 -0.2332
 8030TIP3    H145581   5.680   3.028  16.139  2.6406  4.2761 -0.8868
 8030TIP3    H245582   5.636   3.042  15.995 -0.5614  0.5420 -0.3449
 8031TIP3   OH245583   0.072   3.120  13.617 -0.1872  0.2763 -0.3703
 8031TIP3    H145584   0.083   3.155  13.706 -0.1587  0.9019 -0.6146
 8031TIP3    H245585   0.059   3.198  13.563 -1.4027 -0.1761 -0.7426
 8032TIP3   OH245586   6.292   6.291   4.331  0.0572 -0.6534 -0.5453
 8032TIP3    H145587   6.286   6.300   4.426  0.3316 -0.6131 -0.5309
 8032TIP3    H245588   6.386   6.291   4.313  0.0264 -1.8316 -0.7111
 8033TIP3   OH245589   5.414   3.921  11.299  0.8187  0.2451  0.1454
 8033TIP3    H145590   5.417   3.834  11.337  1.3994 -0.4198 -1.3796
 8033TIP3    H245591   5.341   3.918  11.237  1.0942  0.7204 -0.2094
 8034TIP3   OH245592   2.419   6.397   1.987 -0.3049 -0.5157  0.0685
 8034TIP3    H145593   2.327   6.375   2.002 -0.7106  0.9143 -0.2838
 8034TIP3    H245594   2.464   6.312   1.989 -1.1940 -0.9809  3.2101
 8035TIP3   OH245595   2.737   5.871   0.822  0.4319 -0.3790 -0.0080
 8035TIP3    H145596   2.655   5.916   0.801  0.9762  0.3501 -0.5889
 8035TIP3    H245597   2.709   5.784   0.851 -0.4872 -0.6017 -1.5049
 8036TIP3   OH245598   0.513   0.816   3.902  0.1106 -0.4820 -0.2511
 8036TIP3    H145599   0.513   0.872   3.825 -1.2125 -1.9806 -1.3680
 8036TIP3    H245600   0.434   0.841   3.950  0.9293  0.4470  0.6500
 8037TIP3   OH245601   1.162   0.675   2.118 -0.3263 -0.1997 -0.2778
 8037TIP3    H145602   1.226   0.691   2.049  0.8653  2.1999  1.3010
 8037TIP3    H245603   1.084   0.724   2.091  0.4647  1.5338  0.4871
 8038TIP3   OH245604   6.733   0.316   2.880 -0.0545  0.2104  0.0480
 8038TIP3    H145605   6.823   0.347   2.866 -0.3858  1.5267  0.7736
 8038TIP3    H245606   6.696   0.307   2.792 -0.1221  2.3925 -0.1673
 8039TIP3   OH245607   4.098   4.684  13.734 -0.3316  0.4538  0.1300
 8039TIP3    H145608   4.179   4.730  13.754  1.2322 -1.5037 -1.4302
 8039TIP3    H245609   4.091   4.617  13.802 -0.1478  0.0334 -0.2634
 8040TIP3   OH245610   6.733   5.321   2.346 -0.5232  0.1088 -0.4674
 8040TIP3    H145611   6.773   5.279   2.270  2.1905  0.8657  0.5055
 8040TIP3    H245612   6.667   5.258   2.376 -0.4156 -0.9652 -2.3499
 8041TIP3   OH245613   4.262   1.165   0.372  0.2550 -0.2440 -0.3016
 8041TIP3    H145614   4.182   1.138   0.418  0.0071 -1.7625 -1.5585
 8041TIP3    H245615   4.332   1.143   0.433 -0.2360  0.4005  0.5083
 8042TIP3   OH245616   6.241   0.856   3.167 -0.2314  0.0756  0.1120
 8042TIP3    H145617   6.312   0.915   3.194 -2.2196  1.7759  1.7724
 8042TIP3    H245618   6.194   0.905   3.099 -0.6655 -0.4712  0.0148
 8043TIP3   OH245619   4.069   5.308  13.421 -0.1842  0.8266 -0.3239
 8043TIP3    H145620   4.036   5.363  13.492 -2.2268 -0.5721 -0.1512
 8043TIP3    H245621   3.994   5.299  13.362  0.3923 -1.0728 -0.7815
 8044TIP3   OH245622   6.589   2.561   4.166  0.1838  0.3157 -0.6092
 8044TIP3    H145623   6.553   2.474   4.154  0.3325  0.2982 -0.9238
 8044TIP3    H245624   6.599   2.570   4.261 -1.8448  0.8076 -0.4322
 8045TIP3   OH245625   4.319   1.920   4.684 -0.0031 -0.1208  0.0714
 8045TIP3    H145626   4.328   1.829   4.656  0.3772  0.0335 -0.3148
 8045TIP3    H245627   4.398   1.937   4.735 -0.4241 -0.2270  0.7707
 8046TIP3   OH245628   3.205   2.012   4.236 -0.3533 -0.0931 -0.1789
 8046TIP3    H145629   3.139   2.002   4.305 -0.4476 -0.3432 -0.3058
 8046TIP3    H245630   3.287   2.029   4.282 -0.5594  0.5009 -0.0267
 8047TIP3   OH245631   1.768   0.837   4.535 -0.6238 -0.1550  0.3967
 8047TIP3    H145632   1.683   0.804   4.564 -0.3195 -1.3223 -0.0013
 8047TIP3    H245633   1.815   0.759   4.504  0.1523  0.6520 -0.4935
 8048TIP3   OH245634   3.875   6.142   1.053  0.5968  0.6388 -0.0811
 8048TIP3    H145635   3.823   6.206   1.005 -0.3684  0.9721  1.3804
 8048TIP3    H245636   3.935   6.194   1.106  2.2957  0.2552 -1.6124
 8049TIP3   OH245637   2.269   5.749  11.400 -0.3181  0.1718  0.1654
 8049TIP3    H145638   2.224   5.819  11.353  0.1615  2.0184  2.3678
 8049TIP3    H245639   2.201   5.686  11.422 -1.4422  1.7792  1.3937
 8050TIP3   OH245640   2.259   4.427  15.809  0.6423  0.2693 -0.4099
 8050TIP3    H145641   2.353   4.430  15.792  0.4512 -0.3222 -1.6639
 8050TIP3    H245642   2.229   4.517  15.794  0.8414  0.2294 -1.0654
 8051TIP3   OH245643   4.159   0.091   4.833  0.0189 -0.0062  0.5765
 8051TIP3    H145644   4.120   0.004   4.825 -0.2869  0.3280 -1.8672
 8051TIP3    H245645   4.196   0.109   4.746 -0.0022  2.3392  1.0177
 8052TIP3   OH245646   3.652   1.125   6.368 -0.1984  0.1822 -0.0901
 8052TIP3    H145647   3.691   1.039   6.348 -0.0078 -0.8128  3.9801
 8052TIP3    H245648   3.728   1.182   6.382 -0.1307 -0.5223  2.9083
 8053TIP3   OH245649   1.994   2.407  10.875 -0.0515  0.2736  0.3205
 8053TIP3    H145650   1.950   2.322  10.879  1.0492 -0.2313  2.2844
 8053TIP3    H245651   2.049   2.403  10.797  0.4808 -1.0615  0.7583
 8054TIP3   OH245652   3.516   4.158   4.213 -0.2056 -0.1325 -0.0830
 8054TIP3    H145653   3.433   4.205   4.202 -1.1461 -1.0123  2.7501
 8054TIP3    H245654   3.524   4.104   4.135 -2.1460  0.2123 -0.5449
 8055TIP3   OH245655   3.877   1.572   1.209 -0.0472  0.3406  0.4956
 8055TIP3    H145656   3.834   1.533   1.285  0.2411  0.9938  0.9956
 8055TIP3    H245657   3.893   1.498   1.150 -1.8098  0.0737  0.3119
 8056TIP3   OH245658   3.725   3.573  12.734 -0.0554 -0.3663  1.1141
 8056TIP3    H145659   3.791   3.506  12.716 -1.4412 -1.1443 -1.4221
 8056TIP3    H245660   3.650   3.525  12.768 -0.2273  0.1795  1.5060
 8057TIP3   OH245661   5.752   5.474  15.506  0.3831  0.0690 -0.1234
 8057TIP3    H145662   5.752   5.411  15.435  2.4642  1.1123 -1.1063
 8057TIP3    H245663   5.753   5.559  15.462 -2.9808  0.8413  1.1619
 8058TIP3   OH245664   4.272   4.594   5.812  0.1792 -0.2261 -0.3155
 8058TIP3    H145665   4.273   4.510   5.859 -0.0134  0.3711  0.7713
 8058TIP3    H245666   4.355   4.635   5.834 -0.7458  0.9354  1.1373
 8059TIP3   OH245667   6.198   2.041  11.201 -0.0225  0.7926  0.2864
 8059TIP3    H145668   6.248   2.118  11.173  0.1210  0.0779 -1.4878
 8059TIP3    H245669   6.122   2.039  11.143  0.8435 -1.3449 -0.8203
 8060TIP3   OH245670   2.414   6.268   6.404  0.0014 -0.0125  0.4365
 8060TIP3    H145671   2.352   6.336   6.379 -1.2702 -0.6846  1.7215
 8060TIP3    H245672   2.375   6.226   6.481  2.0561 -0.4123  1.3102
 8061TIP3   OH245673   3.370   1.361   4.870 -0.6242  1.0170  0.2728
 8061TIP3    H145674   3.414   1.362   4.954 -0.1202 -0.3285  0.0390
 8061TIP3    H245675   3.301   1.295   4.879  0.8497 -0.7837 -1.0341
 8062TIP3   OH245676   0.241   4.623   3.574  0.1900  0.0900  0.2301
 8062TIP3    H145677   0.286   4.539   3.585  1.5598  0.9901  1.6848
 8062TIP3    H245678   0.222   4.627   3.481 -1.2393 -2.5127  0.3534
 8063TIP3   OH245679   3.040   5.942  14.310 -0.7475 -0.7754  0.0634
 8063TIP3    H145680   3.071   6.016  14.256  0.7951 -1.5085 -0.0970
 8063TIP3    H245681   3.090   5.867  14.278 -2.0660 -1.8372  0.4512
 8064TIP3   OH245682   0.580   6.079   0.021  0.0152  0.0063 -0.1147
 8064TIP3    H145683   0.618   6.136  -0.045  0.3659 -0.0109  0.0731
 8064TIP3    H245684   0.488   6.072  -0.004  0.4208 -1.0744 -1.3759
 8065TIP3   OH245685   3.805   3.888   2.242  0.2641 -0.3252  0.7031
 8065TIP3    H145686   3.723   3.845   2.269 -0.6107  1.7099  1.3947
 8065TIP3    H245687   3.790   3.912   2.150  0.2095 -0.2227  0.7389
 8066TIP3   OH245688   4.409   3.159  14.244  0.2049 -0.2206  0.0383
 8066TIP3    H145689   4.480   3.147  14.307  0.2242 -2.0161 -0.3079
 8066TIP3    H245690   4.444   3.124  14.162 -0.3434  0.7781 -0.6277
 8067TIP3   OH245691   1.313   4.047  12.491 -0.0840  0.1764  0.5782
 8067TIP3    H145692   1.319   3.988  12.416 -0.5103  1.7085 -0.6983
 8067TIP3    H245693   1.228   4.090  12.481 -0.3591  0.0230  2.2311
 8068TIP3   OH245694   0.265   3.729  16.976 -0.2836 -0.2867 -0.4621
 8068TIP3    H145695   0.313   3.811  16.966 -0.0383  0.0437  2.7927
 8068TIP3    H245696   0.307   3.669  16.915  2.1138  0.9260 -0.0557
 8069TIP3   OH245697   3.428   3.347   4.501 -0.6127  0.0813 -0.6920
 8069TIP3    H145698   3.451   3.437   4.477 -2.6435  0.8304  0.0585
 8069TIP3    H245699   3.414   3.302   4.418  1.4615  0.1499 -1.1040
 8070TIP3   OH245700   6.207   5.014  15.034  0.0772  0.1030 -0.5374
 8070TIP3    H145701   6.241   4.927  15.055 -0.3363 -0.1258 -0.7838
 8070TIP3    H245702   6.203   5.015  14.938  0.7597  0.6637 -0.5622
 8071TIP3   OH245703   3.547   6.095   5.871  0.2623  0.2305  0.3071
 8071TIP3    H145704   3.452   6.102   5.877  0.0157  0.2634 -2.6107
 8071TIP3    H245705   3.561   6.035   5.797  2.5177  1.6820 -0.4800
 8072TIP3   OH245706   1.998   1.330   4.809 -0.2627 -0.3519  0.9837
 8072TIP3    H145707   2.077   1.277   4.822  0.9147  1.8175  2.9595
 8072TIP3    H245708   2.030   1.416   4.784 -2.1315 -0.1970 -1.0694
 8073TIP3   OH245709   5.301   1.516   2.841  0.4447 -0.0795  0.0991
 8073TIP3    H145710   5.377   1.562   2.806  1.1298 -0.3110  1.2673
 8073TIP3    H245711   5.233   1.583   2.847  0.3144 -0.0383 -1.6504
 8074TIP3   OH245712   3.664   3.763  15.209 -0.3854  0.2952  0.2223
 8074TIP3    H145713   3.724   3.802  15.145  2.0347 -0.7059  1.7816
 8074TIP3    H245714   3.644   3.676  15.175  1.6500 -0.5980  1.2344
 8075TIP3   OH245715   2.478   0.391   1.246  0.4442 -0.7007 -0.0948
 8075TIP3    H145716   2.413   0.454   1.213  0.4931 -1.3561 -1.4605
 8075TIP3    H245717   2.427   0.312   1.266  0.4775 -0.4468  1.0377
 8076TIP3   OH245718   5.078   0.752  14.607 -0.7045 -0.2274  0.5153
 8076TIP3    H145719   5.089   0.657  14.600 -0.9727 -0.2297  0.0655
 8076TIP3    H245720   4.992   0.768  14.569 -0.5383  0.2315  0.3356
 8077TIP3   OH245721   2.739   1.718  12.620 -0.1858 -0.0140  0.0836
 8077TIP3    H145722   2.688   1.751  12.693  1.3461  1.0419  0.7122
 8077TIP3    H245723   2.682   1.655  12.576 -2.0533  1.2380  0.6718
 8078TIP3   OH245724   3.839   4.990   3.756 -0.2312  0.1659  0.5105
 8078TIP3    H145725   3.901   5.063   3.752 -1.6142  1.3619  0.4435
 8078TIP3    H245726   3.894   4.912   3.752  1.1753  1.1982 -1.3320
 8079TIP3   OH245727   2.513   2.187  15.133  0.0584  0.2092  0.7882
 8079TIP3    H145728   2.454   2.136  15.077  0.6776 -0.8927  1.1121
 8079TIP3    H245729   2.512   2.140  15.217  0.8898  0.5499  0.9944
 8080TIP3   OH245730   5.637   1.817   2.070 -0.0937 -0.6603  0.4745
 8080TIP3    H145731   5.546   1.810   2.041 -0.5521  0.6705  1.5836
 8080TIP3    H245732   5.675   1.732   2.049 -1.0433 -0.5424 -1.8859
 8081TIP3   OH245733   3.759   1.823  11.430 -0.4698  0.1385 -0.1489
 8081TIP3    H145734   3.806   1.742  11.449 -0.6345 -0.0790 -0.6632
 8081TIP3    H245735   3.752   1.867  11.515  2.4688  1.1493 -0.4066
 8082TIP3   OH245736   5.935   0.053   1.508 -0.2342 -0.4493 -0.0248
 8082TIP3    H145737   5.940   0.008   1.424  2.9487 -0.2529 -0.0044
 8082TIP3    H245738   6.024   0.050   1.543 -0.9781  1.5531  2.2600
 8083TIP3   OH245739   4.731   4.079   2.460  0.1015 -0.0183 -0.0602
 8083TIP3    H145740   4.676   4.156   2.445 -0.4392 -0.5910 -1.0603
 8083TIP3    H245741   4.687   4.031   2.530 -0.1959 -0.0163 -0.2446
 8084TIP3   OH245742   2.766   6.086  13.046 -0.0935 -0.1058  0.4824
 8084TIP3    H145743   2.735   6.172  13.018 -0.8758 -0.3867  0.4752
 8084TIP3    H245744   2.759   6.031  12.968  0.9805 -0.0286  0.3253
 8085TIP3   OH245745   2.946   3.887   6.476  0.6303  0.1575  0.0013
 8085TIP3    H145746   2.871   3.940   6.449 -0.6353 -1.9039 -0.6280
 8085TIP3    H245747   3.003   3.884   6.399  1.5243  1.9453  0.5634
 8086TIP3   OH245748   5.959   2.299   2.814 -0.2092  0.5695 -0.6126
 8086TIP3    H145749   6.037   2.337   2.854  0.4711  0.5296 -1.8872
 8086TIP3    H245750   5.900   2.374   2.802  0.1894  0.8396 -0.9240
 8087TIP3   OH245751   5.218   5.338  16.851  0.1159  0.1547 -0.2608
 8087TIP3    H145752   5.187   5.324  16.940 -0.2548  1.1687 -0.2265
 8087TIP3    H245753   5.143   5.377  16.805  0.3431 -0.2398 -0.9822
 8088TIP3   OH245754   2.425   6.421   4.894 -0.0944 -0.3242  0.5251
 8088TIP3    H145755   2.500   6.423   4.835  1.1800 -0.5500  2.1152
 8088TIP3    H245756   2.380   6.339   4.872  0.6688 -0.6754  0.2429
 8089TIP3   OH245757   5.176   1.991  14.550  0.2333  0.4106 -0.1720
 8089TIP3    H145758   5.187   2.085  14.535  0.1078  0.3506 -0.6347
 8089TIP3    H245759   5.261   1.953  14.526  0.9672  0.6332  1.9629
 8090TIP3   OH245760   0.384   3.378   2.121  0.1972  0.6639  0.2374
 8090TIP3    H145761   0.359   3.470   2.116 -1.9463  0.0578 -0.5123
 8090TIP3    H245762   0.436   3.363   2.042 -1.5338  0.6343 -0.9208
 8091TIP3   OH245763   3.424   5.125  12.712 -0.0784  0.1350 -0.3810
 8091TIP3    H145764   3.375   5.054  12.753 -1.4592  0.4545 -1.4813
 8091TIP3    H245765   3.360   5.195  12.699  1.1036  1.3175  0.0199
 8092TIP3   OH245766   3.274   6.311  12.734 -0.1466 -0.0297  0.3860
 8092TIP3    H145767   3.340   6.271  12.678 -0.9973 -0.7157 -0.1145
 8092TIP3    H245768   3.209   6.243  12.748 -2.2432  1.5330 -1.4859
 8093TIP3   OH245769   5.461   3.264   1.193  0.0544  0.2173 -0.1739
 8093TIP3    H145770   5.528   3.295   1.132  3.2614  1.2346  3.6057
 8093TIP3    H245771   5.478   3.170   1.201  0.9124  0.4293  0.5855
 8094TIP3   OH245772   6.726   3.634  13.243  0.4990  0.0902 -0.1321
 8094TIP3    H145773   6.815   3.598  13.235  0.5870  0.2917 -0.0620
 8094TIP3    H245774   6.673   3.559  13.271  0.6941  0.0315  0.0867
 8095TIP3   OH245775   5.535   2.223  15.322  0.4697 -0.0471  0.5317
 8095TIP3    H145776   5.571   2.257  15.404 -0.2923  1.2283  0.3589
 8095TIP3    H245777   5.501   2.301  15.277 -0.0047 -0.8621 -0.5457
 8096TIP3   OH245778   3.918   1.717  16.693  0.1734  0.7252  0.2991
 8096TIP3    H145779   3.919   1.696  16.786  1.2782  1.0260  0.3597
 8096TIP3    H245780   3.957   1.805  16.688 -0.1555  0.8334 -0.4116
 8097TIP3   OH245781   1.599   6.241   1.666 -0.1360 -0.1867 -0.6707
 8097TIP3    H145782   1.606   6.165   1.724  1.9217  0.2544 -0.2928
 8097TIP3    H245783   1.684   6.244   1.621 -0.7738  0.9717 -1.8131
 8098TIP3   OH245784   3.143   2.079   4.812  0.2727 -0.2696 -1.1771
 8098TIP3    H145785   3.126   2.164   4.771 -1.0970 -1.0295 -2.1772
 8098TIP3    H245786   3.134   2.096   4.906 -1.1779  0.4410 -1.4292
 8099TIP3   OH245787   6.730   2.902   0.632 -0.4065  0.4793  0.1188
 8099TIP3    H145788   6.766   2.912   0.544 -1.7113 -3.8510 -1.0390
 8099TIP3    H245789   6.806   2.890   0.689  0.3396  1.0683 -0.7506
 8100TIP3   OH245790   5.043   3.788  12.037  0.4767  0.9750 -0.3341
 8100TIP3    H145791   5.058   3.698  12.006  0.6441  0.8147  0.2023
 8100TIP3    H245792   5.112   3.839  11.995 -0.1223  0.9981 -1.2920
 8101TIP3   OH245793   1.993   3.097  13.822 -0.3694 -0.3065  0.2707
 8101TIP3    H145794   2.077   3.140  13.840 -0.0472 -0.9069  0.2161
 8101TIP3    H245795   2.009   3.044  13.744 -0.0861 -2.4021  1.7326
 8102TIP3   OH245796   5.852   3.497   4.075  0.1484  0.2200  0.1641
 8102TIP3    H145797   5.890   3.521   4.160 -1.3693  1.5682  0.4914
 8102TIP3    H245798   5.808   3.414   4.091  0.2574  0.2430  0.5940
 8103TIP3   OH245799   4.950   0.070   4.242 -0.4249 -0.0065 -0.3447
 8103TIP3    H145800   4.982  -0.006   4.291  1.9534  0.4068 -1.1482
 8103TIP3    H245801   4.951   0.142   4.305  0.5405  0.0569 -0.4221
 8104TIP3   OH245802   6.364   4.350  14.224 -0.8151  0.4036  0.3371
 8104TIP3    H145803   6.296   4.294  14.186 -0.4324  0.2265 -0.0899
 8104TIP3    H245804   6.447   4.312  14.194 -0.4810 -0.1243  1.8638
 8105TIP3   OH245805   2.577   5.938   0.320 -0.0994  0.1354  0.0785
 8105TIP3    H145806   2.605   5.858   0.276 -0.6875  0.0408 -0.1326
 8105TIP3    H245807   2.521   5.908   0.391  0.6308  0.3031  0.7325
 8106TIP3   OH245808   6.530   5.197  11.602 -0.5726  0.5626  0.0919
 8106TIP3    H145809   6.482   5.274  11.573  2.0117  0.9920 -3.3982
 8106TIP3    H245810   6.479   5.122  11.569 -0.0208  0.9576 -1.7060
 8107TIP3   OH245811   2.112   6.678   4.693 -0.8763 -0.9058  0.3539
 8107TIP3    H145812   2.152   6.660   4.778  0.8741  0.0227 -0.2356
 8107TIP3    H245813   2.049   6.747   4.710 -0.3869 -0.5816  0.8641
 8108TIP3   OH245814   3.809   4.569   2.678 -0.4135  0.4945  0.9879
 8108TIP3    H145815   3.741   4.560   2.611 -0.4106 -0.5106  1.1198
 8108TIP3    H245816   3.840   4.659   2.668 -0.2771  0.2883 -0.4994
 8109TIP3   OH245817   0.650   0.482  14.637  0.0173 -0.2296 -0.2953
 8109TIP3    H145818   0.650   0.445  14.725  0.0350  0.8163  0.1455
 8109TIP3    H245819   0.720   0.435  14.592 -0.0789 -0.8642  0.2011
 8110TIP3   OH245820   0.090   6.569  15.487 -0.6348 -0.2565  0.3330
 8110TIP3    H145821   0.178   6.570  15.526  0.9293  2.6695 -3.0129
 8110TIP3    H245822   0.049   6.650  15.518 -0.7712  0.2054 -1.0404
 8111TIP3   OH245823   5.101   0.575   0.175 -0.3651 -0.3810 -0.0222
 8111TIP3    H145824   5.145   0.649   0.133 -0.5413  0.3894  1.1275
 8111TIP3    H245825   5.120   0.586   0.268 -0.7781 -1.5288  0.1993
 8112TIP3   OH245826   1.742   5.709   3.938 -0.0391 -0.1180 -0.5685
 8112TIP3    H145827   1.725   5.671   4.024  0.8753 -0.1456 -0.3870
 8112TIP3    H245828   1.767   5.800   3.956  1.0740 -0.3830 -0.7189
 8113TIP3   OH245829   5.235   6.740  13.302  0.2771 -0.1775  0.0955
 8113TIP3    H145830   5.315   6.791  13.319  0.7430 -0.2287 -1.8431
 8113TIP3    H245831   5.252   6.695  13.219 -2.1199  0.5683 -0.8621
 8114TIP3   OH245832   3.760   5.260   2.598 -0.0686  0.1284  0.6382
 8114TIP3    H145833   3.715   5.198   2.540 -0.5509 -1.4415  2.6601
 8114TIP3    H245834   3.838   5.286   2.549 -0.5713 -1.0105 -0.8129
 8115TIP3   OH245835   0.486   4.000  11.495 -0.1486  0.4321  0.4317
 8115TIP3    H145836   0.507   3.988  11.588  0.4102  0.7540  0.3432
 8115TIP3    H245837   0.570   4.015  11.453 -0.6087  2.2657  0.1581
 8116TIP3   OH245838   2.547   5.324   2.378  0.2151  0.0828  0.4867
 8116TIP3    H145839   2.509   5.411   2.363  2.9664  1.3311  0.4451
 8116TIP3    H245840   2.540   5.311   2.472 -0.6691  0.1224  0.4290
 8117TIP3   OH245841   5.510   6.819  13.415 -0.0299  0.1225  0.3158
 8117TIP3    H145842   5.481   6.909  13.428 -0.0582 -0.0577  1.5435
 8117TIP3    H245843   5.550   6.794  13.498  2.5050 -0.0751 -0.9133
 8118TIP3   OH245844   5.594   2.491  13.695  0.3955  0.2116  0.5646
 8118TIP3    H145845   5.542   2.458  13.622  0.2299 -0.8302  1.1449
 8118TIP3    H245846   5.679   2.448  13.685  0.8872  1.2981  0.0738
 8119TIP3   OH245847   4.854   1.794  16.654  0.4757 -0.1609 -0.3586
 8119TIP3    H145848   4.934   1.845  16.665 -1.7452  3.2670  0.7747
 8119TIP3    H245849   4.849   1.777  16.560  2.9262 -1.1611 -0.3427
 8120TIP3   OH245850   2.902   3.414   3.173  0.5333  0.0249  0.2063
 8120TIP3    H145851   2.851   3.495   3.165 -0.7592 -0.5157  2.6727
 8120TIP3    H245852   2.992   3.445   3.188 -0.0247  1.0300  1.5914
 8121TIP3   OH245853   4.795   1.718  16.402 -0.8967  0.2738 -0.2862
 8121TIP3    H145854   4.702   1.704  16.423 -1.0948  1.5036 -0.3335
 8121TIP3    H245855   4.829   1.630  16.384 -2.1752 -0.1194 -0.7904
 8122TIP3   OH245856   1.089   5.683   3.944 -0.4554 -0.9438 -0.2754
 8122TIP3    H145857   1.084   5.744   4.017  0.7280 -1.0507 -0.0938
 8122TIP3    H245858   1.005   5.692   3.898 -0.2694  0.8242 -0.2756
 8123TIP3   OH245859   2.884   2.112   2.520  0.1000  0.3037 -0.1813
 8123TIP3    H145860   2.848   2.031   2.482 -0.2034  0.6392 -0.6117
 8123TIP3    H245861   2.823   2.134   2.590  0.5636 -0.2204  0.3918
 8124TIP3   OH245862   2.932   0.412   3.488 -0.3400  0.5383  0.0970
 8124TIP3    H145863   2.952   0.344   3.552  0.3540  0.5469 -0.1075
 8124TIP3    H245864   2.875   0.369   3.424 -1.4340  0.6582  0.9720
 8125TIP3   OH245865   4.172   0.349   1.814 -0.1869  0.1309  0.6552
 8125TIP3    H145866   4.198   0.427   1.864  0.8568  0.4947 -0.4098
 8125TIP3    H245867   4.227   0.279   1.848 -0.3329  0.1121  0.8499
 8126TIP3   OH245868   5.320   6.814   1.110 -0.4132  0.1112 -0.6278
 8126TIP3    H145869   5.259   6.888   1.109 -2.1596 -1.2762 -0.0692
 8126TIP3    H245870   5.364   6.821   1.195 -1.6120 -0.2732  0.0476
 8127TIP3   OH245871   3.833   1.130   2.449 -0.1168 -0.0428 -0.2670
 8127TIP3    H145872   3.797   1.197   2.391  2.9862  1.3494 -0.7214
 8127TIP3    H245873   3.875   1.180   2.519 -1.3599 -1.6518  1.6793
 8128TIP3   OH245874   4.767   3.342  12.707  0.9509 -0.2181 -0.2538
 8128TIP3    H145875   4.719   3.423  12.715 -0.0792 -0.7993 -0.5249
 8128TIP3    H245876   4.753   3.314  12.617  1.6139 -0.5087 -0.2746
 8129TIP3   OH245877   3.744   0.561   2.266 -0.0004  0.6109  0.5467
 8129TIP3    H145878   3.828   0.590   2.230  1.2070 -1.4429  1.5973
 8129TIP3    H245879   3.689   0.640   2.267  2.0782  2.0936  0.3301
 8130TIP3   OH245880   5.550   1.881  12.371 -0.1239  0.3063  0.2607
 8130TIP3    H145881   5.556   1.964  12.418 -0.4380 -0.2453  1.2932
 8130TIP3    H245882   5.463   1.881  12.332 -0.1826  0.3948  0.3914
 8131TIP3   OH245883   6.369   3.888  11.538  0.1074 -0.1838 -0.0001
 8131TIP3    H145884   6.322   3.826  11.483  0.7771  0.2295 -1.0714
 8131TIP3    H245885   6.395   3.838  11.615  2.7125 -1.9163 -1.9108
 8132TIP3   OH245886   0.140   2.879   5.375  0.1834  0.1231  0.0432
 8132TIP3    H145887   0.131   2.962   5.422 -1.4050  0.0849 -0.1894
 8132TIP3    H245888   0.126   2.812   5.442  1.6342  0.0193  0.2651
 8133TIP3   OH245889   0.987   4.505   4.019 -0.5307  0.2322 -0.4668
 8133TIP3    H145890   0.963   4.444   4.088 -0.6941  1.3612  0.4745
 8133TIP3    H245891   0.977   4.454   3.938 -1.2484 -0.7972  0.2570
 8134TIP3   OH245892   5.967   2.872  13.981 -0.6712 -0.0426 -0.0703
 8134TIP3    H145893   5.997   2.781  13.977  1.8263  0.7608 -1.1057
 8134TIP3    H245894   5.969   2.894  14.074 -0.7505 -0.8774  0.1306
 8135TIP3   OH245895   5.845   6.540  14.525 -0.1782  0.2047  0.2161
 8135TIP3    H145896   5.783   6.610  14.546 -0.3380  0.1364 -0.0206
 8135TIP3    H245897   5.853   6.543  14.429 -0.7231 -0.5473  0.1411
 8136TIP3   OH245898   1.631   6.153   5.969 -0.0873 -0.5794  0.2358
 8136TIP3    H145899   1.695   6.210   6.011 -0.1236  0.3767 -0.9748
 8136TIP3    H245900   1.657   6.151   5.877 -1.2079 -0.9687 -0.0819
 8137TIP3   OH245901   2.219   4.440   3.371  0.1192 -0.5695 -0.1039
 8137TIP3    H145902   2.161   4.423   3.445  0.4786  1.3494  0.6416
 8137TIP3    H245903   2.166   4.493   3.311  0.3455 -0.7739 -0.4858
 8138TIP3   OH245904   4.955   2.854  16.187 -1.4115  0.3226  0.3029
 8138TIP3    H145905   4.976   2.905  16.109 -0.5802 -0.5690 -0.0676
 8138TIP3    H245906   4.870   2.888  16.215 -2.0534  0.2072 -1.3889
 8139TIP3   OH245907   0.036   3.648   2.933 -0.2457 -0.4692  0.0945
 8139TIP3    H145908   0.131   3.641   2.947 -0.0888 -1.2444 -1.2258
 8139TIP3    H245909   0.027   3.691   2.848 -1.0820 -0.2872  0.2715
 8140TIP3   OH245910   2.734   3.839   2.789 -0.0018  0.1733 -0.1596
 8140TIP3    H145911   2.771   3.907   2.731 -3.4049  1.1587 -1.2834
 8140TIP3    H245912   2.763   3.757   2.751 -0.2674  0.8813 -1.9498
 8141TIP3   OH245913   1.012   3.813   2.069 -0.3044 -0.1307 -0.1941
 8141TIP3    H145914   1.094   3.851   2.100 -0.7378  0.0359  0.7645
 8141TIP3    H245915   0.954   3.816   2.145 -1.1425 -0.4098 -0.8161
 8142TIP3   OH245916   5.311   4.424  12.717  0.9156 -0.2184  0.4458
 8142TIP3    H145917   5.337   4.418  12.808  3.6781 -0.5895 -0.3307
 8142TIP3    H245918   5.344   4.344  12.676 -0.5156 -0.1916 -0.8287
 8143TIP3   OH245919   1.166   0.916   2.721  0.1384  0.1177 -0.4868
 8143TIP3    H145920   1.254   0.953   2.726 -0.6887  2.2375 -0.9348
 8143TIP3    H245921   1.153   0.872   2.805  1.3545  0.4132 -0.1405
 8144TIP3   OH245922   2.763   5.987   1.126  0.2493 -0.0649  0.2044
 8144TIP3    H145923   2.730   5.969   1.038 -2.8447 -0.4227  1.3335
 8144TIP3    H245924   2.778   6.081   1.128 -2.7258  0.4770  0.1683
 8145TIP3   OH245925   0.762   2.479  11.099  0.2393  0.1070 -0.5441
 8145TIP3    H145926   0.732   2.569  11.085  0.9227  1.0968  3.6024
 8145TIP3    H245927   0.856   2.482  11.079  0.3307  0.4162 -0.0783
 8146TIP3   OH245928   2.722   5.699  16.036  0.0917 -0.0480  0.3367
 8146TIP3    H145929   2.664   5.770  16.009 -1.6362 -1.5820 -0.1094
 8146TIP3    H245930   2.688   5.672  16.122  1.5471  0.5182  1.1068
 8147TIP3   OH245931   4.983   1.398  16.483 -0.2227 -0.1828  0.3995
 8147TIP3    H145932   5.058   1.366  16.433  0.9224  0.8395  1.4199
 8147TIP3    H245933   4.923   1.433  16.418  1.5617  1.7955 -0.2242
 8148TIP3   OH245934   2.687   2.159   4.405 -0.0655  0.1082  0.2314
 8148TIP3    H145935   2.737   2.177   4.486 -0.7027 -0.7741  0.8326
 8148TIP3    H245936   2.745   2.187   4.335  0.3345  1.2765  1.0170
 8149TIP3   OH245937   4.506   0.842   6.231  0.4122 -0.1070  0.1117
 8149TIP3    H145938   4.422   0.866   6.191 -0.0382 -1.8296 -0.0273
 8149TIP3    H245939   4.568   0.838   6.158 -0.3016 -2.7754 -0.4112
 8150TIP3   OH245940   5.543   4.358   4.288 -0.7479 -0.0474  0.4232
 8150TIP3    H145941   5.496   4.276   4.302  2.3187 -2.4724 -2.6143
 8150TIP3    H245942   5.618   4.352   4.348  1.8681 -1.6047 -2.8476
 8151TIP3   OH245943   2.380   2.253   6.159  0.1300 -0.1969 -0.2304
 8151TIP3    H145944   2.333   2.173   6.137  0.4452 -0.6763  0.8061
 8151TIP3    H245945   2.410   2.240   6.249  1.7543  0.3295 -0.6722
 8152TIP3   OH245946   2.399   4.238  17.081 -0.6794 -0.2960 -0.6574
 8152TIP3    H145947   2.306   4.250  17.094 -0.8938 -1.8559 -0.6915
 8152TIP3    H245948   2.409   4.231  16.986 -0.5019  0.0696 -0.6669
 8153TIP3   OH245949   0.018   1.846  12.758 -0.1906  0.7406 -0.1996
 8153TIP3    H145950  -0.046   1.917  12.752 -1.3826 -0.3542 -0.8897
 8153TIP3    H245951   0.051   1.837  12.669 -0.3721  0.1324 -0.2035
 8154TIP3   OH245952   3.369   5.550   4.717 -0.5548 -0.2398  0.5760
 8154TIP3    H145953   3.452   5.591   4.741  0.8878 -0.9333 -2.9434
 8154TIP3    H245954   3.344   5.593   4.635 -1.4678 -3.0107 -0.6354
 8155TIP3   OH245955   3.021   0.562  16.735  0.4497  0.0800  1.1290
 8155TIP3    H145956   2.949   0.534  16.792 -0.6062 -0.5420 -0.5053
 8155TIP3    H245957   3.088   0.595  16.796  0.2077 -2.5383  2.8741
 8156TIP3   OH245958   0.283   3.641  12.999  0.9755 -0.1950  0.2077
 8156TIP3    H145959   0.356   3.597  12.955  0.2294  1.2351 -2.6081
 8156TIP3    H245960   0.293   3.733  12.975 -1.6348  0.0460 -0.1182
 8157TIP3   OH245961   5.543   2.057  14.076 -0.3775  0.1406  0.0902
 8157TIP3    H145962   5.516   2.149  14.081 -3.0985 -0.4885 -1.5918
 8157TIP3    H245963   5.572   2.046  13.986 -2.5015 -1.2102 -0.4712
 8158TIP3   OH245964   5.874   3.766  12.325  0.0847 -0.1674 -0.0218
 8158TIP3    H145965   5.969   3.759  12.337  0.0721 -0.7889 -0.2859
 8158TIP3    H245966   5.841   3.677  12.338 -0.0886 -0.6223 -3.1570
 8159TIP3   OH245967   4.708   0.645  16.169 -0.3521 -0.2121 -0.4072
 8159TIP3    H145968   4.619   0.678  16.156 -0.7245 -1.4132 -0.9776
 8159TIP3    H245969   4.738   0.687  16.249 -2.1234 -1.2345  0.8207
 8160TIP3   OH245970   5.796   3.686   3.384  0.1102 -0.3730 -0.0458
 8160TIP3    H145971   5.842   3.602   3.379 -0.2371 -0.4732 -1.9678
 8160TIP3    H245972   5.704   3.663   3.369 -0.0904  0.2604  0.2189
 8161TIP3   OH245973   4.259   1.983  10.060  0.3286  0.4916  0.2339
 8161TIP3    H145974   4.264   1.954   9.969 -1.0783  0.4851  0.1450
 8161TIP3    H245975   4.322   2.054  10.066  0.0991  0.8076 -0.8788
 8162TIP3   OH245976   1.661   5.059  14.932 -0.5074 -0.1722 -0.2010
 8162TIP3    H145977   1.572   5.039  14.903 -0.4002 -1.2097  0.1354
 8162TIP3    H245978   1.717   5.002  14.879  0.0633  1.3670 -1.2764
 8163TIP3   OH245979   0.287   3.706   3.206 -0.3527 -0.1195 -0.4191
 8163TIP3    H145980   0.372   3.663   3.193 -0.5925 -0.9943  0.8003
 8163TIP3    H245981   0.227   3.656   3.151 -0.0794  0.4930 -1.2746
 8164TIP3   OH245982   2.702   5.012  10.733 -0.1784  0.6346  0.1747
 8164TIP3    H145983   2.748   5.039  10.654  2.4708  0.8412  1.7129
 8164TIP3    H245984   2.655   5.090  10.762  1.9908  1.7406  0.8831
 8165TIP3   OH245985   0.361   1.990   0.676  0.0804 -0.2623 -0.8113
 8165TIP3    H145986   0.377   1.902   0.709 -2.0282 -1.0445 -1.7838
 8165TIP3    H245987   0.441   2.039   0.698  0.9069 -2.1532  0.5464
 8166TIP3   OH245988   1.349   0.704   4.551 -0.3507  0.0717 -0.0521
 8166TIP3    H145989   1.437   0.700   4.589 -1.0812 -0.6335  1.6007
 8166TIP3    H245990   1.342   0.623   4.501 -0.0958  0.0966 -0.1338
 8167TIP3   OH245991   0.401   0.204  13.003 -0.3801 -0.1131  0.2802
 8167TIP3    H145992   0.493   0.188  13.024  0.5500  1.4341 -2.3688
 8167TIP3    H245993   0.389   0.165  12.916 -2.1763 -0.1134  0.5049
 8168TIP3   OH245994   4.200   0.299  12.837  0.8566 -0.1836 -0.5757
 8168TIP3    H145995   4.136   0.267  12.900  1.2525 -1.0192 -0.6005
 8168TIP3    H245996   4.148   0.335  12.765  0.3217  3.2947  1.4376
 8169TIP3   OH245997   1.878   1.899   3.554 -0.1937  0.4367  0.4887
 8169TIP3    H145998   1.829   1.979   3.536 -0.2770  0.2426 -0.1318
 8169TIP3    H245999   1.822   1.828   3.522  1.3495  0.3184 -2.0267
 8170TIP3   OH246000   0.119   6.523  14.379 -0.0263  0.8393 -0.4475
 8170TIP3    H146001   0.213   6.531  14.364 -0.2477 -0.6094 -2.7792
 8170TIP3    H246002   0.112   6.484  14.466  1.5793 -0.3928 -0.8498
 8171TIP3   OH246003   0.210   0.116   6.100  0.2278  0.2137 -0.0634
 8171TIP3    H146004   0.227   0.026   6.071  2.1631  1.1124 -1.8585
 8171TIP3    H246005   0.287   0.140   6.151  0.3344  1.2944 -0.7084
 8172TIP3   OH246006   6.383   5.947   0.633 -0.4046 -0.4764 -0.2219
 8172TIP3    H146007   6.352   5.934   0.723 -1.2489  1.2259 -0.2637
 8172TIP3    H246008   6.402   6.040   0.627  0.8507 -0.7903 -1.4511
 8173TIP3   OH246009   0.175   1.517   6.449 -0.4299 -0.4530  1.1506
 8173TIP3    H146010   0.234   1.444   6.433 -0.4333 -0.4652  1.1935
 8173TIP3    H246011   0.229   1.585   6.489 -0.0402  0.2338 -0.4939
 8174TIP3   OH246012   6.272   5.730  14.236 -0.6633 -0.2754  0.0295
 8174TIP3    H146013   6.209   5.689  14.176 -1.1970  1.3675 -0.5687
 8174TIP3    H246014   6.220   5.757  14.311 -0.1745 -1.3754  0.7782
 8175TIP3   OH246015   5.506   6.093   0.438  0.2389 -0.1116 -0.1541
 8175TIP3    H146016   5.418   6.059   0.455 -0.3105  0.5848 -1.5466
 8175TIP3    H246017   5.493   6.186   0.419  1.4916  0.4023  1.4651
 8176TIP3   OH246018   6.019   3.170  13.758 -0.2329  1.0888  0.1695
 8176TIP3    H146019   5.976   3.195  13.676 -0.1693 -1.1446 -0.5760
 8176TIP3    H246020   5.948   3.165  13.822 -0.9976 -1.4505 -0.7957
 8177TIP3   OH246021   1.838   5.055  11.125  0.2929  0.1463 -0.3076
 8177TIP3    H146022   1.906   5.102  11.174 -0.9970  1.6768  0.0425
 8177TIP3    H246023   1.875   5.041  11.038  1.6901 -0.4854  0.3840
 8178TIP3   OH246024   6.767   4.835   2.844  0.2014 -0.1776  0.0334
 8178TIP3    H146025   6.715   4.897   2.896  0.9472  0.6220 -0.1501
 8178TIP3    H246026   6.837   4.808   2.903  0.4545 -0.0740 -0.2223
 8179TIP3   OH246027   5.539   1.575  16.461 -0.0791 -0.4243 -0.1268
 8179TIP3    H146028   5.487   1.513  16.411  1.0245 -1.4512 -0.0343
 8179TIP3    H246029   5.532   1.657  16.414 -1.0773 -0.7715 -0.5769
 8180TIP3   OH246030   5.249   3.897  11.882  0.2852 -0.3033  0.5704
 8180TIP3    H146031   5.274   3.811  11.918  0.4123 -0.3708  0.3230
 8180TIP3    H246032   5.268   3.890  11.789  0.0641 -0.0874  0.5083
 8181TIP3   OH246033   3.369   3.959   5.561 -0.4448 -0.1090  0.5790
 8181TIP3    H146034   3.406   4.042   5.592 -1.6544  0.6890 -0.0502
 8181TIP3    H246035   3.356   3.972   5.467  1.4987 -1.8572  0.0462
 8182TIP3   OH246036   1.461   4.203  15.527 -0.5855 -0.4780 -0.3726
 8182TIP3    H146037   1.377   4.181  15.487 -0.1330  0.1372 -1.7011
 8182TIP3    H246038   1.458   4.298  15.540 -0.8302 -0.6986  1.3421
 8183TIP3   OH246039   2.748   4.016   0.130 -0.6248 -0.3202 -0.0215
 8183TIP3    H146040   2.790   4.102   0.127 -0.9144 -0.2067 -0.6983
 8183TIP3    H246041   2.724   4.005   0.222 -0.9954  0.5172 -0.0157
 8184TIP3   OH246042   4.829   4.728  10.978 -0.1271  0.7238  0.6362
 8184TIP3    H146043   4.815   4.733  10.883  0.1367  0.6618  0.5933
 8184TIP3    H246044   4.745   4.753  11.016 -0.4697 -0.0050  0.3789
 8185TIP3   OH246045   6.311   0.426  12.247  0.7094 -0.6712  0.5538
 8185TIP3    H146046   6.317   0.522  12.252  0.8257 -0.5444 -1.5032
 8185TIP3    H246047   6.375   0.402  12.180 -2.0367 -1.8174 -1.7784
 8186TIP3   OH246048   6.409   4.034   6.353  0.1803  0.1326  0.2113
 8186TIP3    H146049   6.442   4.097   6.289  1.8285 -1.5812 -0.6786
 8186TIP3    H246050   6.475   4.033   6.423  0.5537 -1.1375 -0.1443
 8187TIP3   OH246051   6.022   3.031  15.096  0.6956 -0.1034  0.4103
 8187TIP3    H146052   6.058   3.042  15.184 -1.0685  0.5457  1.0809
 8187TIP3    H246053   5.927   3.031  15.109  0.2585  3.9424 -1.8694
 8188TIP3   OH246054   0.571   5.364   4.066 -0.3056  0.2608  0.2700
 8188TIP3    H146055   0.610   5.298   4.123 -1.0686  0.7840  1.4353
 8188TIP3    H246056   0.633   5.437   4.068  0.7805 -0.6131 -1.4243
 8189TIP3   OH246057   1.559   1.476  15.070  0.0072 -0.2559  0.2026
 8189TIP3    H146058   1.596   1.524  14.996 -1.8858 -1.4101 -1.5539
 8189TIP3    H246059   1.473   1.516  15.085  0.8069  0.6949  2.5384
 8190TIP3   OH246060   6.767   0.938   2.732  0.2505  0.8650  0.3372
 8190TIP3    H146061   6.719   1.011   2.770  0.9262  1.7742 -0.5091
 8190TIP3    H246062   6.715   0.860   2.753 -1.7135  1.8479 -0.8064
 8191TIP3   OH246063   0.693   4.978  12.008  0.1284  0.4278  0.1572
 8191TIP3    H146064   0.787   4.996  12.005  0.1262  0.4408  0.1665
 8191TIP3    H246065   0.652   5.063  11.989  0.1046  0.7526  1.5919
 8192TIP3   OH246066   6.276   1.011   3.974  0.4031  0.0986 -0.6543
 8192TIP3    H146067   6.193   1.058   3.973  0.3849  0.0898  0.2109
 8192TIP3    H246068   6.293   0.990   3.882 -1.5468 -1.6744 -0.6307
 8193TIP3   OH246069   5.585   3.158   4.457  0.6085 -0.1893  0.3542
 8193TIP3    H146070   5.556   3.110   4.534  0.3947 -1.3771 -0.4609
 8193TIP3    H246071   5.507   3.204   4.426  0.4524 -0.5122  0.2660
 8194TIP3   OH246072   2.707   4.376   3.551  0.1085 -0.0252 -0.5135
 8194TIP3    H146073   2.740   4.290   3.578  0.1267  0.2060  0.2046
 8194TIP3    H246074   2.762   4.399   3.475 -0.2122 -0.8537 -1.0122
 8195TIP3   OH246075   2.034   1.566  15.264  0.0537  0.4913  0.0869
 8195TIP3    H146076   2.072   1.525  15.342  0.0371  0.8101  0.2607
 8195TIP3    H246077   2.029   1.659  15.285 -2.7847  0.2011  0.8838
 8196TIP3   OH246078   2.436   4.266   1.614  0.1217 -0.1476  0.0185
 8196TIP3    H146079   2.377   4.339   1.596  0.4112 -0.1031 -0.7602
 8196TIP3    H246080   2.428   4.251   1.708 -0.2286  0.6365  0.1127
 8197TIP3   OH246081   5.609   5.801  12.058  0.8776 -0.0097  0.2257
 8197TIP3    H146082   5.705   5.804  12.055  1.0496 -2.2223  1.9852
 8197TIP3    H246083   5.587   5.715  12.021 -0.4076  0.3335  0.1750
 8198TIP3   OH246084   0.473   2.612  12.026  0.0846 -0.2501 -0.7767
 8198TIP3    H146085   0.381   2.585  12.034  0.7437 -2.6171 -0.9293
 8198TIP3    H246086   0.516   2.573  12.101  0.8942  1.3081 -0.4100
 8199TIP3   OH246087   4.860   1.672  13.874  0.2422 -0.5060 -0.2419
 8199TIP3    H146088   4.784   1.677  13.817  0.7194 -1.3169 -0.9439
 8199TIP3    H246089   4.933   1.701  13.820  0.5621 -0.4660  0.2051
 8200TIP3   OH246090   6.358   3.998   4.924 -0.1562  0.0132  0.3843
 8200TIP3    H146091   6.388   3.951   4.846  0.2746 -1.8895  1.6712
 8200TIP3    H246092   6.419   3.970   4.993 -0.3698  1.8874  1.3437
 8201TIP3   OH246093   1.979   6.728  14.397 -0.6773 -0.2060 -0.4638
 8201TIP3    H146094   1.992   6.727  14.492  0.8799  0.5991 -0.6474
 8201TIP3    H246095   1.951   6.817  14.377  0.7329  0.1472 -0.9512
 8202TIP3   OH246096   4.241   1.063  12.973 -0.0336 -0.2027  0.1679
 8202TIP3    H146097   4.248   0.969  12.989  0.9550 -0.1846 -0.1682
 8202TIP3    H246098   4.188   1.096  13.047 -0.9377 -1.1157 -0.0733
 8203TIP3   OH246099   3.666   5.574  13.255  0.7111  0.3632  0.0343
 8203TIP3    H146100   3.761   5.583  13.251  0.7242  0.6840  0.9658
 8203TIP3    H246101   3.651   5.518  13.331  0.0638  2.0204  1.1661
 8204TIP3   OH246102   1.275   1.570   0.149  0.0850 -0.0286 -0.1040
 8204TIP3    H146103   1.263   1.655   0.192 -0.6781  0.3298 -1.0053
 8204TIP3    H246104   1.364   1.573   0.113  1.3108 -0.9421  2.7661
 8205TIP3   OH246105   2.198   0.244   4.251  0.3877 -0.0138 -0.2856
 8205TIP3    H146106   2.210   0.318   4.193  1.1438 -0.1243 -0.2794
 8205TIP3    H246107   2.260   0.259   4.323  0.3224 -0.4828 -0.1248
 8206TIP3   OH246108   0.386   4.641  15.066  0.0574  0.0859  0.3187
 8206TIP3    H146109   0.417   4.661  14.977 -0.3738  1.3303  0.4458
 8206TIP3    H246110   0.334   4.717  15.091  1.4185  0.4297  2.2266
 8207TIP3   OH246111   6.014   3.967   0.999 -0.6003  0.0645 -0.1667
 8207TIP3    H146112   6.035   3.958   1.092  1.4460  2.5711 -0.3284
 8207TIP3    H246113   5.925   4.003   0.998 -0.2148  1.0766  0.8616
 8208TIP3   OH246114   0.967   3.683  13.492  0.2011  0.4378  0.2495
 8208TIP3    H146115   0.934   3.747  13.555  0.3047  1.0382 -0.2989
 8208TIP3    H246116   0.895   3.621  13.481 -0.2442  0.9753  0.0922
 8209TIP3   OH246117   5.482   2.220   1.620  0.1797 -0.1473 -0.3287
 8209TIP3    H146118   5.471   2.298   1.675 -1.0013  0.9370 -2.0533
 8209TIP3    H246119   5.574   2.197   1.631 -0.0682 -0.1171  2.2763
 8210TIP3   OH246120   5.632   1.234   6.663  0.4318  0.0347  0.4804
 8210TIP3    H146121   5.718   1.270   6.686  0.5549  0.6507 -0.8888
 8210TIP3    H246122   5.571   1.305   6.680  0.4474  0.2801 -0.4735
 8211TIP3   OH246123   3.523   4.210   1.015 -1.1313  0.7700 -0.0178
 8211TIP3    H146124   3.592   4.157   1.055 -1.9759 -0.5422 -0.2929
 8211TIP3    H246125   3.449   4.151   1.006 -1.3393  1.3543 -2.4657
 8212TIP3   OH246126   2.698   0.625  17.146  0.4839  0.2723  0.5225
 8212TIP3    H146127   2.638   0.603  17.076  1.6928 -1.6127  0.0270
 8212TIP3    H246128   2.668   0.573  17.221  0.3995  0.7226  0.7999
 8213TIP3   OH246129   1.579   4.368   0.333  0.8660 -0.4929  0.0315
 8213TIP3    H146130   1.609   4.409   0.414  0.6054 -1.2379  0.5085
 8213TIP3    H246131   1.497   4.324   0.357  0.8834 -0.8713 -0.5951
 8214TIP3   OH246132   5.056   2.977  13.978  0.4516 -0.5345 -0.5081
 8214TIP3    H146133   5.091   2.895  13.943  1.6119 -0.4681  0.4523
 8214TIP3    H246134   5.044   3.033  13.902 -0.0797 -1.4989 -1.1350
 8215TIP3   OH246135   0.399   3.364  11.185  0.2304  0.3756 -0.4110
 8215TIP3    H146136   0.327   3.416  11.220 -0.9595  0.5009 -2.9098
 8215TIP3    H246137   0.356   3.303  11.125  1.9444 -1.3631  0.0995
 8216TIP3   OH246138   3.496   2.702   0.028 -0.2919 -0.3645  0.2936
 8216TIP3    H146139   3.433   2.638  -0.007 -0.1843 -1.5818  2.2626
 8216TIP3    H246140   3.455   2.733   0.109  0.0453  1.4714 -0.2223
 8217TIP3   OH246141   5.555   4.968   1.138 -0.1093  0.2215 -0.2253
 8217TIP3    H146142   5.634   4.914   1.136 -0.0038  0.4090 -2.7146
 8217TIP3    H246143   5.583   5.053   1.102 -1.3742  0.3575 -0.9313
 8218TIP3   OH246144   3.712   3.303   2.895 -0.0173  0.3720  0.4193
 8218TIP3    H146145   3.760   3.364   2.952 -0.0073  2.0412 -1.3140
 8218TIP3    H246146   3.778   3.241   2.864 -0.3683 -1.7947  3.7164
 8219TIP3   OH246147   0.729   1.544   1.207  0.5147 -0.7921  0.3502
 8219TIP3    H146148   0.806   1.494   1.183  1.0720 -0.6290  1.7490
 8219TIP3    H246149   0.666   1.479   1.238  0.3080 -0.8598 -0.1945
 8220TIP3   OH246150   6.526   2.594  11.229  0.1030 -1.0031  0.5254
 8220TIP3    H146151   6.566   2.638  11.154 -0.3367 -0.4632  0.5984
 8220TIP3    H246152   6.577   2.625  11.304  0.4830 -1.4683  0.4579
 8221TIP3   OH246153   2.562   5.319  13.367  0.1860 -0.4755  0.7618
 8221TIP3    H146154   2.531   5.260  13.435  1.0027 -1.3132  0.4231
 8221TIP3    H246155   2.597   5.261  13.299 -2.1669  0.2497 -1.1760
 8222TIP3   OH246156   2.398   3.914   5.372 -0.2079 -0.9658 -0.9163
 8222TIP3    H146157   2.400   4.006   5.345  0.7814 -0.9752 -0.9085
 8222TIP3    H246158   2.315   3.904   5.418  0.2465  0.2593  0.2053
 8223TIP3   OH246159   0.141   2.977  15.849  0.8163  0.2398 -0.4167
 8223TIP3    H146160   0.230   2.963  15.880  1.2409  0.5837 -1.4378
 8223TIP3    H246161   0.116   3.062  15.885  0.0678 -0.8480  1.6932
 8224TIP3   OH246162   0.776   0.151  11.978 -0.0548 -0.2267 -0.3132
 8224TIP3    H146163   0.696   0.195  11.950  0.3785  0.3870 -0.6002
 8224TIP3    H246164   0.775   0.068  11.931 -1.6618 -1.2365  1.4129
 8225TIP3   OH246165   3.579   0.706   4.221  0.2243  0.1385 -0.0369
 8225TIP3    H146166   3.637   0.746   4.286  2.1847 -0.0827 -1.6014
 8225TIP3    H246167   3.590   0.611   4.233  3.9897  0.0010 -3.4807
 8226TIP3   OH246168   1.935   2.088   6.019  0.5985  0.6557 -0.0210
 8226TIP3    H146169   1.947   2.063   6.110 -0.5593  2.1365  0.5703
 8226TIP3    H246170   2.023   2.089   5.982  0.8409 -2.5347  0.3482
 8227TIP3   OH246171   4.764   1.889   4.759  0.3231 -0.5591  0.0292
 8227TIP3    H146172   4.754   1.932   4.674 -1.5066  1.3026  1.1443
 8227TIP3    H246173   4.859   1.881   4.770  0.6664  1.6626 -0.9937
 8228TIP3   OH246174   2.306   3.540  11.901  0.0247 -0.6417 -0.0530
 8228TIP3    H146175   2.376   3.480  11.876  1.5703  0.9304  0.3725
 8228TIP3    H246176   2.301   3.603  11.829  1.1362  1.0101  1.2577
 8229TIP3   OH246177   2.358   5.967  12.857 -0.9605  0.0886 -0.5977
 8229TIP3    H146178   2.317   5.911  12.924  1.0343  0.4342  0.9760
 8229TIP3    H246179   2.425   5.911  12.818 -0.4371  0.6826 -0.5547
 8230TIP3   OH246180   6.667   2.065  14.805 -0.2046  0.5179  0.3663
 8230TIP3    H146181   6.587   2.013  14.805 -0.5149  0.9871  1.3045
 8230TIP3    H246182   6.644   2.145  14.852  0.3521  1.3896 -0.8101
 8231TIP3   OH246183   0.560   4.767  11.782  0.5165 -0.0581 -0.0483
 8231TIP3    H146184   0.638   4.817  11.760 -0.4816  1.4797 -0.1351
 8231TIP3    H246185   0.490   4.832  11.786 -0.7230 -1.3919  0.2252
 8232TIP3   OH246186   5.149   5.632  16.986 -0.2624 -0.7926 -0.0335
 8232TIP3    H146187   5.099   5.583  16.921 -1.0063  0.1334 -0.1695
 8232TIP3    H246188   5.229   5.657  16.940 -0.8242 -0.0634 -0.6429
 8233TIP3   OH246189   1.858   4.439  12.447 -0.3080  0.4135 -0.1672
 8233TIP3    H146190   1.868   4.434  12.352  0.6444 -1.1939  0.0004
 8233TIP3    H246191   1.923   4.504  12.474  1.0827 -0.8632 -0.3880
 8234TIP3   OH246192   2.051   2.069   4.547 -0.4604  0.0946 -0.2031
 8234TIP3    H146193   2.045   2.147   4.601 -1.3472  0.2063 -0.4588
 8234TIP3    H246194   2.020   1.998   4.603  1.9817 -0.3760  0.6156
 8235TIP3   OH246195   0.246   1.646   1.721  0.2182  0.0168 -0.1673
 8235TIP3    H146196   0.255   1.601   1.806  0.9875  1.0680  0.3183
 8235TIP3    H246197   0.173   1.706   1.734  1.6371  1.6444  0.4156
 8236TIP3   OH246198   5.844   5.829  12.185  0.1999 -0.5929 -0.3989
 8236TIP3    H146199   5.887   5.746  12.199  1.8740  0.5734  1.6046
 8236TIP3    H246200   5.774   5.831  12.250  0.1367 -0.4563 -0.4707
 8237TIP3   OH246201   0.653   0.438   0.311  0.6187  0.1870 -0.1793
 8237TIP3    H146202   0.655   0.518   0.257 -1.3260  0.1796 -0.2747
 8237TIP3    H246203   0.608   0.464   0.391  0.7954 -0.6010  0.1782
 8238TIP3   OH246204   4.024   3.288  16.942  0.7012 -0.2607  0.0111
 8238TIP3    H146205   3.947   3.230  16.935  0.8790 -0.8463  2.3119
 8238TIP3    H246206   4.097   3.235  16.910  0.6687 -0.9238  0.9978
 8239TIP3   OH246207   3.874   0.217  12.531  0.5910 -0.0506 -0.1769
 8239TIP3    H146208   3.779   0.211  12.546  1.0572 -2.0147  2.2773
 8239TIP3    H246209   3.888   0.174  12.447 -0.8110  1.2729 -1.1181
 8240TIP3   OH246210   2.871   0.879   2.998 -0.4950  0.6011 -0.0145
 8240TIP3    H146211   2.842   0.845   3.083 -1.3657  1.3513 -0.0087
 8240TIP3    H246212   2.964   0.898   3.011 -0.0599 -1.4685  0.0706
 8241TIP3   OH246213   0.132   0.516   4.814  0.2289  0.3432 -0.2187
 8241TIP3    H146214   0.158   0.592   4.866  1.2380  0.2330 -0.5606
 8241TIP3    H246215   0.174   0.442   4.857 -0.5834 -0.0074 -0.0108
 8242TIP3   OH246216   2.691   3.408  15.815 -0.3699 -0.5062  0.4135
 8242TIP3    H146217   2.756   3.435  15.879 -1.0669  1.9432  0.1602
 8242TIP3    H246218   2.658   3.324  15.847 -0.0401  0.2301  2.7492
 8243TIP3   OH246219   3.824   0.251  11.502  0.8374 -0.4908  0.5872
 8243TIP3    H146220   3.750   0.209  11.457 -0.5507  0.8955  1.5459
 8243TIP3    H246221   3.874   0.178  11.537 -0.0185 -1.4605 -0.1594
 8244TIP3   OH246222   4.821   3.177  10.555 -0.0753  0.0095 -0.0818
 8244TIP3    H146223   4.853   3.127  10.631 -0.2384 -0.8768 -0.5952
 8244TIP3    H246224   4.820   3.114  10.483 -0.1231  0.7977 -0.7783
 8245TIP3   OH246225   3.571   6.712   0.712  0.9351 -0.4056  0.3140
 8245TIP3    H146226   3.509   6.702   0.783 -0.3026 -1.5090 -0.8895
 8245TIP3    H246227   3.611   6.798   0.726 -2.9269  1.6194 -0.4763
 8246TIP3   OH246228   5.711   4.516  11.159  0.0948 -0.4469  0.1708
 8246TIP3    H146229   5.696   4.590  11.101 -0.5021 -0.0756  0.7968
 8246TIP3    H246230   5.763   4.455  11.107  0.6430  0.4331 -0.3221
 8247TIP3   OH246231   2.628   0.480   3.187 -0.2751  0.3062  0.1403
 8247TIP3    H146232   2.561   0.411   3.189 -0.6293  0.6065 -0.8984
 8247TIP3    H246233   2.634   0.504   3.094  0.3205  1.2076  0.4127
 8248TIP3   OH246234   4.187   1.285   1.013  0.5244 -0.6749 -0.2677
 8248TIP3    H146235   4.227   1.198   1.008  0.2894 -0.9797  2.5081
 8248TIP3    H246236   4.160   1.304   0.923  0.2625 -3.6117 -0.8680
 8249TIP3   OH246237   1.653   6.237   4.505 -0.0151 -1.2130 -0.6782
 8249TIP3    H146238   1.655   6.315   4.450 -0.3342  0.4110  1.5241
 8249TIP3    H246239   1.591   6.178   4.461 -0.7630  0.3026 -1.7062
 8250TIP3   OH246240   4.410   4.225   1.422  0.2487 -0.0400 -0.1504
 8250TIP3    H146241   4.431   4.199   1.512 -1.1034 -1.3432 -0.1889
 8250TIP3    H246242   4.458   4.164   1.367  1.1741  0.8344 -0.3423
 8251TIP3   OH246243   5.570   0.647  14.766 -0.0819 -0.1224 -0.4460
 8251TIP3    H146244   5.663   0.638  14.750 -0.3742 -0.1939 -2.1668
 8251TIP3    H246245   5.529   0.582  14.708 -1.2354  0.4737 -0.3127
 8252TIP3   OH246246   0.650   1.792   5.435 -0.4041  0.0519  0.9524
 8252TIP3    H146247   0.736   1.775   5.472 -0.1647  0.0172  0.3863
 8252TIP3    H246248   0.608   1.853   5.496  1.1412  2.4360 -0.3116
 8253TIP3   OH246249   4.475   2.177  14.056  0.7333 -0.0088 -0.1169
 8253TIP3    H146250   4.563   2.205  14.031  0.3728 -0.2837 -1.7324
 8253TIP3    H246251   4.486   2.138  14.143  2.1041  0.4848 -0.0599
 8254TIP3   OH246252   2.242   0.041  12.441 -0.6998 -0.3251 -0.4220
 8254TIP3    H146253   2.219   0.106  12.507 -0.2139 -0.1520 -0.4170
 8254TIP3    H246254   2.200  -0.039  12.471 -0.4010 -0.2720  0.1515
 8255TIP3   OH246255   1.830   1.012  16.216  0.1518 -0.0709 -0.1238
 8255TIP3    H146256   1.752   1.012  16.273  0.0841 -4.0405 -0.1236
 8255TIP3    H246257   1.903   0.996  16.276  0.6489  0.4892 -0.5715
 8256TIP3   OH246258   5.790   1.427   5.615  0.0024 -0.2003  0.5399
 8256TIP3    H146259   5.842   1.484   5.559 -0.8785  0.7543  0.6744
 8256TIP3    H246260   5.823   1.443   5.704 -0.1056 -0.0554  0.5540
 8257TIP3   OH246261   0.877   0.419  10.776  0.6798 -0.2006  0.0133
 8257TIP3    H146262   0.873   0.327  10.750  0.3582 -0.3561  0.6005
 8257TIP3    H246263   0.790   0.454  10.756  0.6849 -0.1195  0.1311
 8258TIP3   OH246264   3.298   0.357  14.444 -0.5963  0.3823 -0.0997
 8258TIP3    H146265   3.216   0.315  14.469  0.1252  0.1612  1.9799
 8258TIP3    H246266   3.277   0.450  14.438 -0.7653  0.4426  1.4113
 8259TIP3   OH246267   4.096   4.292  17.015  0.0335 -0.3835 -0.4590
 8259TIP3    H146268   4.157   4.219  17.019  0.1414 -0.3032 -0.6172
 8259TIP3    H246269   4.132   4.350  16.948 -0.5377 -0.6352 -0.9888
 8260TIP3   OH246270   0.229   3.803   2.313  0.5769  0.3816  0.1659
 8260TIP3    H146271   0.292   3.752   2.263 -0.7234 -0.5352 -0.5640
 8260TIP3    H246272   0.229   3.889   2.270 -1.3398 -0.7238 -2.1644
 8261TIP3   OH246273   0.951   2.218   3.813  0.1031 -0.0305  0.2519
 8261TIP3    H146274   0.949   2.130   3.850 -1.6754 -0.2875 -0.4003
 8261TIP3    H246275   0.925   2.275   3.885 -1.2712 -0.3122 -0.0094
 8262TIP3   OH246276   3.862   2.504  16.149 -0.0670  0.5210 -0.2862
 8262TIP3    H146277   3.790   2.500  16.086  0.5161  0.2600 -0.9489
 8262TIP3    H246278   3.908   2.420  16.138 -0.4665  0.1162  1.0951
 8263TIP3   OH246279   4.694   0.578   3.505 -0.1131  0.3213  0.0030
 8263TIP3    H146280   4.780   0.540   3.484  0.6681  1.3781  1.2509
 8263TIP3    H246281   4.701   0.670   3.480 -0.8368  0.4539  0.2655
 8264TIP3   OH246282   5.546   0.138   2.269 -0.3557 -0.2474 -0.2378
 8264TIP3    H146283   5.629   0.170   2.234  0.0946  0.5902  1.5753
 8264TIP3    H246284   5.480   0.196   2.229  0.0258 -0.1388 -0.7233
 8265TIP3   OH246285   3.008   0.280  14.674 -0.0524  0.0298 -0.1400
 8265TIP3    H146286   2.949   0.332  14.620 -1.4623 -0.2042  1.1213
 8265TIP3    H246287   2.972   0.191  14.670  0.8188 -0.3265 -0.1872
 8266TIP3   OH246288   3.162   4.675   4.152  0.5670  0.4266 -0.0841
 8266TIP3    H146289   3.143   4.699   4.062  2.2015  3.0650  0.2179
 8266TIP3    H246290   3.079   4.686   4.198 -0.3092 -1.0823 -1.2598
 8267TIP3   OH246291   0.142   4.763   3.053 -0.0563  0.1341 -0.4072
 8267TIP3    H146292   0.182   4.848   3.065 -0.5164  0.2419  0.3666
 8267TIP3    H246293   0.070   4.761   3.115 -1.0737 -0.1693 -1.5640
 8268TIP3   OH246294   2.777   4.003   5.655 -0.1375  0.1230 -0.0554
 8268TIP3    H146295   2.709   3.991   5.722  0.1128 -2.5077 -0.2316
 8268TIP3    H246296   2.858   4.008   5.704 -0.1455  0.0860 -0.0380
 8269TIP3   OH246297   2.374   5.482   1.986 -0.0835 -0.0626 -0.4286
 8269TIP3    H146298   2.306   5.470   2.052  0.8101  3.0632  1.1298
 8269TIP3    H246299   2.400   5.393   1.962 -2.0254 -1.2566  1.7320
 8270TIP3   OH246300   3.430   3.532   4.206 -0.1158  0.2914 -0.2157
 8270TIP3    H146301   3.526   3.529   4.203 -0.1497 -1.3797 -0.1245
 8270TIP3    H246302   3.403   3.440   4.207 -1.7360  0.7438 -0.5495
 8271TIP3   OH246303   4.554   2.007  15.139 -0.1738 -0.8801 -0.6885
 8271TIP3    H146304   4.485   2.072  15.129 -0.0504 -0.9032 -1.7296
 8271TIP3    H246305   4.635   2.056  15.125  0.0300 -0.8490  0.5467
 8272TIP3   OH246306   1.768   4.015  16.251  0.4663 -0.5316  0.0887
 8272TIP3    H146307   1.722   3.931  16.247  0.2364 -0.3456 -1.5526
 8272TIP3    H246308   1.712   4.070  16.306  0.0677 -1.1238  0.2821
 8273TIP3   OH246309   3.907   4.365   2.006 -0.6993  0.0251 -0.1127
 8273TIP3    H146310   3.995   4.355   1.969 -0.9296  0.7333 -0.8694
 8273TIP3    H246311   3.862   4.285   1.980 -1.0460  0.7798 -1.9345
 8274TIP3   OH246312   3.070   1.238  14.256  0.6201  0.1059  0.5207
 8274TIP3    H146313   3.031   1.151  14.252 -0.0170  0.2917  2.4318
 8274TIP3    H246314   3.163   1.224  14.238  0.3011 -0.7945 -0.4546
 8275TIP3   OH246315   0.668   2.473   4.080 -0.4795 -0.1309  0.0768
 8275TIP3    H146316   0.686   2.559   4.043 -0.4887  0.3180  1.1079
 8275TIP3    H246317   0.755   2.434   4.093 -0.4494 -0.0348  0.1695
 8276TIP3   OH246318   2.686   4.862   0.747  0.2772 -0.0622 -0.5187
 8276TIP3    H146319   2.615   4.919   0.716  1.0675 -1.1615 -4.6564
 8276TIP3    H246320   2.766   4.914   0.731  0.7644 -1.0417 -1.3255
 8277TIP3   OH246321   1.569   3.531   6.096  0.0978  0.1290 -0.5464
 8277TIP3    H146322   1.661   3.517   6.074  0.3848 -1.2630  1.3980
 8277TIP3    H246323   1.523   3.459   6.052  0.6174 -2.3733  2.7622
 8278TIP3   OH246324   2.694   1.242  16.664  0.3487 -0.2153 -0.5840
 8278TIP3    H146325   2.649   1.217  16.744  1.5042  0.3347  0.2431
 8278TIP3    H246326   2.705   1.159  16.616 -1.5350 -0.3626 -0.8247
 8279TIP3   OH246327   4.422   0.442   3.249  0.0031  0.1159 -1.3178
 8279TIP3    H146328   4.418   0.369   3.188 -0.0122 -2.2113  1.3913
 8279TIP3    H246329   4.339   0.440   3.296 -1.3203  3.8090 -3.2488
 8280TIP3   OH246330   2.197   2.981   1.144 -0.7547  0.0288 -0.4744
 8280TIP3    H146331   2.138   2.979   1.219 -0.7072 -0.7234 -0.4459
 8280TIP3    H246332   2.251   2.902   1.154 -0.1892  0.3649 -0.8513
 8281TIP3   OH246333   4.638   1.666  11.953 -0.0181 -0.0241 -0.0985
 8281TIP3    H146334   4.637   1.582  11.999 -1.4916  0.7280  1.2822
 8281TIP3    H246335   4.590   1.650  11.872 -0.3472 -0.4999  0.1899
 8282TIP3   OH246336   4.795   2.166  11.838 -0.0742 -0.1007 -0.4873
 8282TIP3    H146337   4.758   2.150  11.925  0.1625 -2.0313 -0.7059
 8282TIP3    H246338   4.783   2.260  11.823 -2.3213 -0.1833  0.6150
 8283TIP3   OH246339   3.010   2.538  14.979 -0.4690 -0.0641  0.1924
 8283TIP3    H146340   3.021   2.621  14.934 -0.1062 -0.1139  0.1845
 8283TIP3    H246341   3.074   2.479  14.938 -0.0469 -0.0724  0.8540
 8284TIP3   OH246342   2.687   6.698  12.763 -0.6160 -0.1352 -0.1299
 8284TIP3    H146343   2.755   6.634  12.784 -0.2340 -0.2750 -1.7289
 8284TIP3    H246344   2.625   6.693  12.836  0.7308 -0.4911  0.9973
 8285TIP3   OH246345   3.034   5.806  15.504  0.4735  0.2333 -0.1079
 8285TIP3    H146346   3.052   5.856  15.584  3.0196 -2.1377  0.8735
 8285TIP3    H246347   2.944   5.829  15.482  0.7827  3.4470  1.5768
 8286TIP3   OH246348   6.705   3.568   4.326 -0.5239 -0.1469  0.0407
 8286TIP3    H146349   6.778   3.630   4.324 -1.2561  0.7931  1.3838
 8286TIP3    H246350   6.684   3.552   4.234  1.2794 -0.3356 -0.3617
 8287TIP3   OH246351   4.790   1.554   0.783 -0.2669  0.2484  0.4216
 8287TIP3    H146352   4.740   1.590   0.710  0.7663  0.7542 -0.0442
 8287TIP3    H246353   4.801   1.627   0.844 -0.3113  0.0730  0.6419
 8288TIP3   OH246354   0.933   3.395  15.594  0.4774 -0.4575 -0.2927
 8288TIP3    H146355   0.998   3.426  15.531 -0.5651 -0.5413 -1.4458
 8288TIP3    H246356   0.855   3.377  15.540 -0.1117 -1.4966  0.8848
 8289TIP3   OH246357   4.236   6.609   0.489 -0.6414  0.1868 -0.1964
 8289TIP3    H146358   4.274   6.599   0.401 -1.2432 -0.0231 -0.4340
 8289TIP3    H246359   4.312   6.618   0.547 -0.2228 -0.4653 -0.6430
 8290TIP3   OH246360   1.080   2.713  14.558 -0.2536  0.0924 -0.2496
 8290TIP3    H146361   1.038   2.782  14.609 -2.1165 -0.0852 -1.5090
 8290TIP3    H246362   1.136   2.760  14.496  0.6676  0.3611  0.7647
 8291TIP3   OH246363   6.251   5.418  10.687  0.1224 -0.4502  0.0583
 8291TIP3    H146364   6.245   5.374  10.773  1.6326 -1.2686 -0.2279
 8291TIP3    H246365   6.164   5.408  10.649 -0.4609 -0.4028  1.3466
 8292TIP3   OH246366   3.901   5.839   3.471  0.3669  0.3908 -0.3272
 8292TIP3    H146367   3.931   5.836   3.380  1.5092 -0.7639  0.0792
 8292TIP3    H246368   3.972   5.798   3.521 -0.0122  1.5055  1.1463
 8293TIP3   OH246369   1.808   1.644   1.506  0.0719 -0.0980 -0.2386
 8293TIP3    H146370   1.771   1.678   1.425  2.0082  1.2755 -0.5746
 8293TIP3    H246371   1.749   1.674   1.574 -1.4152 -1.0235 -1.0889
 8294TIP3   OH246372   1.655   0.515   4.871 -0.1206 -0.0191 -0.0126
 8294TIP3    H146373   1.694   0.462   4.941 -0.3321  0.8744  0.7870
 8294TIP3    H246374   1.607   0.584   4.917 -0.4965  0.4083 -1.0392
 8295TIP3   OH246375   1.998   2.744  10.703 -0.5741 -0.1128  0.2915
 8295TIP3    H146376   1.913   2.786  10.686  0.2507  0.5657 -2.2749
 8295TIP3    H246377   2.058   2.816  10.721  0.3564 -0.3099 -1.9334
 8296TIP3   OH246378   1.471   3.325   1.563  0.6925  0.0812  0.2072
 8296TIP3    H146379   1.495   3.388   1.494 -1.0905 -0.3836 -0.8934
 8296TIP3    H246380   1.524   3.248   1.545 -0.5418 -0.4495 -1.3751
 8297TIP3   OH246381   3.657   5.212  12.046  0.3816 -0.1025  0.1414
 8297TIP3    H146382   3.729   5.204  12.108  1.0922  0.9455 -0.5368
 8297TIP3    H246383   3.649   5.306  12.029 -1.1728 -0.1964  0.2345
 8298TIP3   OH246384   2.853   3.716   0.677  0.2842  0.4481 -0.5027
 8298TIP3    H146385   2.761   3.743   0.687  0.1732 -0.4442  0.8737
 8298TIP3    H246386   2.849   3.621   0.666  0.7866  0.7627 -3.9712
 8299TIP3   OH246387   4.646   5.919  16.644  0.1380  0.4455 -0.0125
 8299TIP3    H146388   4.566   5.930  16.594  1.6110 -0.2165 -2.6061
 8299TIP3    H246389   4.677   6.008  16.660 -0.2145  0.6585 -0.5110
 8300TIP3   OH246390   4.670   4.696  14.874 -0.3578  0.1052 -0.2496
 8300TIP3    H146391   4.626   4.780  14.884 -0.0247  0.1817  0.5770
 8300TIP3    H246392   4.740   4.697  14.938  0.2255 -0.4303 -0.8704
 8301TIP3   OH246393   6.125   0.081  13.737 -0.5980 -0.4725 -0.2543
 8301TIP3    H146394   6.083   0.021  13.798 -0.8046 -0.9751 -0.8978
 8301TIP3    H246395   6.109   0.044  13.650  0.3979 -0.2003 -0.5665
 8302TIP3   OH246396   5.800   2.396  10.781 -0.3216  0.2295 -0.3183
 8302TIP3    H146397   5.896   2.405  10.779 -0.1427 -1.4304 -0.0997
 8302TIP3    H246398   5.769   2.452  10.711  0.7639  1.3972  0.1131
 8303TIP3   OH246399   4.949   0.880   1.901  0.5659  0.2976 -0.1654
 8303TIP3    H146400   4.926   0.791   1.930  0.6247  0.2197 -0.3559
 8303TIP3    H246401   4.952   0.873   1.805  1.8108  0.2021 -0.1304
 8304TIP3   OH246402   2.973   5.739   4.215 -0.6849 -0.0467  0.3101
 8304TIP3    H146403   2.939   5.674   4.153  1.3456 -0.7813 -0.0829
 8304TIP3    H246404   2.905   5.747   4.281 -1.8637 -1.0283 -0.7544
 8305TIP3   OH246405   0.083   2.945   4.408  0.0717  0.2301  0.1044
 8305TIP3    H146406   0.177   2.951   4.388  0.2074  0.9952  0.9066
 8305TIP3    H246407   0.055   2.863   4.368  1.2624 -0.4126  0.5353
 8306TIP3   OH246408   1.935   5.217  17.113  0.4403 -0.1445  0.1146
 8306TIP3    H146409   2.013   5.225  17.058  0.6889  1.2539  0.6584
 8306TIP3    H246410   1.966   5.170  17.191  0.2941 -1.3233 -0.5380
 8307TIP3   OH246411   5.769   1.062   3.197 -0.0019 -0.4775  0.0945
 8307TIP3    H146412   5.814   1.045   3.114  1.0134  2.1033  0.0800
 8307TIP3    H246413   5.820   1.014   3.262  0.9367 -0.1170 -0.3645
 8308TIP3   OH246414   0.327   4.096   0.372 -0.1080  0.4096 -0.3622
 8308TIP3    H146415   0.394   4.064   0.311 -1.5462  0.4582 -2.0044
 8308TIP3    H246416   0.356   4.063   0.458  1.2274 -0.8275 -1.2465
 8309TIP3   OH246417   6.771   2.870  16.952  0.0905  0.3737 -0.0731
 8309TIP3    H146418   6.823   2.939  16.911  0.6937 -1.0155 -1.7125
 8309TIP3    H246419   6.683   2.881  16.915  0.4380 -0.3664 -1.1510
 8310TIP3   OH246420   0.368   0.617  16.707  0.5634 -0.7737  0.3038
 8310TIP3    H146421   0.308   0.667  16.762 -1.8808 -0.9518 -2.0961
 8310TIP3    H246422   0.424   0.684  16.667  0.0335 -0.3268  0.2971
 8311TIP3   OH246423   1.920   0.962   0.867 -0.1854  0.6772 -0.2494
 8311TIP3    H146424   1.873   1.044   0.883  0.7930  1.3091 -0.5947
 8311TIP3    H246425   1.927   0.922   0.953 -0.4506  1.0690 -0.0418
 8312TIP3   OH246426   3.934   4.262   0.903  0.2769 -0.6803  0.4212
 8312TIP3    H146427   3.875   4.307   0.964  0.4778 -1.3731  1.1362
 8312TIP3    H246428   3.880   4.195   0.861 -0.1698  0.5939 -1.0748
 8313TIP3   OH246429   1.019   0.033   6.548  0.9066 -0.4505 -0.2096
 8313TIP3    H146430   0.948   0.073   6.598  1.6645  0.9564 -0.2253
 8313TIP3    H246431   1.095   0.088   6.567  1.5245 -0.7253 -1.7981
 8314TIP3   OH246432   3.604   2.266  15.066  0.6163  0.1500 -0.4170
 8314TIP3    H146433   3.616   2.329  15.137  0.9937 -0.3559 -0.0267
 8314TIP3    H246434   3.512   2.276  15.041  0.8440  1.3296 -0.8270
 8315TIP3   OH246435   6.224   5.006   6.133  0.0094  0.1523  0.7310
 8315TIP3    H146436   6.162   4.935   6.145 -0.0103  0.5535  3.3342
 8315TIP3    H246437   6.306   4.964   6.109 -0.8297 -0.4827 -1.1180
 8316TIP3   OH246438   3.419   4.628  14.306 -0.0056 -0.0616 -0.1224
 8316TIP3    H146439   3.442   4.654  14.216  1.8071 -0.2131  0.2779
 8316TIP3    H246440   3.356   4.557  14.295  1.2427 -1.0155 -1.3085
 8317TIP3   OH246441   1.870   2.776  11.697  0.3949 -0.1391 -0.4592
 8317TIP3    H146442   1.934   2.844  11.677  0.2652  0.1001 -0.0645
 8317TIP3    H246443   1.916   2.716  11.756  0.5520 -0.4655 -0.9119
 8318TIP3   OH246444   0.359   6.306   1.246  0.3175  0.3406 -0.4899
 8318TIP3    H146445   0.301   6.230   1.254  0.3752  0.2045 -1.2992
 8318TIP3    H246446   0.384   6.307   1.153 -0.0524  1.6155 -0.5835
 8319TIP3   OH246447   6.088   4.016  14.483  0.4592  0.5019  0.3759
 8319TIP3    H146448   6.041   4.065  14.416 -0.8242  0.4014  1.1874
 8319TIP3    H246449   6.111   3.933  14.442  1.9555  1.4351 -0.7591
 8320TIP3   OH246450   3.322   1.121   1.518  0.3208 -0.0587  0.2998
 8320TIP3    H146451   3.397   1.147   1.572 -0.2056 -0.1191  1.0712
 8320TIP3    H246452   3.312   1.192   1.455  0.7601  0.1599  0.4788
 8321TIP3   OH246453   6.012   3.274   4.478 -0.3170 -0.0768 -0.3296
 8321TIP3    H146454   6.035   3.358   4.517 -0.8832  0.5016 -1.2069
 8321TIP3    H246455   6.083   3.215   4.503 -0.0883  0.5746  0.5706
 8322TIP3   OH246456   4.348   4.051  16.682  0.4155 -0.5474  0.0122
 8322TIP3    H146457   4.352   4.120  16.616  0.3183  0.7722  1.3464
 8322TIP3    H246458   4.256   4.048  16.708  0.7765  0.2061  1.3893
 8323TIP3   OH246459   5.427   0.271  12.061  0.6508  0.2641 -0.5146
 8323TIP3    H146460   5.447   0.232  12.146 -0.4707 -0.5066 -0.5996
 8323TIP3    H246461   5.504   0.252  12.007  2.5005  2.9859  1.0598
 8324TIP3   OH246462   5.915   2.714  15.935  0.1411 -0.0857 -0.2076
 8324TIP3    H146463   6.000   2.752  15.911 -0.2018 -0.4014 -2.0243
 8324TIP3    H246464   5.875   2.692  15.851 -1.0618 -1.4073  0.6942
 8325TIP3   OH246465   3.617   2.308  12.375  0.4285 -0.7046  0.0802
 8325TIP3    H146466   3.611   2.237  12.439  0.8832 -0.9804 -0.1802
 8325TIP3    H246467   3.569   2.380  12.414  1.2084 -0.6774  0.9960
 8326TIP3   OH246468   0.748   5.831   4.899 -0.5066 -0.0403  0.2198
 8326TIP3    H146469   0.657   5.863   4.895 -0.6807 -0.2878  1.8596
 8326TIP3    H246470   0.742   5.750   4.948  0.3108 -1.2794 -1.6982
 8327TIP3   OH246471   5.071   2.356   3.045 -0.8763 -0.3156  0.2392
 8327TIP3    H146472   5.074   2.324   3.135  0.2169 -1.1862 -0.0950
 8327TIP3    H246473   5.159   2.339   3.010 -1.4148 -0.4145 -1.1279
 8328TIP3   OH246474   4.627   5.775  12.467  0.1762  0.7008 -0.0728
 8328TIP3    H146475   4.661   5.759  12.555 -1.6657  1.6966  0.8359
 8328TIP3    H246476   4.694   5.738  12.409 -0.0446 -2.8344  1.7903
 8329TIP3   OH246477   4.493   0.583  14.409  0.1485  0.2338 -0.1593
 8329TIP3    H146478   4.476   0.556  14.499 -0.6994 -1.6171 -0.8368
 8329TIP3    H246479   4.541   0.510  14.371 -1.6163 -0.0893 -1.8750
 8330TIP3   OH246480   5.370   4.029  15.972 -0.4809 -0.5795 -0.0266
 8330TIP3    H146481   5.335   3.974  16.042  1.6814 -2.4867 -0.3885
 8330TIP3    H246482   5.344   3.985  15.891  0.7462 -0.7577 -0.3320
 8331TIP3   OH246483   1.391   1.180  16.483 -0.8326  0.0542  0.1245
 8331TIP3    H146484   1.416   1.111  16.543 -4.1346 -1.2999  0.0272
 8331TIP3    H246485   1.390   1.139  16.397 -1.6763  0.5070 -0.0919
 8332TIP3   OH246486   3.081   5.001  11.170 -0.7317  0.5666 -0.9628
 8332TIP3    H146487   3.121   5.075  11.216  0.2131  0.7451 -2.0267
 8332TIP3    H246488   3.155   4.953  11.134 -1.3556 -0.7854 -0.4755
 8333TIP3   OH246489   3.340   6.165  11.854 -0.0675  0.0119 -0.0603
 8333TIP3    H146490   3.392   6.113  11.915 -1.4149 -0.6522  0.5623
 8333TIP3    H246491   3.334   6.112  11.775  0.5600  0.2871 -0.2968
 8334TIP3   OH246492   0.923   3.191   5.413  0.2771 -0.2082  0.7456
 8334TIP3    H146493   0.935   3.271   5.466  1.3564  1.6113 -2.1117
 8334TIP3    H246494   0.985   3.129   5.450  0.1175  0.5791  2.4050
 8335TIP3   OH246495   1.404   0.113  12.479 -0.0015  0.1077 -0.8631
 8335TIP3    H146496   1.495   0.135  12.495 -0.6805  0.1204  3.4532
 8335TIP3    H246497   1.359   0.198  12.470 -0.0828  0.1987  0.2910
 8336TIP3   OH246498   1.511   6.206   4.747 -0.5696 -0.0144  0.3446
 8336TIP3    H146499   1.447   6.216   4.675 -0.0640 -1.1944 -0.2735
 8336TIP3    H246500   1.596   6.211   4.704 -0.1567  3.1733  1.3636
 8337TIP3   OH246501   0.647   1.951  15.639 -0.5838 -0.3970 -0.1433
 8337TIP3    H146502   0.741   1.970  15.636 -0.8941  1.1421 -1.9747
 8337TIP3    H246503   0.611   2.021  15.694 -0.7478 -0.4906 -0.1342
 8338TIP3   OH246504   6.512   2.578   2.378  0.4468  0.2595  0.0933
 8338TIP3    H146505   6.598   2.555   2.413  0.1364 -0.9332  0.0905
 8338TIP3    H246506   6.526   2.588   2.284  0.5820  0.0401  0.0902
 8339TIP3   OH246507   6.605   1.550  14.948  0.0570  0.3540  0.1291
 8339TIP3    H146508   6.575   1.581  14.862 -1.7122  3.1775  1.6742
 8339TIP3    H246509   6.566   1.463  14.956 -1.1206  0.7191 -1.2744
 8340TIP3   OH246510   3.070   1.371  17.206 -0.2060 -0.0249  0.1477
 8340TIP3    H146511   3.002   1.376  17.139 -0.9835  0.6916  0.9897
 8340TIP3    H246512   3.050   1.291  17.254 -1.2383  0.8597  1.2236
 8341TIP3   OH246513   3.867   4.757   1.893 -0.0899 -0.1345 -0.5841
 8341TIP3    H146514   3.931   4.736   1.825  1.4822 -0.9340  1.0841
 8341TIP3    H246515   3.893   4.843   1.925  0.3568 -0.5957  0.3113
 8342TIP3   OH246516   0.396   2.109  13.993 -0.0871  0.6387  0.0424
 8342TIP3    H146517   0.316   2.133  13.945  0.6989  1.8999 -0.6746
 8342TIP3    H246518   0.467   2.138  13.936  0.8838  0.3612  1.0945
 8343TIP3   OH246519   1.503   4.002   6.286 -0.5796 -0.2537 -1.0227
 8343TIP3    H146520   1.458   3.992   6.202 -0.9880 -0.5082 -0.7734
 8343TIP3    H246521   1.489   3.919   6.332 -1.4042  0.3385 -0.1968
 8344TIP3   OH246522   2.136   2.560  17.015  0.1065  0.1972  0.0811
 8344TIP3    H146523   2.210   2.582  16.958 -0.9920 -0.0020 -1.4572
 8344TIP3    H246524   2.141   2.623  17.086  1.0066  1.0125 -0.6900
 8345TIP3   OH246525   0.637   4.309   6.349  0.4453 -0.3314  0.5360
 8345TIP3    H146526   0.582   4.383   6.325 -1.2111 -1.5259  0.5360
 8345TIP3    H246527   0.685   4.338   6.426 -2.4530 -0.2678  2.3961
 8346TIP3   OH246528   4.894   6.238  14.411 -0.0454 -0.1659 -0.2181
 8346TIP3    H146529   4.875   6.215  14.320  0.4506 -0.4764 -0.2508
 8346TIP3    H246530   4.825   6.299  14.436 -1.1911 -1.3941 -0.2663
 8347TIP3   OH246531   6.398   3.205   0.385  0.1271 -0.2387 -0.0237
 8347TIP3    H146532   6.350   3.123   0.398  1.1705 -0.7147  0.9600
 8347TIP3    H246533   6.330   3.273   0.380 -0.7021 -1.0679 -0.0469
 8348TIP3   OH246534   6.453   1.690   0.190 -0.1050  0.4918  0.1987
 8348TIP3    H146535   6.494   1.615   0.148  1.7697  1.9840 -0.7391
 8348TIP3    H246536   6.363   1.663   0.205  0.6766 -2.1401  0.4307
 8349TIP3   OH246537   2.371   0.570  15.186  0.0631 -0.3898  0.3631
 8349TIP3    H146538   2.343   0.514  15.259 -0.2911 -1.4805 -0.6092
 8349TIP3    H246539   2.314   0.546  15.113  0.2695  0.8591 -0.2234
 8350TIP3   OH246540   4.961   6.260   2.734 -0.1680  0.4259 -0.0767
 8350TIP3    H146541   4.875   6.218   2.738  0.1348 -0.2890 -1.0159
 8350TIP3    H246542   5.018   6.203   2.785  0.4776 -0.9024 -2.2390
 8351TIP3   OH246543   2.077   0.362   1.564  0.3214  0.0621  0.5998
 8351TIP3    H146544   2.040   0.450   1.575 -0.6705 -0.4754  1.6332
 8351TIP3    H246545   2.054   0.338   1.474  1.0181  1.0519  0.1504
 8352TIP3   OH246546   3.557   2.393  17.035 -0.3346  0.0295 -0.5980
 8352TIP3    H146547   3.489   2.436  16.984  1.0453  0.8973 -1.7583
 8352TIP3    H246548   3.627   2.375  16.972 -0.1939 -2.4240  0.1974
 8353TIP3   OH246549   4.682   2.103   2.860  0.3787  0.1941  0.0815
 8353TIP3    H146550   4.752   2.124   2.923 -0.9740  2.2302  0.9482
 8353TIP3    H246551   4.728   2.096   2.776  1.7898  0.3199  0.8163
 8354TIP3   OH246552   2.819   3.058   4.014  0.2118  0.3258 -0.6182
 8354TIP3    H146553   2.765   3.021   3.945  0.1566  1.0611 -0.9809
 8354TIP3    H246554   2.886   3.108   3.967 -0.4530  1.7049 -0.1270
 8355TIP3   OH246555   6.612   5.167  13.391  0.0773 -0.1108  1.0626
 8355TIP3    H146556   6.651   5.250  13.364 -0.3376  0.2166  1.4706
 8355TIP3    H246557   6.686   5.106  13.393  0.5548  0.4727  1.6844
 8356TIP3   OH246558   1.303   0.437   2.370 -0.3012 -0.0683 -0.1192
 8356TIP3    H146559   1.333   0.434   2.279  1.6548 -1.2767  0.5314
 8356TIP3    H246560   1.223   0.384   2.371  0.0286 -0.5984 -1.0096
 8357TIP3   OH246561   5.098   5.742  13.790 -0.7956 -0.1817  0.0477
 8357TIP3    H146562   5.108   5.648  13.774 -3.7704 -0.0906 -3.1238
 8357TIP3    H246563   5.079   5.778  13.703 -3.3777  2.7825  1.7581
 8358TIP3   OH246564   2.551   2.158  12.286  0.3966  0.4477  0.4411
 8358TIP3    H146565   2.536   2.199  12.371  2.1040 -0.8209  1.3844
 8358TIP3    H246566   2.515   2.070  12.295  0.7041  0.2644 -0.0946
 8359TIP3   OH246567   5.416   4.135  14.963  0.8866 -0.5298 -0.5809
 8359TIP3    H146568   5.334   4.153  15.008  1.6386  0.4651  0.4297
 8359TIP3    H246569   5.469   4.089  15.028  2.2967  1.6700 -0.1146
 8360TIP3   OH246570   2.901   2.737  16.981 -0.4481  0.3666 -0.2167
 8360TIP3    H146571   2.860   2.821  16.962  1.0462  1.5145  1.5211
 8360TIP3    H246572   2.887   2.724  17.075 -2.0882 -2.1247 -0.7407
 8361TIP3   OH246573   0.008   6.449   4.937  0.1872 -0.0930  0.6645
 8361TIP3    H146574  -0.080   6.470   4.970  0.0783 -1.3917  1.2245
 8361TIP3    H246575  -0.003   6.445   4.842 -0.4183 -0.5241  0.7505
 8362TIP3   OH246576   4.659   6.029   4.512  0.0087 -0.4553  0.3850
 8362TIP3    H146577   4.706   5.961   4.561  1.4348 -0.4786 -0.9772
 8362TIP3    H246578   4.610   5.980   4.446 -0.6330 -0.2969  0.7361
 8363TIP3   OH246579   2.342   5.804  13.359 -0.0765 -0.1654 -0.0204
 8363TIP3    H146580   2.254   5.796  13.397  0.3102 -0.5629  0.8026
 8363TIP3    H246581   2.330   5.784  13.267 -0.6316 -1.5561  0.3420
 8364TIP3   OH246582   0.220   4.411   0.609  0.7537  0.0195 -0.4265
 8364TIP3    H146583   0.153   4.416   0.540  0.2874  1.0572  0.0941
 8364TIP3    H246584   0.294   4.366   0.567 -0.7513 -2.3862 -0.6017
 8365TIP3   OH246585   4.569   6.790  13.291  0.5285 -0.5750  0.8774
 8365TIP3    H146586   4.631   6.731  13.332  1.3010 -0.4432 -0.0697
 8365TIP3    H246587   4.514   6.733  13.237  1.7232 -0.3787 -0.5917
 8366TIP3   OH246588   6.432   5.196  13.613  0.2584  0.3159 -0.3764
 8366TIP3    H146589   6.523   5.214  13.588  0.0455  1.1924 -0.5472
 8366TIP3    H246590   6.400   5.136  13.545  0.7726 -0.1698 -0.1917
 8367TIP3   OH246591   4.931   3.489  14.205 -0.2561 -0.6657  0.1111
 8367TIP3    H146592   4.950   3.456  14.117  1.7439 -1.1963  0.7261
 8367TIP3    H246593   4.952   3.416  14.263 -0.1124  0.1923  1.1414
 8368TIP3   OH246594   4.721   4.398  17.001 -0.1313  0.6512  0.0836
 8368TIP3    H146595   4.702   4.476  17.053  0.3349  1.1554 -0.5087
 8368TIP3    H246596   4.777   4.345  17.058 -0.2245  0.8697  0.3797
 8369TIP3   OH246597   0.170   2.008   2.354  0.5643 -0.5552 -0.4903
 8369TIP3    H146598   0.116   1.955   2.412 -0.0644 -0.5204 -1.0315
 8369TIP3    H246599   0.117   2.086   2.335  1.4529  0.2436  0.2459
 8370TIP3   OH246600   2.706   0.043  10.810  0.4231 -0.3486 -0.6184
 8370TIP3    H146601   2.685  -0.043  10.774 -0.2222 -0.4638  0.0189
 8370TIP3    H246602   2.633   0.100  10.784  1.4057  0.2942 -2.0149
 8371TIP3   OH246603   1.561   6.537  12.994 -0.3459  0.0549  0.0967
 8371TIP3    H146604   1.476   6.495  13.001 -1.7092  2.7944  0.6350
 8371TIP3    H246605   1.615   6.474  12.946 -2.7526 -1.5791 -0.5626
 8372TIP3   OH246606   1.075   0.564  16.897  0.0266 -0.6297 -0.6700
 8372TIP3    H146607   1.131   0.582  16.972  0.6093 -0.3307 -1.1707
 8372TIP3    H246608   1.058   0.651  16.859 -0.5200 -0.7485 -0.7021
 8373TIP3   OH246609   0.435   5.646   5.144 -0.2023 -0.5324 -0.0818
 8373TIP3    H146610   0.510   5.700   5.117  0.0492 -0.9323 -0.1958
 8373TIP3    H246611   0.474   5.562   5.168 -0.3323  0.0868  2.3934
 8374TIP3   OH246612   5.016   4.898  11.101 -0.2242  0.3015 -0.3959
 8374TIP3    H146613   4.935   4.857  11.070  1.1070 -2.6341 -0.1463
 8374TIP3    H246614   5.051   4.942  11.023  0.0467 -1.9892 -1.6400
 8375TIP3   OH246615   2.952   2.433   2.310  0.1900 -0.3085  0.6036
 8375TIP3    H146616   3.003   2.369   2.359  1.5386  1.0760  1.0217
 8375TIP3    H246617   3.012   2.505   2.294 -0.3475 -0.5066 -2.6877
 8376TIP3   OH246618   2.093   1.116   4.561 -0.1501  0.1414  0.4141
 8376TIP3    H146619   2.078   1.023   4.578 -0.2627 -0.1679 -1.3112
 8376TIP3    H246620   2.167   1.117   4.500  1.8445  1.3241  2.7660
 8377TIP3   OH246621   0.320   5.334   4.122 -0.0290 -0.4090 -0.4389
 8377TIP3    H146622   0.264   5.348   4.045 -0.7002  0.9767  0.2891
 8377TIP3    H246623   0.409   5.342   4.088 -0.3424  2.5024 -0.6722
 8378TIP3   OH246624   0.688   3.412  10.845 -0.4854 -0.0465  0.4361
 8378TIP3    H146625   0.635   3.448  10.916  1.5119  2.1991  0.8753
 8378TIP3    H246626   0.657   3.455  10.766 -1.2361 -0.9089  0.2517
 8379TIP3   OH246627   4.891   4.793   3.588 -0.2208 -0.2654 -0.0350
 8379TIP3    H146628   4.804   4.801   3.549  0.1085  0.6858 -0.5799
 8379TIP3    H246629   4.938   4.734   3.529 -0.5461 -0.9136  0.3503
 8380TIP3   OH246630   1.778   5.499  16.193 -0.3064 -0.6182 -0.5378
 8380TIP3    H146631   1.821   5.415  16.211 -0.6681 -0.8899 -0.8970
 8380TIP3    H246632   1.740   5.525  16.277  0.3049 -0.5253 -0.2951
 8381TIP3   OH246633   1.955   4.884  14.916 -0.4501 -0.2974  0.5041
 8381TIP3    H146634   2.039   4.842  14.932  0.6218  1.6211  0.0846
 8381TIP3    H246635   1.939   4.871  14.823 -0.3140 -0.0971  0.4545
 8382TIP3   OH246636   4.310   3.383   3.210  0.1068 -0.4520 -0.0804
 8382TIP3    H146637   4.235   3.360   3.265 -0.0665  1.1082  0.3382
 8382TIP3    H246638   4.356   3.451   3.259  0.3310  0.4727 -1.5411
 8383TIP3   OH246639   0.612   6.111  16.030 -0.1218  0.2265 -0.4873
 8383TIP3    H146640   0.616   6.123  16.125  0.0123 -0.3686 -0.4153
 8383TIP3    H246641   0.695   6.069  16.008 -0.5763 -0.5483 -0.7350
 8384TIP3   OH246642   4.194   2.484  15.193  0.3199  0.0342 -0.4772
 8384TIP3    H146643   4.214   2.571  15.227  1.2655 -0.7629  1.0701
 8384TIP3    H246644   4.231   2.424  15.257 -2.3536 -1.5402 -0.3186
 8385TIP3   OH246645   4.126   3.013  15.556  0.3195  0.0724  0.6396
 8385TIP3    H146646   4.176   2.982  15.631  2.5508 -0.4822 -1.0305
 8385TIP3    H246647   4.084   2.935  15.521  0.8882 -0.0102  0.1380
 8386TIP3   OH246648   3.847   2.998  14.297  0.5502  0.0265 -0.0655
 8386TIP3    H146649   3.890   2.976  14.215  1.3316  0.6551  0.1608
 8386TIP3    H246650   3.894   3.076  14.328 -0.5236  0.5154  0.3663
 8387TIP3   OH246651   3.456   1.178   5.325 -0.1565 -0.1324  0.8864
 8387TIP3    H146652   3.428   1.089   5.346 -1.5717 -0.0022 -0.3785
 8387TIP3    H246653   3.551   1.177   5.337  0.5787 -3.2186 -3.9180
 8388TIP3   OH246654   3.837   5.036  17.015 -0.2137 -0.1432 -0.5435
 8388TIP3    H146655   3.906   5.019  16.951  1.5013  1.5714  0.7858
 8388TIP3    H246656   3.883   5.040  17.099 -2.0024  0.4974  0.4327
 8389TIP3   OH246657   1.418   1.176   0.138 -0.3962  0.2710 -0.2615
 8389TIP3    H146658   1.422   1.091   0.182 -0.5911  0.6585  0.5122
 8389TIP3    H246659   1.434   1.156   0.046 -0.6024 -0.6262 -0.1086
 8390TIP3   OH246660   3.791   6.658   0.433 -0.0200 -0.4319  0.2214
 8390TIP3    H146661   3.790   6.576   0.481 -2.1353 -0.1608  0.6784
 8390TIP3    H246662   3.847   6.716   0.485  0.0960 -1.0492  0.7904
 8391TIP3   OH246663   1.593   5.315  15.526  0.0855  0.0632 -0.0885
 8391TIP3    H146664   1.593   5.333  15.432 -4.7318  0.0906 -0.2007
 8391TIP3    H246665   1.559   5.395  15.566  1.0135 -0.3590  1.6225
 8392TIP3   OH246666   4.749   2.006  11.602 -0.0928 -0.2198 -0.4492
 8392TIP3    H146667   4.759   2.060  11.523 -0.7471  0.2446 -0.2193
 8392TIP3    H246668   4.791   2.056  11.671  2.0863 -1.4548 -0.8397
 8393TIP3   OH246669   6.171   2.048  13.161  0.0883  0.0994 -0.8184
 8393TIP3    H146670   6.190   1.976  13.220  1.5888  0.3672 -0.9633
 8393TIP3    H246671   6.109   2.012  13.097 -1.9824 -0.0350  1.2173
 8394TIP3   OH246672   3.968   5.638  13.182 -0.1425  0.0034  0.3513
 8394TIP3    H146673   4.022   5.646  13.261  0.3835 -1.1072  0.1079
 8394TIP3    H246674   4.007   5.700  13.121  1.0817 -1.0575  0.0530
 8395TIP3   OH246675   5.350   4.050  14.693 -0.3273  0.1566 -0.0475
 8395TIP3    H146676   5.423   4.079  14.749  1.3084  1.1449 -2.6224
 8395TIP3    H246677   5.305   4.131  14.669 -0.7924 -0.2256 -0.4698
 8396TIP3   OH246678   1.132   3.065   1.298  0.6082  0.8149 -0.6125
 8396TIP3    H146679   1.086   3.121   1.235  0.5526  3.0422  1.2981
 8396TIP3    H246680   1.225   3.087   1.287  0.5557  1.5826  0.3886
 8397TIP3   OH246681   3.106   0.641  12.505  0.0847 -0.2254 -0.2549
 8397TIP3    H146682   3.056   0.598  12.574 -0.1294 -1.2394 -1.0087
 8397TIP3    H246683   3.137   0.568  12.450  0.8052  0.5154 -0.8466
 8398TIP3   OH246684   1.593   5.307  12.451  0.5051 -0.4432  0.1862
 8398TIP3    H146685   1.573   5.331  12.542 -1.5811 -1.5287  0.0392
 8398TIP3    H246686   1.508   5.291  12.411  1.1869  2.5373 -2.7289
 8399TIP3   OH246687   3.747   6.495   4.787 -0.5010 -0.5801 -0.8548
 8399TIP3    H146688   3.672   6.444   4.818 -0.6387 -0.5166 -1.0766
 8399TIP3    H246689   3.763   6.461   4.699 -1.0803  0.2785 -1.3065
 8400TIP3   OH246690   5.996   0.149   2.423  0.1119 -0.7331  0.4671
 8400TIP3    H146691   5.904   0.168   2.442  0.7403  3.1352  0.0300
 8400TIP3    H246692   6.043   0.172   2.503  0.9846 -0.0881 -0.2180
 8401TIP3   OH246693   2.438   6.450   3.629 -0.2951 -0.4269  0.0845
 8401TIP3    H146694   2.345   6.468   3.640 -0.6396 -1.4649 -0.9547
 8401TIP3    H246695   2.441   6.368   3.579  1.1821 -0.9258  0.9373
 8402TIP3   OH246696   2.615   5.077   1.640 -0.0206  0.3152  0.0989
 8402TIP3    H146697   2.559   5.038   1.572 -1.0441  1.3185  0.3601
 8402TIP3    H246698   2.600   5.022   1.717 -0.2838  0.2979  0.0369
 8403TIP3   OH246699   3.047   2.219  12.035  0.3539 -0.1440  0.2988
 8403TIP3    H146700   3.064   2.312  12.023  0.8085 -0.3658 -0.8719
 8403TIP3    H246701   3.043   2.207  12.129 -1.7227  1.4150  0.4425
 8404TIP3   OH246702   6.274   1.110  15.531  0.1467  0.0383 -0.1413
 8404TIP3    H146703   6.339   1.051  15.492 -0.4846  0.2536 -1.5536
 8404TIP3    H246704   6.269   1.083  15.622  0.2561 -1.7653 -0.6370
 8405TIP3   OH246705   3.245   5.265   3.593 -0.2349  0.2130  0.3519
 8405TIP3    H146706   3.266   5.346   3.547 -1.3809  0.7410  0.7344
 8405TIP3    H246707   3.327   5.238   3.634  0.8609 -0.4010 -2.2031
 8406TIP3   OH246708   1.845   6.407  13.335 -0.4992  0.1720 -0.0485
 8406TIP3    H146709   1.908   6.336  13.328 -0.1507  0.2244  2.4258
 8406TIP3    H246710   1.844   6.446  13.247  0.1998 -2.0909 -1.0983
 8407TIP3   OH246711   0.762   3.876   4.832 -0.0683 -0.0126 -0.1109
 8407TIP3    H146712   0.693   3.941   4.838  1.3524  1.4759  0.3674
 8407TIP3    H246713   0.730   3.813   4.766 -2.6121 -0.3080  1.3312
 8408TIP3   OH246714   6.337   5.969  16.359 -0.6447  0.3379 -0.5555
 8408TIP3    H146715   6.297   5.889  16.325 -0.5553 -0.1126  0.3838
 8408TIP3    H246716   6.419   5.978  16.310 -0.1977 -0.6653 -0.0156
 8409TIP3   OH246717   3.281   5.754  11.466  0.1869  0.3445 -0.4357
 8409TIP3    H146718   3.279   5.660  11.484  0.3717  0.5826  0.9124
 8409TIP3    H246719   3.372   5.779  11.481 -0.1371  0.9760  0.4912
 8410TIP3   OH246720   0.113   5.617   0.036 -0.0557 -0.4124 -0.1454
 8410TIP3    H146721   0.173   5.630  -0.037 -0.5742 -1.1116 -0.7015
 8410TIP3    H246722   0.137   5.685   0.099  1.6465 -1.0037 -0.1390
 8411TIP3   OH246723   3.007   3.663  13.776 -0.0554 -0.5033 -0.5404
 8411TIP3    H146724   3.089   3.700  13.743 -0.7554 -0.4525 -2.2758
 8411TIP3    H246725   3.010   3.571  13.749 -0.2432 -0.6803  0.0320
 8412TIP3   OH246726   4.167   3.045  13.935 -0.0138  0.0634 -0.1360
 8412TIP3    H146727   4.233   2.985  13.968 -1.5053 -2.5307 -1.7279
 8412TIP3    H246728   4.207   3.083  13.856  0.4607  0.2359  0.1870
 8413TIP3   OH246729   0.203   3.639   3.816 -0.5519 -0.4095  0.0605
 8413TIP3    H146730   0.223   3.570   3.880 -1.2723 -0.8979 -0.2345
 8413TIP3    H246731   0.146   3.700   3.863 -1.9765 -1.3449 -0.4479
 8414TIP3   OH246732   4.709   6.768  11.665 -0.0266  0.1799 -0.7632
 8414TIP3    H146733   4.700   6.704  11.595  0.5676  0.7811 -1.4060
 8414TIP3    H246734   4.660   6.731  11.739 -0.0908 -0.7741 -1.2772
 8415TIP3   OH246735   3.709   1.990   5.833 -0.1169 -0.2521  0.1565
 8415TIP3    H146736   3.755   1.972   5.751 -0.3919 -0.5587  0.0701
 8415TIP3    H246737   3.767   2.051   5.879 -1.3987  2.3170 -1.5737
 8416TIP3   OH246738   0.219   3.510  11.317 -0.5575 -0.2345 -0.4790
 8416TIP3    H146739   0.233   3.525  11.411  1.5193 -2.2635 -0.4296
 8416TIP3    H246740   0.209   3.598  11.280 -1.1302  0.6022  1.5939
 8417TIP3   OH246741   4.949   0.595   4.647 -0.3010  0.6118  0.1343
 8417TIP3    H146742   4.902   0.513   4.661 -0.4488  0.4891 -0.9966
 8417TIP3    H246743   4.988   0.615   4.732 -3.3584  1.3286  1.4387
 8418TIP3   OH246744   2.756   0.353   2.135  0.3067  0.4032  0.2866
 8418TIP3    H146745   2.679   0.402   2.106 -1.0703 -1.7000  0.2826
 8418TIP3    H246746   2.777   0.296   2.061  0.9395 -0.1373  0.8787
 8419TIP3   OH246747   1.628   0.306  12.523  0.1124  0.1820  0.2319
 8419TIP3    H146748   1.640   0.284  12.431 -0.3445  0.0055  0.2131
 8419TIP3    H246749   1.657   0.397  12.530  2.4865 -0.5601  0.4154
 8420TIP3   OH246750   1.699   3.000  12.746 -0.4078 -0.0501  0.1701
 8420TIP3    H146751   1.654   3.059  12.807 -0.3851 -0.2139  0.3445
 8420TIP3    H246752   1.765   2.956  12.799 -1.1056 -0.9937  0.2750
 8421TIP3   OH246753   4.655   3.549   0.507  0.3862 -0.3556 -0.5088
 8421TIP3    H146754   4.662   3.471   0.562 -0.3342  0.4826  0.7912
 8421TIP3    H246755   4.563   3.575   0.514  1.2299  2.3574  1.5436
 8422TIP3   OH246756   5.492   4.214  14.377  0.4248 -0.0614 -0.4285
 8422TIP3    H146757   5.553   4.284  14.352  1.4681 -1.2789 -1.3127
 8422TIP3    H246758   5.490   4.155  14.302 -0.9437 -0.6744  0.0641
 8423TIP3   OH246759   2.550   5.092  15.239  0.2730 -0.2742  0.0583
 8423TIP3    H146760   2.555   5.006  15.197  3.4190  0.0291 -0.3186
 8423TIP3    H246761   2.583   5.152  15.172 -0.8856  1.0758  0.7033
 8424TIP3   OH246762   6.375   5.703  13.897  0.4186 -0.5168 -0.6641
 8424TIP3    H146763   6.313   5.767  13.862 -0.2154 -1.1117 -0.6528
 8424TIP3    H246764   6.391   5.731  13.986 -1.4891 -1.5195  0.0435
 8425TIP3   OH246765   5.211   0.629  13.614 -0.2103  0.2605  0.4249
 8425TIP3    H146766   5.148   0.701  13.626  1.5247  2.2754 -2.0706
 8425TIP3    H246767   5.159   0.557  13.581 -1.4763  1.3788 -0.0815
 8426TIP3   OH246768   2.267   2.126  12.360  0.6065 -0.0014 -0.3860
 8426TIP3    H146769   2.307   2.041  12.342 -1.5676 -1.0691 -0.3298
 8426TIP3    H246770   2.243   2.161  12.274 -0.8453 -0.6329 -0.2479
 8427TIP3   OH246771   0.309   4.515   2.796  0.1334 -0.0288  0.3198
 8427TIP3    H146772   0.348   4.602   2.794  0.6875 -0.2604  0.9532
 8427TIP3    H246773   0.276   4.505   2.885  2.0397 -1.3082  0.9329
 8428TIP3   OH246774   2.208   5.450  14.015 -0.0777  0.0946 -0.0787
 8428TIP3    H146775   2.169   5.483  14.096  3.4126  1.9156  0.9805
 8428TIP3    H246776   2.135   5.442  13.954 -2.4356  0.8956  2.5469
 8429TIP3   OH246777   4.540   6.682  17.056 -0.1963 -0.4933 -0.4430
 8429TIP3    H146778   4.492   6.726  17.126 -1.6821 -3.1797  0.2979
 8429TIP3    H246779   4.627   6.666  17.094 -0.5634 -0.7365  0.3067
 8430TIP3   OH246780   6.496   3.679  12.422  0.6187 -0.1470  0.2195
 8430TIP3    H146781   6.474   3.649  12.334  0.9161  2.4143 -0.7856
 8430TIP3    H246782   6.574   3.629  12.445 -0.0895 -1.6324 -0.5043
 8431TIP3   OH246783   3.769   3.923  11.282  0.2095  0.5760 -0.2199
 8431TIP3    H146784   3.681   3.940  11.315  0.4705  0.2566  0.6353
 8431TIP3    H246785   3.828   3.959  11.348  0.7368  2.4038 -1.6197
 8432TIP3   OH246786   1.471   6.309  12.725  0.1956  0.3767 -0.1506
 8432TIP3    H146787   1.384   6.287  12.758  0.4995 -0.5568  0.0580
 8432TIP3    H246788   1.473   6.273  12.636  0.8542 -0.8897  0.3542
 8433TIP3   OH246789   0.602   2.162  13.362 -0.1356  0.0059  0.3661
 8433TIP3    H146790   0.516   2.120  13.355 -1.5674  2.9151 -0.4577
 8433TIP3    H246791   0.637   2.159  13.273  0.6106 -1.0654  0.6762
 8434TIP3   OH246792   3.644   4.999   1.745  0.4850 -0.2307  0.0667
 8434TIP3    H146793   3.635   5.075   1.688 -0.3672 -1.0355 -0.8804
 8434TIP3    H246794   3.604   4.927   1.696  0.3547 -1.0723  1.3936
 8435TIP3   OH246795   0.884   6.273   0.441 -0.3116  0.0910 -0.3217
 8435TIP3    H146796   0.833   6.279   0.522  0.5916 -2.0320  0.4720
 8435TIP3    H246797   0.825   6.301   0.372 -1.8018 -0.1319  0.8427
 8436TIP3   OH246798   5.546   0.998  10.689 -0.6667  0.1044 -0.2125
 8436TIP3    H146799   5.464   0.958  10.721 -2.3687  2.5023 -1.4288
 8436TIP3    H246800   5.554   1.079  10.739  0.9054 -0.0173 -0.2399
 8437TIP3   OH246801   0.468   2.818   4.552 -0.1377  0.7924  0.2051
 8437TIP3    H146802   0.492   2.779   4.636  0.9588 -2.6817 -1.6431
 8437TIP3    H246803   0.540   2.797   4.494 -2.1120  0.7473 -2.3059
 8438TIP3   OH246804   1.550   5.744  12.630  0.9299  0.6293 -1.1629
 8438TIP3    H146805   1.511   5.734  12.543  0.0386 -0.9010 -0.6161
 8438TIP3    H246806   1.523   5.832  12.658 -2.3606 -0.4172 -0.7491
 8439TIP3   OH246807   3.488   1.304  15.451 -0.6930  0.4881  0.1410
 8439TIP3    H146808   3.530   1.367  15.510 -1.8790  0.8920  0.5751
 8439TIP3    H246809   3.502   1.219  15.493  1.3995  0.3898 -0.7349
 8440TIP3   OH246810   2.286   3.085   3.207 -0.5241  0.4494  0.0746
 8440TIP3    H146811   2.342   3.061   3.280 -0.3399  0.0289 -0.2042
 8440TIP3    H246812   2.332   3.053   3.129 -1.1895  0.0102 -0.1498
 8441TIP3   OH246813   6.585   2.154  14.257 -0.2120  0.1642 -0.7272
 8441TIP3    H146814   6.579   2.250  14.264  1.3305  0.2286 -0.2587
 8441TIP3    H246815   6.622   2.126  14.341  2.5297 -0.5278 -2.1122
 8442TIP3   OH246816   6.255   4.657   3.496 -0.0163 -0.5828 -0.4540
 8442TIP3    H146817   6.282   4.728   3.438  1.9138  0.5609  1.7405
 8442TIP3    H246818   6.242   4.699   3.581 -0.3982 -2.5885  0.5219
 8443TIP3   OH246819   3.692   2.994  15.508  0.0301  0.5515  0.0621
 8443TIP3    H146820   3.664   2.924  15.567  1.9819 -0.1267  0.2117
 8443TIP3    H246821   3.621   3.003  15.445  0.5863 -2.9164 -1.1411
 8444TIP3   OH246822   4.960   4.303   5.245  0.0097  0.0045  0.1898
 8444TIP3    H146823   5.040   4.279   5.198  0.7307 -2.1347  2.3973
 8444TIP3    H246824   4.977   4.393   5.276  0.4033  0.6049 -1.7295
 8445TIP3   OH246825   1.980   4.920  11.845  0.4595  0.6810 -1.0832
 8445TIP3    H146826   1.947   4.941  11.932  1.1959 -0.1422 -0.5937
 8445TIP3    H246827   2.075   4.930  11.853  0.8723 -2.8829 -0.7804
 8446TIP3   OH246828   0.101   5.128   0.928  0.0471 -0.4627 -0.9045
 8446TIP3    H146829   0.165   5.154   0.862  0.6993 -0.1742 -0.1635
 8446TIP3    H246830   0.130   5.040   0.955  0.5372 -0.0501 -0.0732
 8447TIP3   OH246831   2.522   3.316  15.466  0.0443 -0.1715  0.2708
 8447TIP3    H146832   2.575   3.385  15.506 -0.6454  0.9068 -0.6467
 8447TIP3    H246833   2.459   3.292  15.535 -1.2000  1.7442 -0.1496
 8448TIP3   OH246834   4.282   2.151   5.212 -0.0728  0.3483 -0.2596
 8448TIP3    H146835   4.350   2.155   5.144  0.5245  0.2465  0.3264
 8448TIP3    H246836   4.216   2.214   5.183 -0.2427 -0.3316 -1.3892
 8449TIP3   OH246837   2.583   3.943  17.085  0.4937  0.3316  0.0028
 8449TIP3    H146838   2.610   3.874  17.144  0.7257  0.9548  0.6310
 8449TIP3    H246839   2.558   4.016  17.142 -2.9379 -0.3384 -0.5190
 8450TIP3   OH246840   0.916   2.335   1.066 -0.1332 -0.6603  0.0005
 8450TIP3    H146841   0.950   2.247   1.050 -0.6092 -0.9644  0.6584
 8450TIP3    H246842   0.976   2.372   1.131 -1.0487 -1.2050  1.1785
 8451TIP3   OH246843   0.921   4.110   2.276  0.5277  0.0884 -0.6290
 8451TIP3    H146844   0.990   4.093   2.341 -2.5903 -2.1499  2.2686
 8451TIP3    H246845   0.867   4.178   2.315 -0.0655  0.4083 -1.9679
 8452TIP3   OH246846   1.247   5.060  14.289 -0.1629 -0.1150 -0.0704
 8452TIP3    H146847   1.266   5.148  14.323  1.9969 -1.0870  1.2999
 8452TIP3    H246848   1.160   5.039  14.324  0.0455  0.7880  1.0174
 8453TIP3   OH246849   6.718   4.886  11.807 -0.1738 -0.3218 -0.3506
 8453TIP3    H146850   6.794   4.828  11.806 -0.2937 -0.6381  2.9534
 8453TIP3    H246851   6.648   4.832  11.843 -1.1449  0.8921 -0.3953
 8454TIP3   OH246852   4.721   4.904  15.801  0.4060 -0.0184  0.0341
 8454TIP3    H146853   4.782   4.842  15.762  1.0910  0.2906  0.6189
 8454TIP3    H246854   4.750   4.913  15.892  1.7875  3.0044 -0.6578
 8455TIP3   OH246855   3.075   5.289   1.377 -0.2197 -0.2246 -0.5060
 8455TIP3    H146856   3.011   5.351   1.412  1.4387  2.3906 -1.9908
 8455TIP3    H246857   3.153   5.341   1.362  1.3984 -2.8117 -1.3061
 8456TIP3   OH246858   2.389   2.651   2.246  0.1688  0.1128  0.4802
 8456TIP3    H146859   2.421   2.710   2.313  0.5354  0.1102  0.3096
 8456TIP3    H246860   2.460   2.646   2.182 -0.8193  1.4052 -0.7445
 8457TIP3   OH246861   2.566   3.487   1.158  0.1530 -0.9255  0.1645
 8457TIP3    H146862   2.624   3.505   1.232  0.2477 -2.2660  0.4369
 8457TIP3    H246863   2.479   3.511   1.189  0.3579 -0.3680  0.3022
 8458TIP3   OH246864   6.205   2.233  16.286 -0.1385  0.3184  0.0166
 8458TIP3    H146865   6.115   2.203  16.273  0.1797 -0.7024  0.0874
 8458TIP3    H246866   6.215   2.242  16.380 -0.4856  1.4765 -0.0493
 8459TIP3   OH246867   2.478   3.691  17.256 -0.5730  0.4614  0.0559
 8459TIP3    H146868   2.439   3.605  17.274 -0.7472  0.5351  0.0385
 8459TIP3    H246869   2.571   3.680  17.276 -0.7501  0.5266  0.9328
 8460TIP3   OH246870   6.011   6.258   4.624  0.2131 -0.1953  0.7422
 8460TIP3    H146871   6.084   6.319   4.616  0.7983 -1.0221 -0.4581
 8460TIP3    H246872   5.978   6.249   4.534 -0.9932 -0.2746  1.1860
 8461TIP3   OH246873   6.146   5.631   4.253 -0.1250 -0.1759 -0.0428
 8461TIP3    H146874   6.180   5.594   4.334  0.5086  0.0701 -0.1954
 8461TIP3    H246875   6.073   5.686   4.280 -0.6662 -1.0216  0.2493
 8462TIP3   OH246876   4.836   2.194   5.859 -0.0401  0.5048 -0.8117
 8462TIP3    H146877   4.819   2.156   5.945 -1.2297 -0.2238 -1.3584
 8462TIP3    H246878   4.923   2.162   5.836  0.0273  0.2008 -0.1428
 8463TIP3   OH246879   4.186   2.707  10.659 -0.0164  0.0412  0.2031
 8463TIP3    H146880   4.154   2.782  10.710 -1.7793 -0.4884 -0.0869
 8463TIP3    H246881   4.129   2.704  10.582  0.7037 -0.9721 -0.3011
 8464TIP3   OH246882   1.121   3.145  11.170 -0.1902  0.1532  0.0046
 8464TIP3    H146883   1.189   3.185  11.116  0.0305  1.5120  1.2734
 8464TIP3    H246884   1.067   3.218  11.199 -0.2135 -0.5318  1.7537
 8465TIP3   OH246885   4.479   4.191  12.332 -0.1632  0.1757  0.0247
 8465TIP3    H146886   4.525   4.227  12.408  0.6431 -0.6844 -0.0448
 8465TIP3    H246887   4.467   4.098  12.353 -1.3048  0.2647 -0.2355
 8466TIP3   OH246888   0.068   4.724   3.766  0.5261  0.4865 -0.3338
 8466TIP3    H146889   0.018   4.649   3.800 -0.2062  0.1066 -2.1619
 8466TIP3    H246890   0.128   4.685   3.702  0.5496  1.3866 -0.8669
 8467TIP3   OH246891   4.210   4.880  12.779  0.4809  0.5350 -0.3465
 8467TIP3    H146892   4.146   4.903  12.846 -0.8275  0.1370 -1.4384
 8467TIP3    H246893   4.172   4.913  12.697  1.4568 -0.0976 -1.0654
 8468TIP3   OH246894   1.265   4.819  16.220  0.0791  0.2791 -0.5918
 8468TIP3    H146895   1.349   4.807  16.266 -0.9087 -2.3646  0.6624
 8468TIP3    H246896   1.254   4.914  16.214  2.6564  0.6686  0.1628
 8469TIP3   OH246897   1.300   1.216   0.507 -0.3283 -0.0549  0.1370
 8469TIP3    H146898   1.280   1.278   0.577  2.5092 -0.4952  1.3865
 8469TIP3    H246899   1.349   1.267   0.443  0.4910 -0.5683  0.3435
 8470TIP3   OH246900   2.304   1.343  16.477 -0.1474 -0.0530 -0.6717
 8470TIP3    H146901   2.274   1.331  16.387  1.8898  1.5300 -1.5922
 8470TIP3    H246902   2.274   1.431  16.501  0.3966  0.0188 -0.2470
 8471TIP3   OH246903   3.355   4.399   5.314  0.4510 -0.3094 -0.0979
 8471TIP3    H146904   3.366   4.333   5.245 -0.8643 -1.5176  0.8321
 8471TIP3    H246905   3.312   4.353   5.386 -0.9293  1.6583  0.4045
 8472TIP3   OH246906   2.725   0.758  14.047 -0.5398  0.4836 -0.5559
 8472TIP3    H146907   2.671   0.693  14.093  0.1495 -0.1651 -0.6544
 8472TIP3    H246908   2.662   0.823  14.016 -1.2460 -0.1425 -0.4647
 8473TIP3   OH246909   4.257   1.769   5.251  0.1905 -0.0801 -0.3199
 8473TIP3    H146910   4.288   1.760   5.161  0.6156  0.9405 -0.2781
 8473TIP3    H246911   4.170   1.807   5.243 -0.2630 -1.0988 -0.3447
 8474TIP3   OH246912   4.455   1.634   3.234  0.1277  0.3481  0.0568
 8474TIP3    H146913   4.481   1.691   3.162 -0.9240  0.5735 -0.1520
 8474TIP3    H246914   4.393   1.687   3.285 -1.0983 -0.6891 -0.3068
 8475TIP3   OH246915   6.315   1.236   2.909 -0.3433  0.7041 -0.1092
 8475TIP3    H146916   6.371   1.277   2.975  2.8944 -1.1608 -1.5751
 8475TIP3    H246917   6.305   1.303   2.841  0.1275  1.0591  0.1699
 8476TIP3   OH246918   1.309   5.179   0.622 -0.0489  0.8448  0.0520
 8476TIP3    H146919   1.292   5.096   0.577  0.3037  1.4479 -1.2328
 8476TIP3    H246920   1.331   5.240   0.551 -0.5768  2.1024  0.9567
 8477TIP3   OH246921   4.114   5.806   6.327 -0.2347  0.4776  0.1100
 8477TIP3    H146922   4.171   5.834   6.398 -1.0492  0.9356  0.5945
 8477TIP3    H246923   4.128   5.712   6.320 -0.1504  0.4330  0.8770
 8478TIP3   OH246924   1.998   4.780  15.971 -0.4867  0.4462  0.2771
 8478TIP3    H146925   1.982   4.864  15.928 -1.1431 -0.4192 -1.2353
 8478TIP3    H246926   1.910   4.744  15.987 -0.2088 -0.4556 -0.1605
 8479TIP3   OH246927   3.710   3.504   4.238 -0.1738  0.5624 -0.0771
 8479TIP3    H146928   3.776   3.555   4.192  1.9562 -0.8797  1.2877
 8479TIP3    H246929   3.748   3.416   4.245 -2.1490 -0.2553  0.9180
 8480TIP3   OH246930   1.449   6.286   5.005 -0.9212  1.4395 -0.3397
 8480TIP3    H146931   1.519   6.297   5.068 -1.3652 -1.0244  0.6347
 8480TIP3    H246932   1.492   6.251   4.927 -1.1387 -0.9940  0.5807
 8481TIP3   OH246933   6.488   5.663  11.525  0.3473  0.6103 -0.2838
 8481TIP3    H146934   6.504   5.610  11.447  1.6807  2.7543 -1.5269
 8481TIP3    H246935   6.395   5.650  11.544  0.1616 -0.4901 -1.8029
 8482TIP3   OH246936   2.377   6.774   5.688 -0.2196 -0.7184 -0.3030
 8482TIP3    H146937   2.472   6.766   5.689 -0.1236  0.3662  0.3249
 8482TIP3    H246938   2.344   6.685   5.703  0.7120 -0.6326  2.3864
 8483TIP3   OH246939   2.867   4.525  14.489 -0.4084  0.5962  0.4534
 8483TIP3    H146940   2.945   4.562  14.448 -0.2823  1.1069  1.1435
 8483TIP3    H246941   2.901   4.471  14.561 -0.6398 -0.0435  0.0898
 8484TIP3   OH246942   1.337   3.037   3.651 -0.1367  0.1721 -0.1264
 8484TIP3    H146943   1.419   3.086   3.638  0.0926 -0.4493 -1.0874
 8484TIP3    H246944   1.273   3.104   3.675  0.2324  0.9174 -1.1835
 8485TIP3   OH246945   6.487   2.016   5.076 -0.1334 -0.0641 -0.1905
 8485TIP3    H146946   6.561   1.972   5.034 -0.7183 -0.6967 -0.5928
 8485TIP3    H246947   6.513   2.024   5.168  0.5286 -0.0710 -0.3730
 8486TIP3   OH246948   5.859   0.961   0.249 -0.4129 -0.1475  0.0412
 8486TIP3    H146949   5.810   0.980   0.169 -1.2329 -1.5013  0.2083
 8486TIP3    H246950   5.876   1.048   0.287 -0.5624  0.4652 -1.2648
 8487TIP3   OH246951   3.892   3.280   2.228 -0.0748 -0.3848 -0.4403
 8487TIP3    H146952   3.949   3.353   2.251 -1.2483  0.3413  0.2493
 8487TIP3    H246953   3.880   3.287   2.133  1.5941 -1.0103 -0.6993
 8488TIP3   OH246954   5.198   0.989  14.671  0.3632  0.1075  0.0252
 8488TIP3    H146955   5.160   0.905  14.699  1.5530 -0.0730  1.1918
 8488TIP3    H246956   5.276   0.964  14.622  0.8988  0.5270  0.6508
 8489TIP3   OH246957   1.628   6.708  13.520  0.2000 -0.2451 -0.1838
 8489TIP3    H146958   1.673   6.775  13.572 -2.4390  1.3169  0.2105
 8489TIP3    H246959   1.668   6.714  13.433  0.9338  0.8894  0.2178
 8490TIP3   OH246960   1.609   1.347  10.742  0.5907  0.5587  0.7340
 8490TIP3    H146961   1.655   1.266  10.764  0.1580  0.5876  1.7629
 8490TIP3    H246962   1.668   1.416  10.771  0.6199  0.6083  0.5577
 8491TIP3   OH246963   6.007   6.297   4.166 -0.6661 -0.2464 -0.1961
 8491TIP3    H146964   5.968   6.264   4.247  2.0979 -1.5675  0.6307
 8491TIP3    H246965   6.009   6.222   4.108 -0.8823  0.2339 -0.8347
 8492TIP3   OH246966   1.824   5.747   2.551  0.0178  0.8949  0.7157
 8492TIP3    H146967   1.731   5.726   2.559 -0.1496  0.8767 -1.0545
 8492TIP3    H246968   1.855   5.752   2.641 -1.6786  0.8247  1.3273
 8493TIP3   OH246969   0.246   3.655  11.571 -0.2320  0.5404 -0.1397
 8493TIP3    H146970   0.315   3.693  11.625 -0.9830  1.2547  0.3285
 8493TIP3    H246971   0.217   3.727  11.514 -0.0447  0.0323 -0.8840
 8494TIP3   OH246972   4.001   0.385   0.762  0.0088  0.1331 -0.7333
 8494TIP3    H146973   3.939   0.336   0.815  1.2132 -0.3154  0.2715
 8494TIP3    H246974   3.976   0.365   0.671 -0.4380 -1.1669 -0.3334
 8495TIP3   OH246975   5.793   2.379  16.065 -0.4077  0.5871  0.5322
 8495TIP3    H146976   5.757   2.452  16.116  1.0540  1.7549 -0.0617
 8495TIP3    H246977   5.716   2.330  16.036 -1.5085  2.7601 -0.3201
 8496TIP3   OH246978   3.064   0.842  11.455 -0.6451 -0.1052 -0.5680
 8496TIP3    H146979   3.099   0.844  11.366  0.0793  0.5464 -0.2769
 8496TIP3    H246980   3.082   0.754  11.487 -0.9948 -0.3685 -1.0988
 8497TIP3   OH246981   4.835   2.014   1.223  0.4387  0.4922 -0.0033
 8497TIP3    H146982   4.774   1.955   1.178 -0.4206  0.2834  1.3966
 8497TIP3    H246983   4.781   2.088   1.251  1.0073  0.7246  0.4868
 8498TIP3   OH246984   4.788   1.559  14.126  0.2248  0.0257  0.1657
 8498TIP3    H146985   4.817   1.610  14.050 -0.4876  0.9681  0.4987
 8498TIP3    H246986   4.726   1.495  14.090 -0.4306  0.7444 -0.0104
 8499TIP3   OH246987   6.156   3.099   1.279  0.7408 -0.0343  0.0899
 8499TIP3    H146988   6.244   3.063   1.269  0.1288 -1.4107 -0.5929
 8499TIP3    H246989   6.168   3.194   1.281  2.2499 -0.2196  0.1794
 8500TIP3   OH246990   4.789   5.341  12.379  0.0859 -0.0485  0.0101
 8500TIP3    H146991   4.788   5.252  12.415 -0.0368 -0.1045 -0.1306
 8500TIP3    H246992   4.881   5.366  12.379  0.3797 -1.0728 -2.1511
 8501TIP3   OH246993   0.278   6.573   5.190  0.0231 -0.0814 -0.3307
 8501TIP3    H146994   0.203   6.612   5.146 -1.0506 -0.2449  1.3243
 8501TIP3    H246995   0.260   6.479   5.192  0.4405 -0.1639 -0.2512
 8502TIP3   OH246996   2.928   1.975   2.947 -0.2786 -0.6869 -0.0238
 8502TIP3    H146997   2.974   1.956   2.866  0.4569  0.4808  0.1007
 8502TIP3    H246998   2.997   1.984   3.013 -0.7106  0.3364  0.3125
 8503TIP3   OH246999   6.498   5.794  13.221 -0.1439 -0.0592 -0.0275
 8503TIP3    H147000   6.546   5.775  13.141 -0.7767 -0.7996 -0.2399
 8503TIP3    H247001   6.473   5.708  13.255  0.4490  0.2300  1.1714
 8504TIP3   OH247002   1.069   0.105   2.777 -0.0243 -0.1198  0.1358
 8504TIP3    H147003   0.995   0.054   2.811 -0.8602  0.7770 -0.3426
 8504TIP3    H247004   1.031   0.189   2.752  1.4469  0.9573  1.4217
 8505TIP3   OH247005   0.546   4.474  13.465  0.1792 -0.2143 -1.1775
 8505TIP3    H147006   0.464   4.486  13.418  0.9746 -0.1031 -2.5790
 8505TIP3    H247007   0.578   4.563  13.482  0.0415 -0.2561 -0.6841
 8506TIP3   OH247008   1.048   1.136   3.553  0.4307  0.0805  0.0016
 8506TIP3    H147009   1.086   1.148   3.640 -1.3731 -1.7149  1.0868
 8506TIP3    H247010   0.953   1.137   3.569  0.0435  1.5697 -2.2186
 8507TIP3   OH247011   0.969   3.368  13.965 -0.0500 -0.4080 -0.2169
 8507TIP3    H147012   0.982   3.463  13.970  0.1834 -0.5120  1.3987
 8507TIP3    H247013   1.030   3.332  14.029 -0.2620 -1.6405 -0.6961
 8508TIP3   OH247014   3.579   0.085   0.390  0.2964  0.0274  0.0224
 8508TIP3    H147015   3.623   0.042   0.464  2.6081 -0.3899 -1.5316
 8508TIP3    H247016   3.603   0.177   0.400 -1.3554  0.3641  1.0942
 8509TIP3   OH247017   1.730   6.778   3.723  0.2893 -0.1145 -0.2422
 8509TIP3    H147018   1.716   6.731   3.805  1.4521 -2.0629 -1.1261
 8509TIP3    H247019   1.818   6.814   3.730  1.3686 -2.4013 -1.6171
 8510TIP3   OH247020   5.533   5.535  15.094  0.4772 -0.0100 -0.2535
 8510TIP3    H147021   5.558   5.624  15.070 -0.9797  0.1231 -1.3383
 8510TIP3    H247022   5.518   5.491  15.010  0.3220 -1.0183  0.2987
 8511TIP3   OH247023   2.879   3.037   3.636  0.1454  0.1202 -0.2241
 8511TIP3    H147024   2.834   3.121   3.630 -2.6140 -1.3251 -0.6861
 8511TIP3    H247025   2.945   3.050   3.704 -1.9567  1.9214  1.5716
 8512TIP3   OH247026   0.922   0.930  16.427  0.2977  0.3024 -0.4308
 8512TIP3    H147027   0.871   0.857  16.463  2.2477 -0.3166  1.1551
 8512TIP3    H247028   0.858   0.984  16.381 -1.6546 -0.8950  0.8259
 8513TIP3   OH247029   1.520   0.896  12.184  0.3125 -0.3135 -0.8050
 8513TIP3    H147030   1.441   0.859  12.223 -0.0015  0.3186 -0.8452
 8513TIP3    H247031   1.510   0.991  12.192 -1.1609  0.0002 -5.0583
 8514TIP3   OH247032   5.796   6.658   6.180  0.2455 -0.0850  0.3489
 8514TIP3    H147033   5.831   6.574   6.209  0.4335 -0.3637 -0.6682
 8514TIP3    H247034   5.869   6.719   6.187  1.0997 -0.7598 -2.1948
 8515TIP3   OH247035   6.440   0.120  15.967  0.0803  0.4783  0.0994
 8515TIP3    H147036   6.465   0.156  16.052  0.6009  0.1515  0.0932
 8515TIP3    H247037   6.422   0.027  15.985 -1.8197  0.8600  0.2225
 8516TIP3   OH247038   1.125   5.364  12.915 -0.6132 -0.0615 -0.0498
 8516TIP3    H147039   1.039   5.350  12.953 -0.8199 -0.0534 -0.5090
 8516TIP3    H247040   1.134   5.459  12.910 -0.5764 -0.0625 -0.0007
 8517TIP3   OH247041   1.211   3.020   2.758 -0.0905 -0.2505  0.4493
 8517TIP3    H147042   1.226   2.926   2.770  1.8792  0.3875  3.6016
 8517TIP3    H247043   1.121   3.033   2.786  0.3798 -0.8553  2.3111
 8518TIP3   OH247044   1.446   0.353   4.777 -0.1081  0.4179  0.3432
 8518TIP3    H147045   1.478   0.323   4.692 -0.3411 -0.7158  0.6558
 8518TIP3    H247046   1.525   0.370   4.828  0.0440  1.6742 -0.2824
 8519TIP3   OH247047   4.568   0.264  16.165  0.5292 -0.7413  0.4700
 8519TIP3    H147048   4.632   0.295  16.101  1.3821 -0.4184  1.4523
 8519TIP3    H247049   4.585   0.317  16.243 -2.6005  1.1225 -0.0266
 8520TIP3   OH247050   0.898   0.989  13.131  0.1376  0.2010 -0.4161
 8520TIP3    H147051   0.898   1.010  13.037 -1.1964  2.5648  0.1020
 8520TIP3    H247052   0.988   0.961  13.148  0.1850 -1.1691 -2.5688
 8521TIP3   OH247053   6.179   3.478  15.495 -0.2585  0.2938 -0.3611
 8521TIP3    H147054   6.143   3.542  15.433  0.3551  1.1690  0.1821
 8521TIP3    H247055   6.256   3.521  15.533 -0.3068 -0.4527  0.6081
 8522TIP3   OH247056   0.302   2.978   1.388 -0.1810 -0.1935  0.7642
 8522TIP3    H147057   0.347   2.983   1.472 -0.5268  1.2605  0.8832
 8522TIP3    H247058   0.310   3.067   1.351  0.2712 -0.8958 -0.8908
 8523TIP3   OH247059   2.535   1.942  17.247 -0.2174 -0.2817  0.1555
 8523TIP3    H147060   2.472   1.934  17.318 -0.4231 -0.7910 -0.0870
 8523TIP3    H247061   2.595   1.869  17.259 -0.8953 -1.0016 -0.8390
 8524TIP3   OH247062   1.347   2.973   1.621  0.0007 -0.1594 -0.2480
 8524TIP3    H147063   1.394   2.892   1.641  0.7281  0.2935 -0.1154
 8524TIP3    H247064   1.257   2.957   1.651  0.3731 -0.5611  0.6702
 8525TIP3   OH247065   2.463   3.609   5.730 -0.3444  0.5423  0.2317
 8525TIP3    H147066   2.497   3.687   5.685  0.6859 -0.0275  0.0155
 8525TIP3    H247067   2.512   3.537   5.693 -1.5373 -0.2658  0.1920
 8526TIP3   OH247068   3.090   6.364  15.744 -0.0109 -0.1337  0.5981
 8526TIP3    H147069   3.119   6.335  15.831 -0.3523  1.1966  1.1613
 8526TIP3    H247070   3.022   6.429  15.762  0.9051  1.1860 -0.6424
 8527TIP3   OH247071   0.151   6.386  14.947  0.1163 -0.0174 -0.3648
 8527TIP3    H147072   0.143   6.359  15.038  2.8471  0.1022 -0.0269
 8527TIP3    H247073   0.118   6.312  14.897  3.2404 -2.2325  0.6696
 8528TIP3   OH247074   2.699   6.781   5.356 -0.6760 -1.0136 -0.0946
 8528TIP3    H147075   2.643   6.738   5.291 -1.7821  1.4425 -0.8301
 8528TIP3    H247076   2.642   6.795   5.431 -0.2412 -1.0889  0.2509
 8529TIP3   OH247077   6.618   0.272   1.340 -0.2551  0.5924 -0.3000
 8529TIP3    H147078   6.649   0.182   1.341 -1.1466  0.2693  1.4042
 8529TIP3    H247079   6.571   0.281   1.257 -0.1318 -0.5036 -0.4920
 8530TIP3   OH247080   2.078   0.481   0.039 -0.3310  0.1509  0.2195
 8530TIP3    H147081   2.159   0.442   0.073 -1.2547 -1.5821  0.4407
 8530TIP3    H247082   2.055   0.548   0.103  0.2831 -0.1672  0.7746
 8531TIP3   OH247083   4.288   0.326   3.540  0.4007 -0.2780 -0.1353
 8531TIP3    H147084   4.194   0.313   3.551  0.2749 -0.3438 -1.2193
 8531TIP3    H247085   4.328   0.279   3.613 -0.4038 -0.2612  0.3214
 8532TIP3   OH247086   1.557   5.218   0.378 -0.0797 -0.1046 -0.0375
 8532TIP3    H147087   1.605   5.280   0.433  0.9974 -0.8882 -0.0847
 8532TIP3    H247088   1.570   5.250   0.289  0.7737 -0.6050 -0.0912
 8533TIP3   OH247089   3.442   0.720  13.513  0.4720 -0.8703 -0.6921
 8533TIP3    H147090   3.489   0.658  13.569  1.8723 -0.1590 -1.0616
 8533TIP3    H247091   3.443   0.802  13.563  1.1292 -0.4097 -1.4494
 8534TIP3   OH247092   5.560   1.940   1.395  0.1979  1.2752 -0.0750
 8534TIP3    H147093   5.653   1.924   1.412  0.0958 -0.5546 -1.1547
 8534TIP3    H247094   5.515   1.896   1.468  0.1552  2.1635  0.4495
 8535TIP3   OH247095   2.898   1.568   2.849 -0.0538  0.7539 -0.4437
 8535TIP3    H147096   2.893   1.535   2.939  0.4745  2.7119  0.3203
 8535TIP3    H247097   2.905   1.489   2.796  0.8431 -0.4103  1.3262
 8536TIP3   OH247098   0.171   0.338  13.520  0.0953 -0.2780  0.0421
 8536TIP3    H147099   0.174   0.272  13.451  0.0813  1.1511 -1.3382
 8536TIP3    H247100   0.136   0.416  13.478  1.5853  1.0990  1.2593
 8537TIP3   OH247101   5.458   2.700  14.464  0.1646 -0.6264 -0.0263
 8537TIP3    H147102   5.455   2.755  14.542  0.2306 -0.8804  0.1583
 8537TIP3    H247103   5.367   2.677  14.446  0.0487  0.2777 -0.6333
 8538TIP3   OH247104   3.213   5.578   4.161  0.1377  0.0576 -0.1036
 8538TIP3    H147105   3.248   5.605   4.076 -0.1928 -0.0673 -0.2790
 8538TIP3    H247106   3.132   5.627   4.170  0.0684 -0.0869  0.0478
 8539TIP3   OH247107   0.974   2.811  15.698 -0.5583  0.0079  0.0092
 8539TIP3    H147108   1.067   2.815  15.679 -0.3727  0.0147  0.8835
 8539TIP3    H247109   0.936   2.762  15.625 -0.1643  1.6936 -1.3574
 8540TIP3   OH247110   6.188   6.066  14.219  0.0284 -0.2942 -0.1772
 8540TIP3    H147111   6.144   6.016  14.150  0.8319  0.2565 -1.1059
 8540TIP3    H247112   6.278   6.077  14.187  0.5773 -0.5644  1.2516
 8541TIP3   OH247113   0.970   4.772  16.755 -0.1009 -1.0597 -0.4408
 8541TIP3    H147114   1.025   4.821  16.815 -2.6569 -1.9210  2.7234
 8541TIP3    H247115   0.922   4.839  16.705 -0.1647 -0.3282  0.6054
 8542TIP3   OH247116   1.938   3.149   5.288 -0.3666 -0.3527  0.0158
 8542TIP3    H147117   1.926   3.139   5.194  3.3250  1.3350 -0.7266
 8542TIP3    H247118   1.997   3.077   5.313  0.8674  0.7876  0.4747
 8543TIP3   OH247119   4.891   5.929  16.053  0.0461  0.1811 -0.2108
 8543TIP3    H147120   4.835   5.967  16.120  0.1147  2.3318 -1.3217
 8543TIP3    H247121   4.979   5.932  16.091 -0.1103  0.0142  0.1684
 8544TIP3   OH247122   2.730   6.608  16.728  0.0573  0.3088  0.2689
 8544TIP3    H147123   2.636   6.609  16.706  0.1477 -0.2574 -0.1424
 8544TIP3    H247124   2.743   6.688  16.779 -0.9987 -0.4676  1.7944
 8545TIP3   OH247125   6.291   4.923  12.484 -0.3464 -0.0654  0.1895
 8545TIP3    H147126   6.379   4.959  12.474 -0.2583 -0.2841  0.1531
 8545TIP3    H247127   6.289   4.849  12.423 -0.2555 -0.5970  0.8131
 8546TIP3   OH247128   3.915   5.870   4.703 -0.0384 -0.3077  0.1867
 8546TIP3    H147129   3.922   5.840   4.613  1.2857  0.2068  0.0902
 8546TIP3    H247130   3.944   5.796   4.756  0.2946 -0.2295  0.1173
 8547TIP3   OH247131   4.314   1.851  15.290 -0.2687  0.2733 -0.1340
 8547TIP3    H147132   4.291   1.836  15.198  0.7293  0.9797 -0.5090
 8547TIP3    H247133   4.350   1.940  15.291 -0.0086  0.1570  0.8906
 8548TIP3   OH247134   6.790   1.604  10.741 -0.3005 -0.1507 -0.3879
 8548TIP3    H147135   6.836   1.538  10.792  0.4205  0.8103  0.2391
 8548TIP3    H247136   6.767   1.560  10.660  2.1693 -0.5583 -0.9225
 8549TIP3   OH247137   1.988   3.418  14.487  0.3344  0.0701  0.8603
 8549TIP3    H147138   1.960   3.419  14.396 -0.9108  0.0240  1.2316
 8549TIP3    H247139   2.075   3.459  14.486  0.4195 -0.1244 -0.3644
 8550TIP3   OH247140   2.318   3.179  15.732 -0.1678 -0.3862 -0.2285
 8550TIP3    H147141   2.379   3.149  15.800 -2.1377  0.5857  2.0351
 8550TIP3    H247142   2.240   3.126  15.745 -1.5358  1.6452  0.0312
 8551TIP3   OH247143   5.546   2.815  15.228  0.4558  0.0020  0.3390
 8551TIP3    H147144   5.462   2.856  15.252  0.9574  1.1072  0.2523
 8551TIP3    H247145   5.568   2.760  15.303 -0.0494  0.1877  0.6268
 8552TIP3   OH247146   5.533   0.290  13.205 -0.1210  0.1046  0.8271
 8552TIP3    H147147   5.514   0.296  13.299  0.2700  1.2511  0.8380
 8552TIP3    H247148   5.573   0.203  13.194 -1.2943 -0.5248  1.5151
 8553TIP3   OH247149   2.670   5.779  13.852 -0.7829  0.0924 -0.0631
 8553TIP3    H147150   2.606   5.746  13.788  0.0541  0.1337 -0.9260
 8553TIP3    H247151   2.724   5.703  13.874 -1.0222  0.0955  0.5512
 8554TIP3   OH247152   1.958   1.979  12.790  0.1284 -0.2412  0.9488
 8554TIP3    H147153   1.912   1.896  12.804 -1.2722  0.5727  1.3142
 8554TIP3    H247154   2.007   1.993  12.870  2.6275 -2.0662 -0.1694
 8555TIP3   OH247155   4.521   2.216  14.846 -0.8450 -0.1633  0.7745
 8555TIP3    H147156   4.570   2.230  14.927 -1.6192  2.1965  0.8786
 8555TIP3    H247157   4.432   2.196  14.875 -1.2838  1.3470  0.5400
 8556TIP3   OH247158   2.460   6.317   0.780  0.0337 -0.6842  0.3998
 8556TIP3    H147159   2.540   6.344   0.734  0.8166 -3.0948  0.2492
 8556TIP3    H247160   2.488   6.307   0.871  0.3342 -3.0654  0.0760
 8557TIP3   OH247161   2.582   2.822  15.455  0.4971 -0.2241 -0.0707
 8557TIP3    H147162   2.634   2.894  15.490  0.1811  0.1938 -0.4592
 8557TIP3    H247163   2.553   2.773  15.532  0.2379  0.3908  0.2247
 8558TIP3   OH247164   6.678   1.775   0.959 -0.0824 -0.3572  0.2470
 8558TIP3    H147165   6.689   1.797   1.052  1.8974  1.7819 -0.4348
 8558TIP3    H247166   6.752   1.818   0.916 -2.4194  0.9167 -2.6542
 8559TIP3   OH247167   1.654   3.112   1.033  0.2915 -0.6025  0.0332
 8559TIP3    H147168   1.630   3.038   1.089  1.0874 -1.5701 -0.8932
 8559TIP3    H247169   1.665   3.185   1.094  0.4468 -1.4792  1.0700
 8560TIP3   OH247170   5.246   0.006   1.584  0.0426 -0.8144 -0.3502
 8560TIP3    H147171   5.246  -0.087   1.560 -2.1232 -0.1493 -3.2246
 8560TIP3    H247172   5.335   0.036   1.563  0.0725 -1.7315 -1.6114
 8561TIP3   OH247173   3.485   3.184  12.448  0.0071 -0.2908 -0.5000
 8561TIP3    H147174   3.488   3.142  12.534 -2.2301  1.8967  0.7275
 8561TIP3    H247175   3.520   3.272  12.462  1.1945 -0.4677 -2.2070
 8562TIP3   OH247176   4.368   6.685   6.568 -0.3467 -0.0260  0.3332
 8562TIP3    H147177   4.292   6.712   6.619 -0.2387 -1.1125  1.0919
 8562TIP3    H247178   4.443   6.720   6.615 -0.2463 -1.0422  0.9576
 8563TIP3   OH247179   6.342   3.163  12.066 -0.3862 -0.3328 -0.3609
 8563TIP3    H147180   6.379   3.245  12.032  1.2899 -0.1975  1.6969
 8563TIP3    H247181   6.419   3.112  12.092 -1.5758 -0.4971  3.0351
 8564TIP3   OH247182   3.592   5.684  11.448  0.0255 -0.0493 -0.2358
 8564TIP3    H147183   3.530   5.633  11.397  1.1103 -1.4317 -0.1919
 8564TIP3    H247184   3.622   5.753  11.389  1.2191 -1.5926 -1.4513
 8565TIP3   OH247185   4.566   4.282   2.441 -0.7762 -0.4656  0.0569
 8565TIP3    H147186   4.569   4.280   2.537  0.1335  0.1623  0.0503
 8565TIP3    H247187   4.482   4.324   2.421  1.0828  3.8593  0.6842
 8566TIP3   OH247188   3.115   6.655  10.629  0.1319  0.2951 -0.2304
 8566TIP3    H147189   3.193   6.627  10.581 -0.7469  0.0289 -1.5041
 8566TIP3    H247190   3.041   6.625  10.576 -0.8524  0.3911  1.0518
 8567TIP3   OH247191   1.138   5.625   1.894 -0.4582 -0.3856 -0.1650
 8567TIP3    H147192   1.096   5.609   1.810  0.8167 -2.7340 -0.4206
 8567TIP3    H247193   1.213   5.680   1.873 -1.3902  0.8787 -0.2232
 8568TIP3   OH247194   1.220   4.944   0.520 -0.4818 -0.5040  0.8251
 8568TIP3    H147195   1.136   4.899   0.531 -0.0843 -0.9895  1.9299
 8568TIP3    H247196   1.285   4.874   0.513  0.0457 -0.1317  1.7786
 8569TIP3   OH247197   0.206   2.349  13.199 -0.2816  0.2545 -0.0885
 8569TIP3    H147198   0.116   2.379  13.215  0.0461 -0.7899  4.3709
 8569TIP3    H247199   0.194   2.264  13.156 -1.3618  1.2742 -1.8615
 8570TIP3   OH247200   4.974   5.945   1.181  0.0692 -0.1282  0.2527
 8570TIP3    H147201   5.020   5.890   1.117  0.6010 -0.6868  1.1154
 8570TIP3    H247202   4.885   5.953   1.147  0.5082  0.0729 -0.8745
 8571TIP3   OH247203   1.040   4.618   4.786  0.2317  1.0239 -0.2269
 8571TIP3    H147204   1.087   4.617   4.869  0.4094  1.4642 -0.3212
 8571TIP3    H247205   0.947   4.624   4.811 -0.0546 -3.3114  0.0543
 8572TIP3   OH247206   6.761   1.217  15.984 -0.0654  0.2854  0.1831
 8572TIP3    H147207   6.720   1.225  16.070  0.1586 -0.8286  0.4008
 8572TIP3    H247208   6.851   1.249  15.997  0.6658 -1.9509  0.9208
 8573TIP3   OH247209   2.406   5.547   2.290  0.2527  0.1991 -0.3168
 8573TIP3    H147210   2.327   5.578   2.335 -1.6748 -0.5827 -3.0457
 8573TIP3    H247211   2.445   5.627   2.254  1.2298  0.6969  1.7558
 8574TIP3   OH247212   5.701   0.862   5.556 -0.3311  0.1201 -0.2652
 8574TIP3    H147213   5.682   0.955   5.559  0.2694  0.2150  1.0327
 8574TIP3    H247214   5.788   0.856   5.517 -0.7155  0.0401 -1.1243
 8575TIP3   OH247215   1.820   0.879  12.595  0.5805 -0.5816 -0.2134
 8575TIP3    H147216   1.796   0.969  12.618  1.7889 -0.0601 -0.9274
 8575TIP3    H247217   1.812   0.830  12.677 -2.6958 -0.4307 -0.3573
 8576TIP3   OH247218   0.989   5.706   6.140  0.5739  0.1686  0.5662
 8576TIP3    H147219   1.021   5.736   6.055 -1.4480 -1.5482 -0.8529
 8576TIP3    H247220   0.938   5.779   6.174  1.2764  0.8110  0.2508
 8577TIP3   OH247221   3.841   0.593   0.233 -0.2137 -0.4880  0.1121
 8577TIP3    H147222   3.874   0.511   0.195 -0.7871 -0.9859  0.6687
 8577TIP3    H247223   3.862   0.586   0.326  1.4012  0.8286 -0.1347
 8578TIP3   OH247224   1.079   0.903  14.811  0.0320 -0.2263 -0.1511
 8578TIP3    H147225   1.057   0.812  14.833  0.7594 -0.4245 -0.2312
 8578TIP3    H247226   1.005   0.953  14.843 -0.4234 -0.8603 -0.1925
 8579TIP3   OH247227   1.078   3.457   4.642 -0.0581 -0.0686 -0.5547
 8579TIP3    H147228   1.166   3.494   4.650  0.5981 -1.2384 -2.1941
 8579TIP3    H247229   1.037   3.476   4.727  2.2588 -0.7974  0.7679
 8580TIP3   OH247230   4.882   1.219  15.744  0.0624  0.2720  0.1440
 8580TIP3    H147231   4.912   1.305  15.772  1.3240  0.0640 -0.5479
 8580TIP3    H247232   4.819   1.236  15.675  0.8119  0.6237 -0.4566
 8581TIP3   OH247233   6.686   6.490   3.594 -0.0313  0.2213 -0.0112
 8581TIP3    H147234   6.648   6.435   3.525 -1.2937 -0.0180  0.8657
 8581TIP3    H247235   6.780   6.490   3.575 -0.2783 -0.4523 -1.2985
 8582TIP3   OH247236   3.410   6.140  11.433 -0.0823  0.3108 -0.2282
 8582TIP3    H147237   3.356   6.203  11.482 -0.0212  0.0503  0.1833
 8582TIP3    H247238   3.409   6.062  11.488  2.2876  0.9112  0.7394
 8583TIP3   OH247239   1.121   5.716   5.092  0.0985  0.5214 -0.9172
 8583TIP3    H147240   1.031   5.748   5.079 -0.1144  1.2026  1.8400
 8583TIP3    H247241   1.113   5.621   5.093 -0.6636  0.5816 -0.4365
 8584TIP3   OH247242   5.901   4.229  16.395  0.1572  0.3778  0.1861
 8584TIP3    H147243   5.827   4.230  16.456 -0.0008 -0.9020  0.0335
 8584TIP3    H247244   5.872   4.283  16.321 -0.4327  0.2832  0.3452
 8585TIP3   OH247245   6.647   4.336   5.461 -0.0938  0.7183 -0.0395
 8585TIP3    H147246   6.598   4.266   5.506 -0.2393  0.6048 -0.3761
 8585TIP3    H247247   6.702   4.374   5.530  0.8415 -0.4882 -0.1033
 8586TIP3   OH247248   3.322   4.855  11.234  0.1431  0.1694  0.5409
 8586TIP3    H147249   3.414   4.858  11.209 -0.6440  1.4263 -2.3897
 8586TIP3    H247250   3.315   4.916  11.308  1.3265  1.4786 -0.4030
 8587TIP3   OH247251   2.837   4.055   1.956  0.1973  0.3908 -0.4055
 8587TIP3    H147252   2.842   4.119   1.885  0.1841  0.9589  0.0959
 8587TIP3    H247253   2.849   3.970   1.913  0.8761  0.7756 -0.9954
 8588TIP3   OH247254   4.187   4.694  16.691  0.5006 -0.5271 -0.8999
 8588TIP3    H147255   4.095   4.719  16.693  0.7828  0.5744 -1.3486
 8588TIP3    H247256   4.235   4.777  16.684  1.4360 -1.2087 -3.0643
 8589TIP3   OH247257   1.515   0.319   5.395 -0.0322  0.7261  0.0864
 8589TIP3    H147258   1.449   0.282   5.453 -1.1744 -0.2312 -1.8061
 8589TIP3    H247259   1.514   0.413   5.414 -2.1534  0.7599 -0.1510
 8590TIP3   OH247260   5.362   3.838  10.727 -0.1280 -0.3811 -0.0007
 8590TIP3    H147261   5.423   3.910  10.712  1.1425 -1.2481  0.9494
 8590TIP3    H247262   5.282   3.865  10.682  1.4789  0.0191 -2.6936
 8591TIP3   OH247263   0.848   5.584   2.811 -0.2130  0.3502  0.2582
 8591TIP3    H147264   0.753   5.577   2.795 -0.1624 -0.9712  0.4517
 8591TIP3    H247265   0.887   5.571   2.725 -0.1507 -0.9410  0.4715
 8592TIP3   OH247266   2.984   4.138   2.183 -0.3792 -0.3061 -0.5620
 8592TIP3    H147267   2.913   4.184   2.228  0.6103  0.5973  0.0970
 8592TIP3    H247268   2.945   4.110   2.100 -1.5476  0.0656 -0.1530
 8593TIP3   OH247269   3.324   2.199  13.883  0.1394  0.1119 -0.0187
 8593TIP3    H147270   3.270   2.208  13.805  0.4979 -0.7274 -0.3631
 8593TIP3    H247271   3.347   2.106  13.887  0.6808  0.2670  0.7114
 8594TIP3   OH247272   6.253   1.384  13.571 -0.1780  0.2174  0.6668
 8594TIP3    H147273   6.252   1.356  13.663 -0.3348  0.9566  0.8946
 8594TIP3    H247274   6.317   1.326  13.529 -2.0058 -1.8468  0.6699
 8595TIP3   OH247275   2.779   2.393  14.191  0.0679  0.5654  0.2318
 8595TIP3    H147276   2.711   2.396  14.259 -0.7833 -0.2341 -0.5842
 8595TIP3    H247277   2.859   2.417  14.238 -0.5758  0.4332  1.4395
 8596TIP3   OH247278   2.761   0.286  10.581  0.0266  0.1716  0.5966
 8596TIP3    H147279   2.782   0.202  10.540  1.4838  0.0428  1.5924
 8596TIP3    H247280   2.845   0.325  10.602 -0.6622  0.9587  1.9985
 8597TIP3   OH247281   4.146   4.328   2.553  0.6032 -0.0146  0.8015
 8597TIP3    H147282   4.105   4.320   2.467 -2.2891 -0.1643  2.1183
 8597TIP3    H247283   4.147   4.239   2.588 -0.8060  0.4273  2.0133
 8598TIP3   OH247284   4.992   0.058  13.356 -0.0894 -0.6744  0.3859
 8598TIP3    H147285   5.057   0.006  13.309 -0.6246  0.2072 -1.3545
 8598TIP3    H247286   4.965   0.125  13.294 -0.7938  0.5356  1.9706
 8599TIP3   OH247287   3.383   2.350   0.435  0.0978 -0.2445  0.2601
 8599TIP3    H147288   3.472   2.360   0.402  0.3947 -0.2298  1.0687
 8599TIP3    H247289   3.356   2.262   0.408  1.0980 -1.0379  1.7886
 8600TIP3   OH247290   6.564   5.643   1.326 -1.0958 -0.4395  0.2384
 8600TIP3    H147291   6.651   5.679   1.313 -1.4276  0.6674  1.0091
 8600TIP3    H247292   6.561   5.565   1.271  0.3756 -0.4777  0.2188
 8601TIP3   OH247293   3.883   1.542   5.969 -0.8246  0.5379  0.0615
 8601TIP3    H147294   3.975   1.520   5.954 -0.3559  0.6159  2.6121
 8601TIP3    H247295   3.886   1.628   6.012 -1.9506 -0.3302  1.9430
 8602TIP3   OH247296   2.199   3.918  15.738 -0.1517  0.0607 -0.0239
 8602TIP3    H147297   2.166   3.962  15.815  0.1222 -0.8050  0.5942
 8602TIP3    H247298   2.125   3.869  15.704 -0.1750  0.1485 -0.1009
 8603TIP3   OH247299   4.961   1.337  14.007  0.1961 -0.2729  0.1636
 8603TIP3    H147300   4.868   1.360  14.013  0.4070  0.9208 -0.9544
 8603TIP3    H247301   4.965   1.245  14.033 -1.1437 -0.0099  1.3288
 8604TIP3   OH247302   4.338   4.158  12.655  0.1622  0.1215 -0.0732
 8604TIP3    H147303   4.307   4.074  12.623 -2.2274  0.9669 -0.0434
 8604TIP3    H247304   4.424   4.169  12.615 -0.1864 -1.6026 -1.3319
 8605TIP3   OH247305   4.085   1.344   4.005 -0.0594  0.2102 -0.3832
 8605TIP3    H147306   4.148   1.287   4.049 -1.1177 -0.8483 -0.2166
 8605TIP3    H247307   4.070   1.416   4.066 -0.8923 -0.8241  0.6342
 8606TIP3   OH247308   3.786   3.122  16.894  0.0597 -0.4107 -0.0821
 8606TIP3    H147309   3.692   3.103  16.905 -0.0372 -0.5146 -1.0420
 8606TIP3    H247310   3.806   3.093  16.804  0.2564  2.6002 -1.0623
 8607TIP3   OH247311   0.617   0.791  16.650 -0.2498 -0.7106  0.0225
 8607TIP3    H147312   0.689   0.757  16.597  0.8446  0.2069  0.8769
 8607TIP3    H247313   0.658   0.858  16.706 -1.3757 -1.5407  1.9167
 8608TIP3   OH247314   1.269   5.260   4.213 -0.5169 -0.5439  0.3137
 8608TIP3    H147315   1.264   5.350   4.180 -1.3791 -0.4311  0.7463
 8608TIP3    H247316   1.192   5.250   4.269  0.4079 -1.0389  1.5428
 8609TIP3   OH247317   5.050   2.467  11.035 -0.0468  0.6096  0.3051
 8609TIP3    H147318   5.084   2.550  11.067 -1.6252  0.6152  2.0223
 8609TIP3    H247319   4.963   2.488  11.002  0.0496 -0.1301 -0.4291
 8610TIP3   OH247320   0.480   0.415  15.605 -0.0750 -0.1710  0.4120
 8610TIP3    H147321   0.425   0.401  15.682 -0.3132 -0.2052  0.2376
 8610TIP3    H247322   0.468   0.335  15.553  1.8734 -1.1585  1.4250
 8611TIP3   OH247323   0.272   2.076   4.935  0.3323  0.5059 -0.0297
 8611TIP3    H147324   0.249   2.090   4.843 -0.5110 -1.2388 -0.1067
 8611TIP3    H247325   0.326   1.997   4.934  1.3533  1.1750  0.8548
 8612TIP3   OH247326   5.358   5.596  11.536 -0.1373  0.2663  0.6393
 8612TIP3    H147327   5.387   5.596  11.628  0.5565 -1.6783  0.4498
 8612TIP3    H247328   5.274   5.551  11.538 -1.3978  2.5679  0.6638
 8613TIP3   OH247329   4.254   0.471  11.869 -0.3330 -0.4502  0.7041
 8613TIP3    H147330   4.226   0.400  11.812 -1.8073 -0.4540  1.4040
 8613TIP3    H247331   4.340   0.443  11.901  0.1907 -0.7693 -0.9280
 8614TIP3   OH247332   5.657   5.928  16.820 -0.0588 -0.3627 -0.2652
 8614TIP3    H147333   5.733   5.892  16.776 -0.3947  0.3872 -1.4982
 8614TIP3    H247334   5.584   5.912  16.759 -0.7495 -0.4012  0.5581
 8615TIP3   OH247335   6.010   2.918  13.264  0.1541  0.2631 -0.5804
 8615TIP3    H147336   5.938   2.901  13.203  0.0410  0.1584 -0.4162
 8615TIP3    H247337   6.054   2.833  13.274  0.8946  0.5325 -1.4381
 8616TIP3   OH247338   1.088   1.362  10.396  0.2294  0.2081  0.2147
 8616TIP3    H147339   1.035   1.439  10.413  0.3149 -0.1441  2.2239
 8616TIP3    H247340   1.174   1.383  10.432 -0.2854 -1.5345  2.5949
 8617TIP3   OH247341   2.430   0.068   2.221  0.3554 -0.3654 -0.2300
 8617TIP3    H147342   2.408   0.161   2.218 -0.0953 -0.5150 -2.5143
 8617TIP3    H247343   2.515   0.065   2.265 -0.1244  1.0304  0.8050
 8618TIP3   OH247344   4.521   0.597   5.009  0.2355 -0.5635 -0.0278
 8618TIP3    H147345   4.610   0.593   5.043  0.4374  0.7092 -0.3545
 8618TIP3    H247346   4.468   0.551   5.073  0.9339 -0.1390  0.8584
 8619TIP3   OH247347   3.163   3.888  12.633  0.0773  0.0087  0.3055
 8619TIP3    H147348   3.225   3.848  12.694  1.4487  0.2035 -0.9535
 8619TIP3    H247349   3.214   3.908  12.555 -1.9093 -1.4476 -1.4559
 8620TIP3   OH247350   3.925   1.496   4.742  0.3416 -0.2698  0.4784
 8620TIP3    H147351   3.844   1.468   4.700  0.6439 -1.8789  0.9583
 8620TIP3    H247352   3.978   1.532   4.671  0.4181 -1.9924 -0.3555
 8621TIP3   OH247353   2.363   1.581   1.277 -0.0558 -0.4164  0.8598
 8621TIP3    H147354   2.456   1.599   1.294  0.1426  1.0042 -1.5345
 8621TIP3    H247355   2.341   1.511   1.339  2.7720 -1.1903  1.0776
 8622TIP3   OH247356   2.555   6.710  10.647  0.8393  0.3303  0.1030
 8622TIP3    H147357   2.531   6.785  10.592  1.5363  0.4929  0.0178
 8622TIP3    H247358   2.494   6.641  10.621  0.9344  0.5177 -0.6264
 8623TIP3   OH247359   3.366   4.566   3.163 -0.1568 -0.2046  0.2660
 8623TIP3    H147360   3.407   4.493   3.210 -0.2317  0.2459  1.0424
 8623TIP3    H247361   3.331   4.527   3.083  0.8611 -0.7894  0.1014
 8624TIP3   OH247362   4.793   6.481  12.493 -0.2865 -0.5041 -0.1619
 8624TIP3    H147363   4.747   6.402  12.523 -1.6373 -0.5858 -2.3117
 8624TIP3    H247364   4.733   6.552  12.515  1.0081 -0.0258  1.9325
 8625TIP3   OH247365   5.935   2.923   4.310  0.3914  0.2410  0.4390
 8625TIP3    H147366   5.970   2.836   4.327  0.6318  0.6158  1.9606
 8625TIP3    H247367   5.840   2.914   4.322  0.2565 -0.1283 -0.8462
 8626TIP3   OH247368   3.652   6.799  11.994  0.2697  0.0844 -0.1409
 8626TIP3    H147369   3.738   6.832  11.965 -0.1061  0.4462 -0.8598
 8626TIP3    H247370   3.593   6.874  11.982  0.1593  0.3350  1.8587
 8627TIP3   OH247371   3.270   2.700   0.232  0.6194  0.0126  0.2267
 8627TIP3    H147372   3.320   2.748   0.298 -1.0180  2.6706 -0.3838
 8627TIP3    H247373   3.208   2.647   0.283  0.3105  0.9891  0.8794
 8628TIP3   OH247374   0.987   1.182   2.060  0.2470 -0.6024  0.1205
 8628TIP3    H147375   0.908   1.136   2.088 -0.8725 -0.3537 -2.5177
 8628TIP3    H247376   1.006   1.147   1.973  1.4930  1.2708 -0.3846
 8629TIP3   OH247377   5.734   5.403  15.800  0.2980  0.0718 -0.0927
 8629TIP3    H147378   5.749   5.457  15.722  1.2678  0.5814  0.4301
 8629TIP3    H247379   5.763   5.316  15.774  0.0302  0.0990 -0.5020
 8630TIP3   OH247380   0.035   5.254   5.809  0.0508 -0.1891  0.1909
 8630TIP3    H147381   0.051   5.174   5.858 -0.6622  0.0869  0.8821
 8630TIP3    H247382  -0.061   5.261   5.805  0.1156  0.8131  0.4303
 8631TIP3   OH247383   4.051   5.637   0.040 -0.4883  0.0121 -0.1996
 8631TIP3    H147384   4.000   5.668   0.114  0.2866  0.8321  0.0070
 8631TIP3    H247385   4.056   5.713  -0.019 -2.4028 -1.0886 -1.8252
 8632TIP3   OH247386   4.779   4.026  15.617  0.2452  0.0333 -0.4735
 8632TIP3    H147387   4.720   4.032  15.541 -1.4971 -0.0412  0.8509
 8632TIP3    H247388   4.783   4.115  15.651  0.9773  0.0543 -0.6157
 8633TIP3   OH247389   0.397   2.623   5.555  0.5493  0.1817  0.1949
 8633TIP3    H147390   0.302   2.632   5.547  0.5814 -0.0813 -0.6130
 8633TIP3    H247391   0.428   2.711   5.574  0.1407  0.2677  0.4693
 8634TIP3   OH247392   0.958   3.781   5.399  0.0604 -0.1044 -0.3611
 8634TIP3    H147393   0.893   3.837   5.443 -0.3860 -1.5195  0.8296
 8634TIP3    H247394   1.039   3.797   5.447  0.8094  2.2167 -2.3108
 8635TIP3   OH247395   2.147   1.546   0.402  0.6485 -0.1243  0.2398
 8635TIP3    H147396   2.140   1.502   0.318  3.2319 -0.2684  0.0346
 8635TIP3    H247397   2.102   1.488   0.464 -1.3367  0.0325 -1.0286
 8636TIP3   OH247398   5.803   5.066   1.803  0.2977 -0.3085  0.0535
 8636TIP3    H147399   5.737   5.134   1.786 -0.3743 -1.0013 -0.1258
 8636TIP3    H247400   5.769   5.018   1.879  0.1109 -1.2945 -0.6546
 8637TIP3   OH247401   2.465   1.637  16.342 -0.2507  0.0590  0.8432
 8637TIP3    H147402   2.517   1.654  16.420  0.5908 -0.3247  0.3678
 8637TIP3    H247403   2.483   1.546  16.319  0.8659  0.6598 -0.7884
 8638TIP3   OH247404   4.949   6.289   4.067 -0.0811  0.5504 -0.1084
 8638TIP3    H147405   4.997   6.245   4.137 -2.5413  0.0948  1.3597
 8638TIP3    H247406   5.013   6.348   4.027  1.9532 -0.8224  1.0682
 8639TIP3   OH247407   5.959   0.865  12.641  0.2583 -0.0917  0.4335
 8639TIP3    H147408   5.868   0.852  12.665  0.1563 -1.5317 -0.6242
 8639TIP3    H247409   5.959   0.946  12.590 -0.4245 -0.0631  0.4752
 8640TIP3   OH247410   2.698   5.482   1.900 -0.4915  0.5109  0.0196
 8640TIP3    H147411   2.667   5.552   1.957  0.8455  0.5263  0.7621
 8640TIP3    H247412   2.634   5.411   1.912 -0.0120  0.3642  1.8683
 8641TIP3   OH247413   4.086   6.774  13.153  0.2146 -0.7527 -0.1359
 8641TIP3    H147414   4.178   6.756  13.136  0.8152  1.3278  0.7899
 8641TIP3    H247415   4.075   6.757  13.247 -0.3130 -0.8359 -0.2115
 8642TIP3   OH247416   6.545   2.361   4.769 -0.4397 -0.5358  0.8630
 8642TIP3    H147417   6.529   2.349   4.863  0.5816 -2.0416  0.8615
 8642TIP3    H247418   6.500   2.287   4.728 -1.7885  0.7029  0.0534
 8643TIP3   OH247419   6.369   2.880   5.147  0.4618  0.2709 -0.4526
 8643TIP3    H147420   6.442   2.941   5.146 -0.5163  1.4717 -0.0087
 8643TIP3    H247421   6.385   2.821   5.073  1.9280  0.4392 -0.2804
 8644TIP3   OH247422   1.703   3.464   5.073  0.1220  0.3321 -0.1782
 8644TIP3    H147423   1.790   3.442   5.038  0.3425  0.7545  0.0971
 8644TIP3    H247424   1.649   3.476   4.995  0.5585  1.0500 -0.3809
 8645TIP3   OH247425   0.962   2.401   4.073  0.6715  0.0092  0.0463
 8645TIP3    H147426   1.001   2.465   4.132  1.3969 -0.3202 -0.0655
 8645TIP3    H247427   1.013   2.321   4.087  0.0053 -0.4444 -0.0744
 8646TIP3   OH247428   3.418   5.653  13.617 -0.4042  0.1004  0.1705
 8646TIP3    H147429   3.494   5.684  13.666  0.2742  0.5903 -1.1699
 8646TIP3    H247430   3.392   5.727  13.562 -1.7223 -0.1378  0.4658
 8647TIP3   OH247431   6.080   5.286   0.973 -0.0702 -0.3562 -0.2386
 8647TIP3    H147432   6.110   5.353   0.911 -0.1313  1.4914  1.6867
 8647TIP3    H247433   6.154   5.225   0.981  0.2636 -0.1213 -1.4310
 8648TIP3   OH247434   2.732   4.224   2.217 -0.4801  0.3711 -0.3416
 8648TIP3    H147435   2.734   4.145   2.163  0.8200 -0.2228  0.5518
 8648TIP3    H247436   2.679   4.200   2.293 -2.6563  1.3347 -1.5036
 8649TIP3   OH247437   1.771   4.974   5.719 -0.0173 -0.2442 -0.7765
 8649TIP3    H147438   1.825   4.934   5.650  0.6383 -1.4895  0.4197
 8649TIP3    H247439   1.690   4.924   5.717  0.2717 -0.7358 -0.1847
 8650TIP3   OH247440   0.369   2.867  12.445  0.2148  0.2005  0.9101
 8650TIP3    H147441   0.393   2.839  12.533 -2.1313  0.8893  1.8143
 8650TIP3    H247442   0.275   2.880  12.449 -0.1500 -1.0222 -2.0749
 8651TIP3   OH247443   3.597   2.856   1.176 -0.2603 -0.0663 -0.3522
 8651TIP3    H147444   3.681   2.890   1.205  0.7903 -0.6475 -2.5761
 8651TIP3    H247445   3.583   2.778   1.230  0.6362  0.0266  0.0236
 8652TIP3   OH247446   5.737   0.454  13.529  0.1041 -0.0128 -0.3771
 8652TIP3    H147447   5.744   0.400  13.608 -0.1528 -0.7161 -0.8335
 8652TIP3    H247448   5.688   0.531  13.557  0.3688 -0.0655  0.2489
 8653TIP3   OH247449   5.116   2.125   4.624  0.0160 -0.3563  0.6600
 8653TIP3    H147450   5.165   2.190   4.674  0.5650 -0.9396  0.8810
 8653TIP3    H247451   5.165   2.117   4.542 -0.2203 -0.2745  0.5102
 8654TIP3   OH247452   6.592   6.604  16.736  0.2545 -0.7135  0.0062
 8654TIP3    H147453   6.646   6.651  16.673 -1.1415 -1.6578 -1.9422
 8654TIP3    H247454   6.507   6.648  16.732  0.5700  0.2184  2.4208
 8655TIP3   OH247455   6.341   5.963  12.954 -0.2952  0.1472  0.1177
 8655TIP3    H147456   6.316   6.047  12.914  1.1115 -0.0139 -1.1065
 8655TIP3    H247457   6.309   5.970  13.044 -1.1961  1.5456 -0.2894
 8656TIP3   OH247458   1.775   0.566   1.302 -0.5777  0.1820 -0.3321
 8656TIP3    H147459   1.858   0.520   1.290 -0.4321  0.8563 -2.0223
 8656TIP3    H247460   1.734   0.566   1.216 -1.6648  1.1335  0.1650
 8657TIP3   OH247461   4.978   4.219   2.407 -0.0965 -0.5385 -0.2426
 8657TIP3    H147462   4.899   4.168   2.426 -0.7784  0.3131 -0.7250
 8657TIP3    H247463   4.977   4.231   2.312  0.9763 -1.0750 -0.3341
 8658TIP3   OH247464   4.543   4.686  16.458  0.2863  0.3357  0.0782
 8658TIP3    H147465   4.483   4.624  16.418 -0.5717  1.8826 -1.0475
 8658TIP3    H247466   4.523   4.681  16.552  1.5895 -2.5150  0.2642
 8659TIP3   OH247467   1.321   4.477  16.794  0.5096 -0.7176  0.6291
 8659TIP3    H147468   1.410   4.452  16.774  0.2385 -1.4691  0.3582
 8659TIP3    H247469   1.285   4.404  16.844 -0.9577 -1.8733 -1.9931
 8660TIP3   OH247470   3.454   2.724  15.050 -0.2041  0.4494 -0.0911
 8660TIP3    H147471   3.394   2.742  14.977 -0.6797  3.6200  0.9823
 8660TIP3    H247472   3.524   2.789  15.040 -0.1231  0.7389  2.0506
 8661TIP3   OH247473   4.744   4.136   1.143  0.1402 -0.6073  0.2927
 8661TIP3    H147474   4.681   4.088   1.196  0.6068  0.9295  2.3212
 8661TIP3    H247475   4.793   4.189   1.206  0.3158  1.7464 -1.7287
 8662TIP3   OH247476   2.029   5.816  11.654 -0.0167 -0.8045  0.3313
 8662TIP3    H147477   2.022   5.750  11.585  0.7467 -1.3089  0.7263
 8662TIP3    H247478   2.002   5.897  11.612  0.6597 -1.0624 -0.6278
 8663TIP3   OH247479   4.947   4.043  15.071  0.5602  0.2678  0.1718
 8663TIP3    H147480   4.879   4.104  15.041  0.9860  0.8063  0.2940
 8663TIP3    H247481   5.027   4.095  15.070  1.0004 -0.4223 -0.1497
 8664TIP3   OH247482   2.300   6.143  15.397  0.2625  0.0705 -0.2282
 8664TIP3    H147483   2.372   6.199  15.428 -0.0683  0.8611 -0.8731
 8664TIP3    H247484   2.282   6.174  15.308  0.7638 -1.7502 -0.9831
 8665TIP3   OH247485   1.935   0.971   2.671 -0.0849 -0.2645 -0.1915
 8665TIP3    H147486   1.906   0.948   2.759 -0.0259 -3.5529 -1.0007
 8665TIP3    H247487   1.856   1.005   2.628 -0.5640 -0.4777  0.5166
 8666TIP3   OH247488   6.289   2.242  11.019  0.1483  0.2366  0.4204
 8666TIP3    H147489   6.370   2.259  11.066 -0.8992  1.6333  1.7522
 8666TIP3    H247490   6.245   2.326  11.014 -1.6571 -0.6627  0.5617
 8667TIP3   OH247491   2.901   2.769   3.618 -0.0344  1.0681  0.6705
 8667TIP3    H147492   2.822   2.739   3.573 -0.1322  1.2216  0.7381
 8667TIP3    H247493   2.887   2.863   3.633 -0.2427  0.9149  1.4930
 8668TIP3   OH247494   2.056   1.243  14.600 -0.3770  0.0204  0.1734
 8668TIP3    H147495   1.998   1.319  14.602  1.2329  1.2720  1.2171
 8668TIP3    H247496   2.087   1.238  14.510 -0.6134  0.5160  0.0642
 8669TIP3   OH247497   3.466   6.232   0.461  0.2691 -0.1241  0.5201
 8669TIP3    H147498   3.484   6.176   0.536  1.3936 -0.0210  0.3395
 8669TIP3    H247499   3.504   6.317   0.485 -1.9539  0.7751  1.0618
 8670TIP3   OH247500   3.318   5.150  12.407 -0.2972  0.2205 -0.0309
 8670TIP3    H147501   3.330   5.207  12.483 -1.4018  0.4462 -0.0237
 8670TIP3    H247502   3.371   5.190  12.338 -0.9160  1.1428  0.0285
 8671TIP3   OH247503   1.750   1.824   2.959 -0.5753 -0.9318 -0.4838
 8671TIP3    H147504   1.777   1.736   2.933 -0.4979 -0.9613 -0.3026
 8671TIP3    H247505   1.654   1.821   2.958 -0.5884 -1.5793  1.4140
 8672TIP3   OH247506   0.401   3.006  15.935 -0.3943  0.0278 -0.3783
 8672TIP3    H147507   0.472   2.954  15.973 -0.8751 -0.7432 -0.5425
 8672TIP3    H247508   0.434   3.096  15.939  0.2587 -0.2323  0.2930
 8673TIP3   OH247509   0.938   6.695  15.176  0.1231  0.3514 -0.4173
 8673TIP3    H147510   0.872   6.697  15.245  0.5951  0.5441  0.0281
 8673TIP3    H247511   0.916   6.618  15.124  0.2321 -0.2414  0.4030
 8674TIP3   OH247512   6.736   1.864   1.219  0.0282 -0.3010  0.2252
 8674TIP3    H147513   6.777   1.932   1.166 -0.8720  0.3527  0.3513
 8674TIP3    H247514   6.787   1.863   1.300 -0.7368  1.1476  0.7577
 8675TIP3   OH247515   2.936   4.609   5.413 -0.0882 -0.1697 -1.2549
 8675TIP3    H147516   2.872   4.551   5.372  0.0574 -0.4165 -1.1353
 8675TIP3    H247517   3.014   4.600   5.359 -0.3217  0.5348 -1.7069
 8676TIP3   OH247518   5.065   0.614   0.488 -0.5544  0.0904 -0.3754
 8676TIP3    H147519   4.979   0.642   0.458 -0.7091 -0.7705 -0.7739
 8676TIP3    H247520   5.046   0.547   0.555 -0.2071  1.1813  0.8450
 8677TIP3   OH247521   3.256   3.550   1.815 -0.4276  0.1808  0.3696
 8677TIP3    H147522   3.347   3.540   1.842 -0.5143  0.2650  0.6986
 8677TIP3    H247523   3.222   3.460   1.813 -0.6510  0.2297  1.3699
 8678TIP3   OH247524   2.965   6.289   0.760  0.2893 -0.1244  0.2788
 8678TIP3    H147525   3.023   6.224   0.721 -0.8256 -1.5984  1.0406
 8678TIP3    H247526   3.001   6.303   0.848  2.2833  2.5406 -0.9083
 8679TIP3   OH247527   2.007   4.028   4.155 -0.4120 -0.2980 -0.6121
 8679TIP3    H147528   2.102   4.025   4.157 -0.4559 -1.1697  0.6602
 8679TIP3    H247529   1.984   4.017   4.063  0.7022 -0.3077 -0.8898
 8680TIP3   OH247530   5.946   2.848   3.310 -0.2028  0.1945  0.0409
 8680TIP3    H147531   5.952   2.819   3.401  0.1481 -1.5531 -0.5234
 8680TIP3    H247532   5.877   2.793   3.272 -0.2404  0.8075 -0.7844
 8681TIP3   OH247533   6.034   6.404   1.671 -0.0796 -0.0550  0.3818
 8681TIP3    H147534   5.982   6.480   1.646  1.0553  0.4132 -0.5944
 8681TIP3    H247535   6.033   6.405   1.767 -0.8117  0.6678  0.3684
 8682TIP3   OH247536   5.019   2.777   0.818  0.0681 -0.5570 -0.4376
 8682TIP3    H147537   5.109   2.748   0.801  0.4512  0.3300 -0.0095
 8682TIP3    H247538   4.973   2.763   0.736  0.0242 -3.0808 -0.0206
 8683TIP3   OH247539   4.580   2.156  13.361 -0.1783 -0.0934  0.0963
 8683TIP3    H147540   4.627   2.232  13.328  1.2786 -1.4958 -1.1310
 8683TIP3    H247541   4.609   2.147  13.452  0.0190  0.5204  0.0955
 8684TIP3   OH247542   3.299   0.929   2.549 -0.1097  0.4379  0.7920
 8684TIP3    H147543   3.321   0.879   2.471 -0.8524 -1.3463  1.6977
 8684TIP3    H247544   3.379   0.978   2.570 -0.2979  2.0065 -1.8185
 8685TIP3   OH247545   0.180   5.666  13.365  0.1988 -0.0802  0.0266
 8685TIP3    H147546   0.139   5.686  13.450  0.6006  0.0844  0.1841
 8685TIP3    H247547   0.106   5.655  13.305 -0.1481 -1.5230  0.6839
 8686TIP3   OH247548   4.637   2.397  11.928  0.0122  0.0415  0.1396
 8686TIP3    H147549   4.639   2.329  11.995  1.3922 -0.0635  0.0027
 8686TIP3    H247550   4.659   2.477  11.974  1.2872 -0.0850 -0.2497
 8687TIP3   OH247551   0.884   3.566  12.360 -0.6641  0.3682  0.2245
 8687TIP3    H147552   0.970   3.604  12.379 -1.3822  0.6815  3.0097
 8687TIP3    H247553   0.829   3.641  12.340 -0.0750  0.0892 -2.6147
 8688TIP3   OH247554   0.452   1.081  15.528 -0.0572 -0.3202 -0.7876
 8688TIP3    H147555   0.447   1.075  15.624  0.2102 -0.4653 -0.7828
 8688TIP3    H247556   0.373   1.129  15.503  0.5591  0.9291 -0.3760
 8689TIP3   OH247557   1.890   3.189   3.780 -0.4959 -0.0421  0.2723
 8689TIP3    H147558   1.834   3.266   3.768  0.2240  1.0433  3.3832
 8689TIP3    H247559   1.972   3.225   3.814  0.0529 -2.1224  1.2094
 8690TIP3   OH247560   1.131   4.754   2.182 -0.2569  0.7384 -0.4780
 8690TIP3    H147561   1.175   4.739   2.266 -0.0995  0.9061 -0.5312
 8690TIP3    H247562   1.195   4.800   2.129 -0.4104  0.7663 -0.6391
 8691TIP3   OH247563   3.532   6.628  11.527  0.5850  0.1007  0.7105
 8691TIP3    H147564   3.446   6.665  11.507  1.4400  1.9637  0.3632
 8691TIP3    H247565   3.520   6.534  11.516 -1.0301  0.4448 -0.8211
 8692TIP3   OH247566   6.588   5.018   1.951 -0.1173  0.1222 -0.4344
 8692TIP3    H147567   6.532   5.065   1.890 -0.5201 -0.4288 -0.4914
 8692TIP3    H247568   6.561   4.927   1.943  1.3254 -0.2533 -1.0235
 8693TIP3   OH247569   1.319   6.280   0.477  0.4161  0.6347  0.1761
 8693TIP3    H147570   1.258   6.217   0.515 -2.4213  3.2470  0.1612
 8693TIP3    H247571   1.362   6.320   0.553  0.3836  0.4609  0.2866
 8694TIP3   OH247572   3.101   6.493   0.069 -0.4883  0.4875  0.6814
 8694TIP3    H147573   3.081   6.404   0.041  0.3211  1.0206 -1.7075
 8694TIP3    H247574   3.017   6.539   0.063 -0.2321  0.7374 -1.5755
 8695TIP3   OH247575   4.180   1.424   1.777 -0.0816 -0.0227 -0.2469
 8695TIP3    H147576   4.251   1.383   1.827  0.2978  0.5088 -0.3514
 8695TIP3    H247577   4.205   1.516   1.770 -0.2977 -0.0330 -1.1462
 8696TIP3   OH247578   5.451   4.668  15.157  0.3458  0.3932  0.0038
 8696TIP3    H147579   5.534   4.657  15.110 -0.2085 -0.4141 -0.8214
 8696TIP3    H247580   5.471   4.647  15.248  0.8292 -0.8006 -0.3713
 8697TIP3   OH247581   1.122   5.788   1.037 -0.4325  0.2776 -0.1058
 8697TIP3    H147582   1.083   5.748   1.115 -1.2880  1.2705 -0.0118
 8697TIP3    H247583   1.187   5.725   1.007  1.0054  0.5637  2.3020
 8698TIP3   OH247584   5.339   3.026  16.546  0.1095 -0.5831  0.6751
 8698TIP3    H147585   5.305   3.115  16.531  1.4005  0.1566  1.9977
 8698TIP3    H247586   5.261   2.973  16.563 -0.7042  0.2240 -0.4245
 8699TIP3   OH247587   5.415   5.775  13.490 -0.0848  0.0018 -0.1979
 8699TIP3    H147588   5.358   5.853  13.491  0.1680  0.1948 -1.0307
 8699TIP3    H247589   5.503   5.810  13.477 -0.0488 -0.4793 -1.2151
 8700TIP3   OH247590   0.641   2.649   1.594 -0.1650 -0.0705 -0.1651
 8700TIP3    H147591   0.708   2.595   1.553 -0.2926  0.7331 -1.4692
 8700TIP3    H247592   0.599   2.695   1.521  0.1564  2.0276  0.9272
 8701TIP3   OH247593   2.972   5.257   0.235 -0.5577 -0.4913  0.2931
 8701TIP3    H147594   2.990   5.324   0.302  0.8001  0.3881 -0.9267
 8701TIP3    H247595   2.977   5.304   0.152  1.4278 -2.3176 -0.6582
 8702TIP3   OH247596   6.403   1.381  11.276  0.3018  0.5858  0.0011
 8702TIP3    H147597   6.418   1.410  11.366 -1.7205 -0.1506  0.5970
 8702TIP3    H247598   6.452   1.299  11.269 -0.1397  0.2645  0.6599
 8703TIP3   OH247599   3.088   2.687   3.179 -0.9770 -0.5297 -0.2238
 8703TIP3    H147600   3.102   2.774   3.142  1.1097 -1.3135 -1.2910
 8703TIP3    H247601   3.113   2.696   3.271 -1.8298  0.2563 -0.0557
 8704TIP3   OH247602   5.030   1.253   2.241 -0.3325  0.1486 -0.1876
 8704TIP3    H147603   5.062   1.216   2.323 -1.9681  2.3267  1.5041
 8704TIP3    H247604   4.981   1.182   2.200  1.3087 -1.2502  0.2653
 8705TIP3   OH247605   3.834   2.300   1.049  0.0830  0.1407 -0.2012
 8705TIP3    H147606   3.823   2.210   1.081  1.0571  0.3626  0.7755
 8705TIP3    H247607   3.928   2.310   1.039 -0.0801  0.7971 -1.0725
 8706TIP3   OH247608   3.948   3.573  10.868 -0.0591 -0.4161  0.6651
 8706TIP3    H147609   3.892   3.649  10.884 -0.7344 -0.8006  0.1704
 8706TIP3    H247610   3.914   3.536  10.786  0.4835 -1.0531  0.7280
 8707TIP3   OH247611   2.614   5.084  13.195  0.3277 -0.1872 -0.0816
 8707TIP3    H147612   2.570   5.086  13.111  2.9135  2.3433 -1.4779
 8707TIP3    H247613   2.629   4.991  13.213 -0.2144 -0.7403 -2.4237
 8708TIP3   OH247614   5.722   3.880  15.532 -0.4112  0.3004  0.1551
 8708TIP3    H147615   5.771   3.808  15.572 -1.5170 -0.6984 -0.2357
 8708TIP3    H247616   5.697   3.846  15.446 -2.8369  0.3018  0.8308
 8709TIP3   OH247617   0.906   0.412  14.518 -0.1397 -0.1183 -0.4353
 8709TIP3    H147618   0.869   0.453  14.441  0.1375  1.4174  0.2361
 8709TIP3    H247619   0.991   0.378  14.489  0.2182  0.9642 -0.6668
 8710TIP3   OH247620   2.610   0.930   4.407 -0.1019 -0.0021 -0.3212
 8710TIP3    H147621   2.669   0.986   4.356 -1.3649  0.4767 -1.2733
 8710TIP3    H247622   2.556   0.991   4.456  1.4456 -0.4629  2.0353
 8711TIP3   OH247623   1.422   3.381   1.869  0.3052 -0.4534 -0.1500
 8711TIP3    H147624   1.385   3.331   1.942 -0.1070  0.9637  0.6285
 8711TIP3    H247625   1.398   3.331   1.791 -0.2083 -1.4033  0.6063
 8712TIP3   OH247626   1.595   0.173  15.166 -0.3664 -0.0325 -0.7093
 8712TIP3    H147627   1.560   0.257  15.195 -1.8963 -0.8501 -0.1616
 8712TIP3    H247628   1.518   0.123  15.137  0.2449 -2.0422  0.9903
 8713TIP3   OH247629   5.813   2.849  15.440  0.2167 -0.5247  0.3454
 8713TIP3    H147630   5.899   2.817  15.469  0.0254 -0.5559  0.8760
 8713TIP3    H247631   5.752   2.779  15.465 -0.0947 -0.0863  0.8171
 8714TIP3   OH247632   2.675   2.921  11.967 -0.5888  0.1016  0.3117
 8714TIP3    H147633   2.749   2.946  11.911  0.1139  0.1218  1.2448
 8714TIP3    H247634   2.679   2.981  12.041 -0.9505 -0.5338  0.8519
 8715TIP3   OH247635   4.738   0.279   0.571  0.2283 -0.1487 -0.6685
 8715TIP3    H147636   4.649   0.285   0.605  0.1798 -0.7280 -0.6843
 8715TIP3    H247637   4.728   0.234   0.487  0.6992 -1.6305  0.0433
 8716TIP3   OH247638   4.664   6.501   0.133  0.1771 -0.1559  0.2138
 8716TIP3    H147639   4.743   6.461   0.170  0.5633 -1.0146 -1.5025
 8716TIP3    H247640   4.610   6.426   0.107  0.1377  0.4427 -1.4284
 8717TIP3   OH247641   1.870   0.596   4.398 -1.1974  0.2581 -0.1107
 8717TIP3    H147642   1.873   0.516   4.450  2.1915  0.8296  0.6735
 8717TIP3    H247643   1.946   0.590   4.340 -1.4769  2.4234 -0.7447
 8718TIP3   OH247644   0.043   6.019  11.671  0.0788  0.6032  0.1689
 8718TIP3    H147645  -0.012   5.941  11.683 -1.1493  1.0368 -2.3461
 8718TIP3    H247646   0.116   5.988  11.617  0.4030  0.8382  0.4756
 8719TIP3   OH247647   1.662   4.669   1.072 -0.0834 -0.2800  0.6667
 8719TIP3    H147648   1.711   4.625   1.141 -0.8889 -2.5094 -0.1348
 8719TIP3    H247649   1.728   4.690   1.006  0.4779  0.7255  1.5266
 8720TIP3   OH247650   5.364   5.225  16.179  0.7372 -0.2170 -0.1158
 8720TIP3    H147651   5.445   5.259  16.216 -0.2265  0.5350  1.3860
 8720TIP3    H247652   5.380   5.220  16.085  2.3187  0.4889  0.1097
 8721TIP3   OH247653   5.773   1.528   2.904 -0.1872  0.0687  0.6115
 8721TIP3    H147654   5.762   1.484   2.988  0.3915 -0.4559  0.4185
 8721TIP3    H247655   5.852   1.582   2.916 -1.3620  1.7037  1.1189
 8722TIP3   OH247656   5.922   5.870   4.345  0.1307 -0.3473 -0.4063
 8722TIP3    H147657   6.004   5.899   4.306  0.9503 -2.2261 -0.1467
 8722TIP3    H247658   5.854   5.909   4.290  1.1162  3.2004  0.7817
 8723TIP3   OH247659   3.895   0.340   3.949  0.1474 -0.2720  0.3273
 8723TIP3    H147660   3.870   0.370   4.036  1.6586  0.1273  0.6413
 8723TIP3    H247661   3.858   0.406   3.890 -0.5325 -0.3205  0.6946
 8724TIP3   OH247662   4.073   2.060  12.987  0.2341  0.1069 -0.3353
 8724TIP3    H147663   4.164   2.079  12.962 -0.4736  1.8657 -1.6671
 8724TIP3    H247664   4.025   2.059  12.905 -0.9550 -0.8452  0.3563
 8725TIP3   OH247665   3.672   1.970   4.794 -0.1386 -0.6142 -0.1828
 8725TIP3    H147666   3.578   1.987   4.799 -0.2670 -1.3224 -0.1615
 8725TIP3    H247667   3.710   2.025   4.863 -0.5706 -0.5785  0.0281
 8726TIP3   OH247668   0.542   4.288  16.997 -0.3635  0.9394 -0.1889
 8726TIP3    H147669   0.468   4.293  17.058 -1.6383  1.6262 -1.7542
 8726TIP3    H247670   0.520   4.214  16.940 -0.7158  2.2558 -1.7737
 8727TIP3   OH247671   4.554   6.100   2.346  0.6106 -0.3441 -0.4715
 8727TIP3    H147672   4.522   6.127   2.432 -0.3678 -1.7699 -0.3734
 8727TIP3    H247673   4.636   6.148   2.335  0.2984  0.5254  0.8706
 8728TIP3   OH247674   0.223   2.847   1.691  0.5850 -0.1793 -0.0160
 8728TIP3    H147675   0.205   2.779   1.627  1.0770  0.2554 -0.6167
 8728TIP3    H247676   0.241   2.798   1.772  1.5840 -0.7911 -0.5960
 8729TIP3   OH247677   2.869   0.935   5.163  0.3653 -0.0653 -0.1796
 8729TIP3    H147678   2.825   1.009   5.121  0.4389 -0.1778 -0.4538
 8729TIP3    H247679   2.942   0.974   5.210  0.6122 -0.0042 -0.6124
 8730TIP3   OH247680   4.303   6.428   1.321  0.4187  0.1052  0.7348
 8730TIP3    H147681   4.342   6.414   1.234  0.0393  1.7113  0.2949
 8730TIP3    H247682   4.369   6.477   1.369 -0.3597  1.3789  0.5304
 8731TIP3   OH247683   4.104   2.649   1.245  0.2402 -0.0553 -0.3479
 8731TIP3    H147684   4.111   2.616   1.155 -1.2160 -2.6284  0.4404
 8731TIP3    H247685   4.020   2.617   1.276  0.0140  2.1328  1.4408
 8732TIP3   OH247686   2.704   6.402   3.442 -0.0709 -0.2704  0.7320
 8732TIP3    H147687   2.788   6.375   3.405 -1.6320 -2.2041 -1.5472
 8732TIP3    H247688   2.675   6.326   3.492 -1.1527 -0.1705  0.2610
 8733TIP3   OH247689   2.695   1.170   0.179  0.3354 -0.0642  0.9716
 8733TIP3    H147690   2.711   1.107   0.108  1.0039  0.6981  0.4273
 8733TIP3    H247691   2.671   1.251   0.134  1.1236  0.5277  1.6037
 8734TIP3   OH247692   3.227   4.126  14.161  0.0747  0.2629 -0.3032
 8734TIP3    H147693   3.264   4.123  14.249  0.6488  1.1460 -0.5148
 8734TIP3    H247694   3.215   4.034  14.137  0.7231  0.0051  0.3536
 8735TIP3   OH247695   0.111   2.793   3.479  0.5422  0.0307 -0.0856
 8735TIP3    H147696   0.085   2.827   3.564  0.0070  1.3499 -0.7643
 8735TIP3    H247697   0.100   2.866   3.419 -1.7259 -1.6505 -1.8037
 8736TIP3   OH247698   4.506   6.009   5.082  0.6627 -0.2403  0.2239
 8736TIP3    H147699   4.516   6.016   5.177 -0.4481 -0.4821  0.3553
 8736TIP3    H247700   4.505   6.100   5.051  3.4756 -0.1781  0.1743
 8737TIP3   OH247701   5.007   2.076   1.819 -0.4633 -0.9809 -0.0463
 8737TIP3    H147702   4.960   1.998   1.789  0.1462 -0.8004 -1.5252
 8737TIP3    H247703   5.079   2.086   1.757 -0.9096  1.1276 -0.2801
 8738TIP3   OH247704   3.063   1.569   3.715  0.4063 -0.3191  0.4527
 8738TIP3    H147705   2.994   1.512   3.681 -0.2506  0.1398  1.0085
 8738TIP3    H247706   3.036   1.589   3.804 -0.9349  3.2987 -0.6845
 8739TIP3   OH247707   4.326   4.361   0.648  0.0980  0.3253 -0.0117
 8739TIP3    H147708   4.301   4.271   0.669 -1.7121  0.7937 -0.0898
 8739TIP3    H247709   4.252   4.414   0.677  0.4395  1.6308 -1.4630
 8740TIP3   OH247710   6.636   1.892   5.900 -0.1654  0.6260  1.1728
 8740TIP3    H147711   6.668   1.836   5.829 -1.0606  1.3007  0.2115
 8740TIP3    H247712   6.709   1.950   5.919  0.3299 -0.0307  1.2994
 8741TIP3   OH247713   5.467   4.755  14.526  0.5418 -0.0736  0.9175
 8741TIP3    H147714   5.493   4.683  14.583  0.2015 -0.0559  1.0941
 8741TIP3    H247715   5.386   4.789  14.565  0.0423 -0.3708  0.1561
 8742TIP3   OH247716   0.140   1.530   4.760  0.0550 -0.1247  0.3963
 8742TIP3    H147717   0.150   1.461   4.825 -1.9492 -0.9412 -0.1492
 8742TIP3    H247718   0.197   1.601   4.792  0.2394 -1.0750  2.2334
 8743TIP3   OH247719   4.539   5.483  11.397  0.6088  0.2667  1.1237
 8743TIP3    H147720   4.592   5.557  11.366 -0.1173  0.9506  1.4873
 8743TIP3    H247721   4.549   5.416  11.330  1.1254  0.7718  0.6948
 8744TIP3   OH247722   5.197   4.599  12.552  0.4916  0.0380  0.0972
 8744TIP3    H147723   5.288   4.597  12.523  0.2426  0.0982 -0.7006
 8744TIP3    H247724   5.198   4.558  12.638  1.2098 -0.3150 -0.0770
 8745TIP3   OH247725   3.311   0.834  16.547  0.2762  0.0073  0.4650
 8745TIP3    H147726   3.338   0.755  16.594  2.3195  1.3301  1.6066
 8745TIP3    H247727   3.354   0.827  16.462  0.5590 -0.0534  0.6114
 8746TIP3   OH247728   5.223   3.366   2.775  0.1890  0.2744  0.0154
 8746TIP3    H147729   5.284   3.416   2.721 -1.8807  2.3889 -0.4794
 8746TIP3    H247730   5.198   3.291   2.720  0.6407  0.6055 -0.6422
 8747TIP3   OH247731   1.812   3.988   0.254 -0.4693  0.2316 -0.1661
 8747TIP3    H147732   1.832   3.999   0.161  0.1365  1.1817  0.0740
 8747TIP3    H247733   1.896   3.969   0.295 -0.9949 -1.9729 -0.0601
 8748TIP3   OH247734   2.221   2.168  15.451  0.5007  0.1009  0.0040
 8748TIP3    H147735   2.137   2.125  15.437  1.3541 -1.7797  0.3764
 8748TIP3    H247736   2.228   2.178  15.546  0.5138  0.6278 -0.0514
 8749TIP3   OH247737   2.683   4.748   4.380  0.0680  0.0095  0.5072
 8749TIP3    H147738   2.661   4.695   4.457 -1.1132 -0.7018 -0.2981
 8749TIP3    H247739   2.615   4.726   4.316 -0.2149  2.2065  0.0098
 8750TIP3   OH247740   4.317   5.097   0.159  0.1826 -0.7506  0.0754
 8750TIP3    H147741   4.224   5.078   0.149  0.5805 -2.7929  0.0189
 8750TIP3    H247742   4.322   5.156   0.234 -1.2689  0.4763 -0.7595
 8751TIP3   OH247743   0.099   5.436  16.165  0.7114  0.0291  0.0241
 8751TIP3    H147744   0.139   5.401  16.245  0.2475  1.2353  0.8082
 8751TIP3    H247745   0.024   5.379  16.149  0.0660  0.5433  1.1799
 8752TIP3   OH247746   2.387   1.452  12.883 -0.0953 -0.4418  0.2213
 8752TIP3    H147747   2.442   1.520  12.843  0.2779 -1.2929 -0.7255
 8752TIP3    H247748   2.378   1.480  12.974 -1.1077  1.6189 -0.4710
 8753TIP3   OH247749   3.203   4.739  12.570 -0.2009 -0.2266  0.1885
 8753TIP3    H147750   3.287   4.777  12.546  0.1183 -1.5341 -0.7924
 8753TIP3    H247751   3.158   4.723  12.487 -1.5002  0.6287  0.7103
 8754TIP3   OH247752   2.933   0.253   1.951  0.1036  0.0529 -0.1673
 8754TIP3    H147753   2.925   0.185   1.884 -0.4109  0.6490 -0.7270
 8754TIP3    H247754   3.024   0.282   1.945  0.6348 -1.3812  0.8709
 8755TIP3   OH247755   3.477   1.885  12.354  0.1656  0.6206  0.0380
 8755TIP3    H147756   3.483   1.833  12.273 -0.0126  0.1673  0.3145
 8755TIP3    H247757   3.563   1.875  12.395 -0.3655 -0.7455  0.8712
 8756TIP3   OH247758   6.104   5.859   0.052 -0.2721 -0.0301  0.0840
 8756TIP3    H147759   6.075   5.914  -0.021 -1.6413 -0.6929  0.1208
 8756TIP3    H247760   6.200   5.858   0.044 -0.2605  1.8041 -0.3159
 8757TIP3   OH247761   3.818   0.794  13.686  0.4879 -0.1540  0.4322
 8757TIP3    H147762   3.854   0.858  13.747 -1.2947  0.3921  0.9280
 8757TIP3    H247763   3.745   0.753  13.733 -0.5269 -0.1490 -1.0952
 8758TIP3   OH247764   2.645   2.012   6.025  0.2235  0.1244  0.1211
 8758TIP3    H147765   2.576   2.075   6.007  1.2903  1.4339  0.5377
 8758TIP3    H247766   2.625   1.937   5.969 -1.5574  0.4577  0.2941
 8759TIP3   OH247767   3.867   6.538   5.578  0.4032  0.4128  0.9460
 8759TIP3    H147768   3.835   6.627   5.593  0.3528  0.5599  0.0149
 8759TIP3    H247769   3.792   6.482   5.597 -0.0071  0.6685  0.0839
 8760TIP3   OH247770   3.841   2.485   0.246 -0.3963  0.1551  0.6750
 8760TIP3    H147771   3.923   2.439   0.230 -0.8468 -0.3481 -0.2384
 8760TIP3    H247772   3.779   2.415   0.270 -0.9394  0.3460 -0.1503
 8761TIP3   OH247773   5.237   5.062   0.430 -0.1101  0.5808  0.3154
 8761TIP3    H147774   5.198   4.990   0.479 -0.9113  0.7252 -0.1043
 8761TIP3    H247775   5.163   5.103   0.385  0.5797  0.6535 -0.7552
 8762TIP3   OH247776   4.948   3.250  15.459  1.1355  0.1974  0.2248
 8762TIP3    H147777   4.884   3.254  15.388  1.2570  0.0041  0.1037
 8762TIP3    H247778   4.949   3.339  15.495  0.2152 -0.0009  0.7519
 8763TIP3   OH247779   5.306   1.513  14.413  0.1229  0.1863 -0.3596
 8763TIP3    H147780   5.373   1.509  14.345 -2.6145 -0.3702 -3.1876
 8763TIP3    H247781   5.226   1.537  14.366 -1.6579  0.9560  2.8869
 8764TIP3   OH247782   2.561   4.663  15.492  0.0527 -0.1590 -0.0973
 8764TIP3    H147783   2.506   4.667  15.414  2.2228  0.2731 -1.6497
 8764TIP3    H247784   2.599   4.751  15.499 -0.3247 -0.1129  1.6005
 8765TIP3   OH247785   4.294   6.080  13.930  0.0462 -0.1251 -0.4564
 8765TIP3    H147786   4.320   6.045  13.845  2.7788 -1.3355  0.8211
 8765TIP3    H247787   4.259   6.167  13.911 -0.8020 -0.9801 -2.9599
 8766TIP3   OH247788   6.293   2.353  13.277  0.3068 -0.1836 -0.0506
 8766TIP3    H147789   6.313   2.432  13.328  0.0071  0.4130 -0.8481
 8766TIP3    H247790   6.366   2.345  13.216 -0.5422  0.5029 -1.1822
 8767TIP3   OH247791   0.487   5.255   4.559  1.4833  0.1352 -0.2840
 8767TIP3    H147792   0.528   5.323   4.612  0.6406  0.0872  0.4303
 8767TIP3    H247793   0.393   5.270   4.569  1.3002  0.2832 -1.9591
 8768TIP3   OH247794   2.532   3.751   4.609  0.2440  0.5866  0.0864
 8768TIP3    H147795   2.550   3.665   4.571  0.6443  0.3287  0.8501
 8768TIP3    H247796   2.614   3.800   4.597 -0.3746  1.2590 -1.4196
 8769TIP3   OH247797   1.893   0.378  12.672 -0.3330 -0.2231  0.4771
 8769TIP3    H147798   1.837   0.329  12.612  0.9219 -0.2459 -0.7159
 8769TIP3    H247799   1.867   0.349  12.759 -0.8001 -1.7074 -0.1368
 8770TIP3   OH247800   1.392   3.031  16.467 -0.0839  0.8506  0.1809
 8770TIP3    H147801   1.343   3.032  16.384 -0.0136  1.3566  0.1454
 8770TIP3    H247802   1.481   3.007  16.442  0.1116  1.7486  0.0150
 8771TIP3   OH247803   3.694   3.985  11.603 -0.2898 -0.0361 -0.2076
 8771TIP3    H147804   3.682   4.063  11.658  1.2987  0.0808  0.0212
 8771TIP3    H247805   3.663   3.912  11.658  0.4164  0.1840  0.4972
 8772TIP3   OH247806   4.836   0.059   0.742  0.2159  0.4652  0.1881
 8772TIP3    H147807   4.890   0.051   0.664 -0.0882 -0.5945  0.0787
 8772TIP3    H247808   4.784   0.138   0.728  0.6826  0.6753 -0.3561
 8773TIP3   OH247809   5.240   4.365  14.061  0.3802  0.5169 -0.5704
 8773TIP3    H147810   5.282   4.279  14.062  0.1289  0.3976  0.9689
 8773TIP3    H247811   5.148   4.347  14.076  0.0034  0.9089 -2.3400
 8774TIP3   OH247812   4.748   5.668  16.704 -0.1069 -0.4893  0.7229
 8774TIP3    H147813   4.818   5.664  16.638 -0.7201 -0.6360  0.0788
 8774TIP3    H247814   4.690   5.738  16.674 -0.3147 -0.4626  1.1815
 8775TIP3   OH247815   3.165   5.020   0.746  0.1641  0.3042  0.2499
 8775TIP3    H147816   3.140   4.939   0.791  0.1945  0.8959  1.3563
 8775TIP3    H247817   3.192   5.079   0.816  2.5669  0.4321 -0.7367
 8776TIP3   OH247818   6.268   0.480   2.889  0.4206  0.1508 -0.1203
 8776TIP3    H147819   6.355   0.474   2.927  0.4486  0.5173 -0.1297
 8776TIP3    H247820   6.238   0.389   2.883  1.7690 -0.1822 -2.3315
 8777TIP3   OH247821   0.024   2.146   0.141 -0.3593 -0.4385  0.1606
 8777TIP3    H147822  -0.019   2.193   0.070 -1.7058 -1.5019  0.2544
 8777TIP3    H247823   0.022   2.207   0.215 -0.0042  0.2258 -0.3771
 8778TIP3   OH247824   1.469   3.023   1.899 -0.0904 -0.2074 -0.3960
 8778TIP3    H147825   1.394   2.987   1.852 -0.5542  1.3301 -0.8856
 8778TIP3    H247826   1.442   3.026   1.990 -1.1754  1.5760 -0.7375
 8779TIP3   OH247827   5.213   0.129  16.637 -0.2654 -0.2277  0.1799
 8779TIP3    H147828   5.308   0.138  16.634 -0.3814  0.9853 -0.2467
 8779TIP3    H247829   5.182   0.165  16.554 -0.9775 -2.5590 -0.6190
 8780TIP3   OH247830   1.843   3.453   0.117 -0.7086  0.0425 -0.3595
 8780TIP3    H147831   1.802   3.377   0.156  0.2105 -0.3031 -0.0492
 8780TIP3    H247832   1.930   3.422   0.090 -0.3432  0.9650 -0.2602
 8781TIP3   OH247833   2.596   4.457  13.794 -0.2363 -0.1310  0.4803
 8781TIP3    H147834   2.667   4.510  13.830  0.4625 -0.3538 -0.5193
 8781TIP3    H247835   2.620   4.446  13.702 -1.8577  0.2326  0.0064
 8782TIP3   OH247836   2.686   5.435   2.960  0.0224  0.5537  0.1395
 8782TIP3    H147837   2.753   5.487   3.005  0.1164 -0.5187  1.2686
 8782TIP3    H247838   2.603   5.471   2.991  0.0537  2.1448 -1.5621
 8783TIP3   OH247839   2.600   4.539   2.579 -0.1850  0.2003  0.3178
 8783TIP3    H147840   2.617   4.631   2.600  0.8044  0.1822 -0.3963
 8783TIP3    H247841   2.588   4.538   2.484 -1.8975 -0.1497  0.5168
 8784TIP3   OH247842   4.483   0.284   4.954 -0.0104  0.9024  0.2762
 8784TIP3    H147843   4.567   0.239   4.957  0.0670  0.9734 -0.6486
 8784TIP3    H247844   4.442   0.254   4.873 -1.4009 -0.0428  1.2931
 8785TIP3   OH247845   6.016   0.159  14.788 -0.6786  0.0715 -0.5033
 8785TIP3    H147846   6.089   0.208  14.752 -0.8734  0.1375 -0.8170
 8785TIP3    H247847   6.056   0.090  14.841 -0.3384 -0.8012 -1.8556
 8786TIP3   OH247848   0.373   3.432   0.888 -0.2329 -0.2842  0.4245
 8786TIP3    H147849   0.322   3.354   0.864 -1.1205  0.2148  0.6737
 8786TIP3    H247850   0.464   3.408   0.869 -0.7274 -0.5325 -1.7294
 8787TIP3   OH247851   4.071   0.795  13.359 -0.5506 -0.5637 -0.4841
 8787TIP3    H147852   4.044   0.869  13.413  0.4652 -0.4686 -0.1033
 8787TIP3    H247853   4.164   0.784  13.378 -0.2275 -0.6506 -2.0503
 8788TIP3   OH247854   6.332   2.154   2.503  0.1357  0.8909 -0.0413
 8788TIP3    H147855   6.331   2.246   2.478 -1.8158  1.1266  0.8135
 8788TIP3    H247856   6.256   2.116   2.458  0.4798 -0.1349  0.2191
 8789TIP3   OH247857   3.137   6.543  10.921  0.1925  0.2504 -0.6108
 8789TIP3    H147858   3.059   6.487  10.924  0.2299  0.1158 -1.8751
 8789TIP3    H247859   3.114   6.613  10.860  0.4412  1.1863  0.3527
 8790TIP3   OH247860   3.815   5.907   1.138 -0.3824  0.0115  0.6089
 8790TIP3    H147861   3.848   5.979   1.084 -0.3051 -0.1629  0.4260
 8790TIP3    H247862   3.857   5.829   1.103 -1.1713 -0.2405  0.2183
 8791TIP3   OH247863   2.727   3.569  14.304 -0.4110  0.1051  0.1100
 8791TIP3    H147864   2.661   3.499  14.304 -0.3222 -0.0033 -1.9909
 8791TIP3    H247865   2.717   3.611  14.390 -1.4576 -1.5511  0.8273
 8792TIP3   OH247866   4.975   4.329   5.855  0.2514  0.2776  0.4291
 8792TIP3    H147867   4.974   4.238   5.884  0.7301 -0.3169 -1.3299
 8792TIP3    H247868   4.896   4.368   5.893  0.1583 -0.8016  1.3681
 8793TIP3   OH247869   1.870   0.210  12.954  0.1068 -0.5856 -0.1996
 8793TIP3    H147870   1.937   0.148  12.925  0.1864 -1.5115  1.8491
 8793TIP3    H247871   1.915   0.267  13.017 -0.8371 -0.7221  0.6179
 8794TIP3   OH247872   0.892   0.508  16.691 -0.5335  0.1503  0.3848
 8794TIP3    H147873   0.942   0.513  16.772  1.7790 -0.2430 -0.9745
 8794TIP3    H247874   0.816   0.454  16.713  0.9029 -1.3230  1.8653
 8795TIP3   OH247875   6.083   4.287  12.118  0.7487 -0.5475  0.5292
 8795TIP3    H147876   6.115   4.278  12.028  1.3924  3.7053  0.2055
 8795TIP3    H247877   6.162   4.290  12.172  0.3694 -2.9702  1.2580
 8796TIP3   OH247878   2.148   6.174   3.252  0.0976 -0.2460 -0.0548
 8796TIP3    H147879   2.224   6.118   3.235  0.0890  0.4797 -2.7626
 8796TIP3    H247880   2.073   6.123   3.221 -0.0035  0.8132 -1.6452
 8797TIP3   OH247881   5.207   3.909  14.301 -0.0259 -0.2115  0.5048
 8797TIP3    H147882   5.281   3.908  14.362 -1.3085 -0.5062  2.1215
 8797TIP3    H247883   5.199   3.818  14.272  0.1103 -0.2250  0.5072
 8798TIP3   OH247884   3.692   5.507  15.830  0.2818 -0.0628 -0.3252
 8798TIP3    H147885   3.696   5.528  15.924  0.9263  0.4778 -0.4693
 8798TIP3    H247886   3.603   5.475  15.817  0.9903 -2.7659  1.0050
 8799TIP3   OH247887   6.256   2.076   6.238 -0.3923  0.4749 -0.0907
 8799TIP3    H147888   6.324   2.075   6.171 -0.5315  0.1049 -0.2283
 8799TIP3    H247889   6.207   1.995   6.224 -0.1511  0.1815  0.7252
 8800TIP3   OH247890   0.110   0.837   3.856 -0.3771  0.0077  0.3605
 8800TIP3    H147891   0.060   0.849   3.776  1.3310  1.7057 -0.4798
 8800TIP3    H247892   0.174   0.769   3.835  0.4183  0.8222  0.0775
 8801TIP3   OH247893   0.816   1.142  17.268 -0.2884 -0.5786  0.5304
 8801TIP3    H147894   0.872   1.168  17.194 -0.1760  1.4338  1.2784
 8801TIP3    H247895   0.865   1.075  17.314  0.3079 -0.7641 -0.3725
 8802TIP3   OH247896   5.733   5.968   1.116  0.3073  0.2722  0.3140
 8802TIP3    H147897   5.646   6.000   1.139 -0.0495 -0.1796 -0.3598
 8802TIP3    H247898   5.757   5.908   1.187  0.1819  0.6101  0.6374
 8803TIP3   OH247899   0.534   1.733  11.975 -0.0370 -0.3180  0.0858
 8803TIP3    H147900   0.626   1.752  11.994  0.3308 -2.1240  0.1578
 8803TIP3    H247901   0.488   1.754  12.057  0.4214 -0.2459  0.3289
 8804TIP3   OH247902   4.536   1.874   2.797 -0.2086  0.2279 -0.1251
 8804TIP3    H147903   4.551   1.958   2.840 -2.0201  1.0717 -1.1040
 8804TIP3    H247904   4.574   1.883   2.710  1.3989 -0.6852  0.4635
 8805TIP3   OH247905   1.430   4.219   5.518 -0.3274 -0.2329 -0.4822
 8805TIP3    H147906   1.366   4.171   5.467 -0.2241 -0.4155 -0.4436
 8805TIP3    H247907   1.502   4.156   5.531  0.0960  0.1445 -0.9874
 8806TIP3   OH247908   1.693   2.951   5.241 -0.1537  0.0254 -0.5865
 8806TIP3    H147909   1.754   2.882   5.217  0.1532 -0.1007  0.5335
 8806TIP3    H247910   1.648   2.972   5.160  1.6901  0.4287 -1.5394
 8807TIP3   OH247911   4.984   4.778  12.908  0.6703  0.1763  0.5356
 8807TIP3    H147912   5.058   4.813  12.858 -0.3529 -1.2466 -2.0963
 8807TIP3    H247913   4.917   4.846  12.902  1.0633  0.6232  1.2083
 8808TIP3   OH247914   0.702   5.956   3.086  0.4468 -0.6172 -0.5555
 8808TIP3    H147915   0.625   5.966   3.142  1.3836  1.4021  0.4227
 8808TIP3    H247916   0.734   5.868   3.105 -0.1981 -0.5531  0.8711
 8809TIP3   OH247917   1.519   4.936   4.040  0.2881  0.1971 -0.6331
 8809TIP3    H147918   1.458   4.912   3.971 -0.2015  0.2886 -0.2334
 8809TIP3    H247919   1.550   5.023   4.016 -0.8388  0.7502 -0.0709
 8810TIP3   OH247920   0.903   2.534   5.189 -0.2711 -0.4090 -0.6846
 8810TIP3    H147921   0.810   2.514   5.171 -0.3735  0.8000 -1.5570
 8810TIP3    H247922   0.905   2.628   5.202  0.7124 -0.5540  0.2606
 8811TIP3   OH247923   5.502   6.536  14.738 -0.3422  0.0410 -0.4279
 8811TIP3    H147924   5.569   6.514  14.802  1.7042  1.5136 -1.9725
 8811TIP3    H247925   5.422   6.546  14.789  0.8658 -0.5457  1.6394
 8812TIP3   OH247926   0.281   4.853   4.638  0.5452  0.2075 -1.1143
 8812TIP3    H147927   0.328   4.869   4.556 -1.8378 -0.7115 -2.7045
 8812TIP3    H247928   0.303   4.762   4.660 -0.6282 -0.3150 -2.0061
 8813TIP3   OH247929   0.973   2.895  13.165 -0.2722  0.1188 -0.2088
 8813TIP3    H147930   0.914   2.911  13.091 -0.7125 -0.3220  0.0418
 8813TIP3    H247931   0.917   2.902  13.242  0.6287  2.8075  0.2535
 8814TIP3   OH247932   1.200   3.767  14.347  0.1213 -0.3313 -0.2664
 8814TIP3    H147933   1.198   3.712  14.425 -0.4539 -0.2576 -0.2248
 8814TIP3    H247934   1.150   3.845  14.371  0.3983 -0.0696 -0.5313
 8815TIP3   OH247935   3.225   4.150   3.869 -0.2194 -0.5488 -0.3964
 8815TIP3    H147936   3.194   4.230   3.911  0.8519 -0.3027 -0.0455
 8815TIP3    H247937   3.261   4.097   3.940  0.9353 -0.4440 -0.8870
 8816TIP3   OH247938   3.171   1.346   3.450  0.3134  0.6233  0.1391
 8816TIP3    H147939   3.182   1.429   3.402  0.6663  1.4377  1.6144
 8816TIP3    H247940   3.076   1.336   3.457  0.2391  0.0677 -1.4562
 8817TIP3   OH247941   1.379   6.258   3.851 -0.7226 -0.0501 -0.3970
 8817TIP3    H147942   1.472   6.267   3.833 -0.3915 -0.6006  0.9676
 8817TIP3    H247943   1.358   6.169   3.822 -0.9837  0.2972 -1.3089
 8818TIP3   OH247944   5.877   4.946  17.243  0.1177  0.4994  0.7148
 8818TIP3    H147945   5.907   4.951  17.333 -0.4773  0.9237  0.8955
 8818TIP3    H247946   5.859   5.037  17.219 -3.6965  0.0578  1.5560
 8819TIP3   OH247947   3.040   5.359  17.222 -0.1208 -0.0773 -0.2355
 8819TIP3    H147948   3.135   5.365  17.208  0.2138  0.5669  2.1405
 8819TIP3    H247949   3.008   5.448  17.213 -0.1044  0.1238  1.5659
 8820TIP3   OH247950   4.835   3.007   3.904  0.4231  0.1914 -0.2383
 8820TIP3    H147951   4.835   3.000   3.808 -0.2051  0.4356 -0.2628
 8820TIP3    H247952   4.743   2.997   3.928  0.6440 -0.3678  0.3809
 8821TIP3   OH247953   2.686   4.319   5.750  0.5002  0.1975  0.4470
 8821TIP3    H147954   2.618   4.386   5.749  0.9227  0.6235 -0.3155
 8821TIP3    H247955   2.682   4.281   5.838 -0.8565  0.0748  0.3444
 8822TIP3   OH247956   5.802   1.086  16.066 -0.0198 -0.4495 -0.0065
 8822TIP3    H147957   5.878   1.029  16.059 -1.0262 -1.4776 -3.1345
 8822TIP3    H247958   5.743   1.057  15.997 -2.7567  1.1226  1.5688
 8823TIP3   OH247959   2.379   3.837   3.993  0.6629  0.2267  0.3408
 8823TIP3    H147960   2.360   3.850   3.901 -1.3258 -0.0976  0.6949
 8823TIP3    H247961   2.330   3.759   4.018  0.8869  0.5117  1.7517
 8824TIP3   OH247962   4.958   6.088   4.637 -0.0386 -0.4696 -0.4520
 8824TIP3    H147963   4.927   6.164   4.687  0.9955  0.4753 -1.2386
 8824TIP3    H247964   4.907   6.015   4.672 -0.1214  0.3607  1.2294
 8825TIP3   OH247965   4.312   3.846  10.938 -0.5534  0.0158 -0.4334
 8825TIP3    H147966   4.394   3.878  10.902 -1.2550  0.1437 -1.9414
 8825TIP3    H247967   4.244   3.894  10.891 -1.5030 -0.1631  0.7228
 8826TIP3   OH247968   3.930   0.558  13.378  0.0813  0.2310  0.3722
 8826TIP3    H147969   3.860   0.611  13.418 -0.4371 -0.5259  0.4766
 8826TIP3    H247970   3.980   0.621  13.326  0.6895  1.2164  2.1038
 8827TIP3   OH247971   5.669   3.321  15.398  0.0047 -0.2890 -0.4533
 8827TIP3    H147972   5.759   3.302  15.371 -0.4643 -0.4723 -1.9693
 8827TIP3    H247973   5.621   3.240  15.379  0.0095 -1.1089  2.8204
 8828TIP3   OH247974   4.187   3.154   1.506  0.0632  0.1534  0.6020
 8828TIP3    H147975   4.217   3.168   1.596 -0.1809  1.9908  0.4044
 8828TIP3    H247976   4.252   3.094   1.468  0.9476  0.4929  1.5647
 8829TIP3   OH247977   4.098   5.521   5.904 -0.1119  0.1402 -0.4120
 8829TIP3    H147978   4.033   5.583   5.937 -0.7305 -1.1215  0.8055
 8829TIP3    H247979   4.056   5.479   5.829  0.3704  1.2779 -1.3415
 8830TIP3   OH247980   1.828   6.342  12.481  0.6717  0.0184  1.0130
 8830TIP3    H147981   1.896   6.409  12.483  0.0419  0.6983 -0.0380
 8830TIP3    H247982   1.857   6.280  12.413 -0.1585  0.7464 -0.0137
 8831TIP3   OH247983   4.334   0.646   5.346  0.4093 -0.0858  0.0224
 8831TIP3    H147984   4.343   0.571   5.287 -1.0042 -0.4014  0.1902
 8831TIP3    H247985   4.299   0.716   5.290  0.4070  0.0367  0.1759
 8832TIP3   OH247986   6.014   6.257   0.964 -1.0055 -0.0551  0.7192
 8832TIP3    H147987   6.035   6.236   1.055  1.0188 -1.2199  0.0086
 8832TIP3    H247988   5.957   6.334   0.970  0.3234  0.8063  2.8894
 8833TIP3   OH247989   4.240   3.557   5.604 -0.0296 -0.3173  0.3593
 8833TIP3    H147990   4.208   3.622   5.542  0.2993  0.0048  0.5160
 8833TIP3    H247991   4.242   3.604   5.688  1.9794  0.0556  0.1399
 8834TIP3   OH247992   5.034   0.009  14.735 -0.1716 -0.1494 -0.2178
 8834TIP3    H147993   5.079   0.076  14.684  0.5915  0.1232  0.7979
 8834TIP3    H247994   4.967   0.056  14.784  1.1116  0.0440  1.3626
 8835TIP3   OH247995   5.545   4.398  11.742  0.3142  0.6672 -0.1347
 8835TIP3    H147996   5.600   4.363  11.813 -0.6958 -1.1757 -0.2364
 8835TIP3    H247997   5.588   4.368  11.662 -0.2178  0.1555 -0.2327
 8836TIP3   OH247998   3.849   1.801  13.207  0.3333  0.4755  0.2958
 8836TIP3    H147999   3.898   1.720  13.205  0.8587  0.7091  2.5674
 8836TIP3    H248000   3.773   1.785  13.150  0.0982 -1.8213  1.2138
 8837TIP3   OH248001   3.451   0.947  12.818 -0.7333 -0.0355  0.1762
 8837TIP3    H148002   3.359   0.962  12.795 -0.3187  1.6797 -0.3956
 8837TIP3    H248003   3.499   0.965  12.737  0.1064 -1.1072  0.4252
 8838TIP3   OH248004   1.164   3.035   3.388  0.4350  0.5625 -0.0481
 8838TIP3    H148005   1.184   3.016   3.480 -0.1937 -1.4973 -0.3088
 8838TIP3    H248006   1.070   3.047   3.386  0.5744  1.6377 -0.2587
 8839TIP3   OH248007   1.401   6.662  14.119 -0.3996  0.1898  0.0328
 8839TIP3    H148008   1.414   6.639  14.211 -0.7809  0.2245  0.0948
 8839TIP3    H248009   1.438   6.588  14.071 -2.0363 -0.7833  0.2321
 8840TIP3   OH248010   0.748   1.623   2.865  0.7105 -0.1825 -0.0337
 8840TIP3    H148011   0.723   1.531   2.852 -2.0092  0.9152 -2.9560
 8840TIP3    H248012   0.832   1.632   2.819  0.0369 -0.7335 -1.3680
 8841TIP3   OH248013   2.042   6.740  12.002 -0.4320  0.2152  0.2158
 8841TIP3    H148014   2.105   6.770  11.936 -1.2624  1.7126  0.0729
 8841TIP3    H248015   2.035   6.646  11.989 -0.3021  0.4520 -1.5966
 8842TIP3   OH248016   5.296   3.437   5.023  0.4989  0.7866  0.5165
 8842TIP3    H148017   5.208   3.414   5.052  0.2010 -0.3458 -1.2075
 8842TIP3    H248018   5.345   3.450   5.104 -0.1370 -2.9277  1.5861
 8843TIP3   OH248019   3.508   2.904   0.784 -0.3236  0.7492  0.1545
 8843TIP3    H148020   3.541   2.993   0.797 -2.6970  1.2972  3.2356
 8843TIP3    H248021   3.431   2.915   0.729 -1.2573  0.7790  1.4410
 8844TIP3   OH248022   2.059   2.647   0.946  0.2705  0.2024 -0.3215
 8844TIP3    H148023   1.993   2.688   1.001 -0.2571 -0.1859 -0.6544
 8844TIP3    H248024   2.030   2.556   0.938  1.9867 -0.4950  1.2510
 8845TIP3   OH248025   3.916   2.779  10.818  0.5339 -0.2829  1.3386
 8845TIP3    H148026   3.847   2.835  10.783  1.1473 -1.0557 -1.1523
 8845TIP3    H248027   3.900   2.694  10.779  1.1520 -1.2323  3.0969
 8846TIP3   OH248028   3.966   2.373  11.296 -0.2298 -0.3682 -0.3800
 8846TIP3    H148029   3.965   2.467  11.276  1.7306 -0.7848 -2.6552
 8846TIP3    H248030   4.051   2.358  11.337 -1.5402 -0.7579  2.3243
 8847TIP3   OH248031   0.813   2.566  13.465  0.3652 -0.3990 -0.4179
 8847TIP3    H148032   0.742   2.539  13.523  0.8434  0.9671  0.8258
 8847TIP3    H248033   0.883   2.595  13.524  1.2141  0.1224 -1.6605
 8848TIP3   OH248034   6.259   5.083  13.112 -0.0128  0.4620  0.0808
 8848TIP3    H148035   6.229   5.132  13.036 -1.2832 -0.2614  0.0925
 8848TIP3    H248036   6.212   5.122  13.186  0.7503  0.7575  0.4209
 8849TIP3   OH248037   4.871   2.458  17.131 -0.0768 -0.1024 -0.0833
 8849TIP3    H148038   4.863   2.370  17.094 -2.0520 -0.6090  1.4644
 8849TIP3    H248039   4.921   2.446  17.211  1.9387  0.6124 -1.1912
 8850TIP3   OH248040   4.380   1.359   5.594 -0.7895  0.9126 -0.0971
 8850TIP3    H148041   4.363   1.436   5.648 -2.0959 -0.9316  2.2166
 8850TIP3    H248042   4.295   1.334   5.559 -0.3871  0.5011 -0.8059
 8851TIP3   OH248043   1.283   0.124   3.443  0.0199 -0.9172 -0.4061
 8851TIP3    H148044   1.328   0.076   3.373  0.9004  1.2812 -1.3906
 8851TIP3    H248045   1.353   0.149   3.504 -0.4489 -0.9765  0.1596
 8852TIP3   OH248046   2.647   2.635  12.926  0.2422  0.2933 -0.3464
 8852TIP3    H148047   2.571   2.676  12.967  0.0510 -0.3854 -0.0125
 8852TIP3    H248048   2.683   2.703  12.869 -1.2705  0.2631 -1.3710
 8853TIP3   OH248049   6.645   5.401  14.096  0.3387 -0.1143  0.6321
 8853TIP3    H148050   6.559   5.435  14.118  0.6922 -0.4902  2.7669
 8853TIP3    H248051   6.662   5.432  14.007 -1.7662  0.3773  0.3830
 8854TIP3   OH248052   4.710   3.613  12.354 -0.0590  0.0539 -0.0096
 8854TIP3    H148053   4.640   3.635  12.416 -1.1383 -0.0171 -1.1970
 8854TIP3    H248054   4.756   3.695  12.339 -0.4012  0.2686  0.1192
 8855TIP3   OH248055   4.406   5.025   3.975  0.0128 -0.4274 -0.1756
 8855TIP3    H148056   4.425   4.981   4.058 -0.2185 -0.5027 -0.1611
 8855TIP3    H248057   4.483   5.080   3.958 -0.3731  0.3465  0.5786
 8856TIP3   OH248058   0.891   0.921   2.679  0.0711  0.0082 -0.6224
 8856TIP3    H148059   0.867   1.000   2.727  1.8051  1.2985 -1.8011
 8856TIP3    H248060   0.987   0.919   2.682  0.0302 -2.4081 -0.0561
 8857TIP3   OH248061   3.795   1.920   2.889  0.2836  0.2750  0.4644
 8857TIP3    H148062   3.793   2.006   2.847 -0.2670 -0.3933 -0.9212
 8857TIP3    H248063   3.883   1.887   2.871 -0.5884 -0.8377 -1.9244
 8858TIP3   OH248064   3.364   4.333   4.794 -0.5737 -0.8022 -0.4648
 8858TIP3    H148065   3.378   4.306   4.704 -0.7611 -0.6454 -0.5400
 8858TIP3    H248066   3.269   4.325   4.807 -0.4941 -1.2876 -0.1382
 8859TIP3   OH248067   2.008   4.930  12.970  0.0978  0.6284  0.4186
 8859TIP3    H148068   2.049   4.931  12.883 -0.8066  1.7547 -0.0009
 8859TIP3    H248069   1.921   4.893  12.955 -0.4329  1.7550  0.6593
 8860TIP3   OH248070   0.719   5.949   2.512  0.1580  0.0533  0.0267
 8860TIP3    H148071   0.669   5.987   2.585  0.4246  0.7394 -0.1428
 8860TIP3    H248072   0.697   5.856   2.514 -0.3018  0.1689  0.6143
 8861TIP3   OH248073   3.406   4.249   5.064  0.1671  0.2687 -0.1719
 8861TIP3    H148074   3.381   4.261   4.973  0.0416 -1.1928 -0.3428
 8861TIP3    H248075   3.487   4.197   5.060  0.0920  0.0838  0.5402
 8862TIP3   OH248076   0.363   6.570  16.274  0.4776 -0.0258 -0.3283
 8862TIP3    H148077   0.327   6.634  16.335 -0.1974  0.0807 -0.8342
 8862TIP3    H248078   0.303   6.571  16.200 -0.7013 -2.7080  0.5153
 8863TIP3   OH248079   1.727   1.179  17.068 -0.1009 -0.4449 -0.2590
 8863TIP3    H148080   1.752   1.115  17.001  0.2530 -0.2427 -0.3191
 8863TIP3    H248081   1.729   1.263  17.022 -1.7297 -0.5051 -0.4878
 8864TIP3   OH248082   4.961   2.862  13.553  0.2183  0.0628 -0.1872
 8864TIP3    H148083   4.988   2.910  13.631 -0.4136 -0.7478  0.5410
 8864TIP3    H248084   4.997   2.775  13.564 -1.6007 -0.6663  0.2004
 8865TIP3   OH248085   1.076   0.795   5.472  0.9308 -0.3941  0.2247
 8865TIP3    H148086   1.109   0.711   5.439 -1.0921 -1.0322 -0.2921
 8865TIP3    H248087   0.990   0.773   5.510 -0.3175  1.6951 -1.3155
 8866TIP3   OH248088   6.041   2.429  12.829 -0.7594  0.2072  0.0422
 8866TIP3    H148089   5.982   2.502  12.811 -0.4196  0.1939 -1.2252
 8866TIP3    H248090   6.118   2.469  12.867 -1.0537  0.3767  0.4569
 8867TIP3   OH248091   2.039   2.698  14.295  0.5000  0.3511 -0.3913
 8867TIP3    H148092   1.954   2.719  14.335  1.7553  2.6596  1.1905
 8867TIP3    H248093   2.032   2.606  14.271 -2.7318  0.7038 -0.9977
 8868TIP3   OH248094   4.304   2.075  11.960  0.0283 -0.2234  0.6903
 8868TIP3    H148095   4.265   2.040  12.041 -0.5986  1.6214  1.2108
 8868TIP3    H248096   4.397   2.055  11.968 -0.0553 -0.2241  1.7861
 8869TIP3   OH248097   5.289   0.376   5.067 -0.2172 -0.2546  0.1630
 8869TIP3    H148098   5.358   0.437   5.093  1.1002 -1.1798 -1.0611
 8869TIP3    H248099   5.314   0.293   5.108 -0.1515 -0.7953 -0.9502
 8870TIP3   OH248100   1.194   5.390   3.257  0.0706  0.2284  0.0361
 8870TIP3    H148101   1.221   5.405   3.167  0.1586  0.1297  0.0459
 8870TIP3    H248102   1.237   5.460   3.307  0.1404  0.1944  0.0227
 8871TIP3   OH248103   4.215   6.151  16.819  0.2223  0.8471 -0.1144
 8871TIP3    H148104   4.129   6.173  16.856 -0.0000 -1.3886  0.8065
 8871TIP3    H248105   4.197   6.126  16.729 -0.2177 -0.3367  0.2957
 8872TIP3   OH248106   4.550   0.588   2.709 -0.4926 -0.5131 -0.2172
 8872TIP3    H148107   4.618   0.543   2.760 -0.2314 -0.6162 -0.6585
 8872TIP3    H248108   4.493   0.517   2.679 -2.0634 -0.2570  1.9901
 8873TIP3   OH248109   2.638   4.058   0.824 -0.3294 -0.0973 -0.2672
 8873TIP3    H148110   2.577   4.093   0.759 -0.0584 -0.2094 -0.5855
 8873TIP3    H248111   2.674   4.134   0.868 -2.5028 -0.0925  1.6005
 8874TIP3   OH248112   6.317   0.065  16.960 -0.1460 -0.2017  0.4556
 8874TIP3    H148113   6.410   0.062  16.938  0.1197  0.0268  1.4944
 8874TIP3    H248114   6.296   0.159  16.961 -0.3956 -0.2549  0.1951
 8875TIP3   OH248115   4.443   5.914  12.335  0.6949  0.4251  0.2331
 8875TIP3    H148116   4.381   5.858  12.289 -0.1423  0.2878  1.4975
 8875TIP3    H248117   4.471   5.861  12.410  0.2201  1.5436  1.2114
 8876TIP3   OH248118   3.390   1.184  13.090 -0.0557  0.3903  0.7109
 8876TIP3    H148119   3.326   1.240  13.135 -2.4694 -2.6125  1.2167
 8876TIP3    H248120   3.437   1.141  13.161  2.3115  2.2994  0.3312
 8877TIP3   OH248121   5.322   0.380  13.675  0.3319 -0.0961 -0.1082
 8877TIP3    H148122   5.291   0.471  13.681  1.7254  0.2984  1.4010
 8877TIP3    H248123   5.326   0.350  13.766  1.9320 -0.9633 -0.4456
 8878TIP3   OH248124   4.055   5.090  10.520  0.5128 -0.1560 -0.2648
 8878TIP3    H148125   3.963   5.102  10.496  0.1511 -1.3111  0.5237
 8878TIP3    H248126   4.065   4.996  10.533  1.5749  0.0669  0.6058
 8879TIP3   OH248127   3.891   3.507   2.491 -0.0970  0.1806 -0.1947
 8879TIP3    H148128   3.807   3.537   2.457 -0.6087 -1.8046 -0.7910
 8879TIP3    H248129   3.955   3.538   2.428 -0.4780  0.9326 -0.2192
 8880TIP3   OH248130   5.447   5.872   5.439  0.3674 -0.3093 -0.1380
 8880TIP3    H148131   5.433   5.958   5.399  0.6207 -0.1183  0.1831
 8880TIP3    H248132   5.504   5.826   5.376 -0.4974 -0.5680 -0.7394
 8881TIP3   OH248133   4.144   6.523   4.817 -0.4630 -0.0248  0.4308
 8881TIP3    H148134   4.064   6.563   4.782  0.0236  0.8199  0.2773
 8881TIP3    H248135   4.159   6.447   4.761  0.0565  1.0618 -0.9258
 8882TIP3   OH248136   6.514   4.757   4.231 -0.2744  0.5862  0.2104
 8882TIP3    H148137   6.542   4.682   4.284 -0.0050  0.6023  0.0929
 8882TIP3    H248138   6.584   4.821   4.241 -0.3678  0.7095  0.0790
 8883TIP3   OH248139   0.517   3.046   6.872  0.3785  0.4110  0.1027
 8883TIP3    H148140   0.499   2.979   6.806  1.5951  0.0348  0.1386
 8883TIP3    H248141   0.555   3.118   6.822  1.6225 -0.0096  0.4245
 8884TIP3   OH248142   4.700   0.214  16.530  0.1835 -0.5461 -0.0267
 8884TIP3    H148143   4.705   0.302  16.493 -0.3171 -0.8953 -0.9291
 8884TIP3    H248144   4.758   0.161  16.476 -0.7884 -1.1260 -0.5146
 8885TIP3   OH248145   4.994   4.671   2.483  0.1371  0.1044 -0.3149
 8885TIP3    H148146   5.004   4.764   2.462 -0.9831  0.1787 -0.5631
 8885TIP3    H248147   4.965   4.669   2.574 -0.4571  0.0377 -0.4997
 8886TIP3   OH248148   4.456   6.191  10.632 -0.1759 -0.6998  0.4037
 8886TIP3    H148149   4.386   6.248  10.601  1.3534  0.0760 -1.8362
 8886TIP3    H248150   4.413   6.129  10.690 -3.2757 -2.0734 -3.1329
 8887TIP3   OH248151   4.896   4.224  11.343  0.6069  0.3461  0.2200
 8887TIP3    H148152   4.919   4.138  11.309  0.0220 -0.0705  0.8693
 8887TIP3    H248153   4.969   4.280  11.317  0.7341 -0.2228 -0.6784
 8888TIP3   OH248154   4.826   6.540  10.833 -0.1781  0.1558 -0.3515
 8888TIP3    H148155   4.893   6.591  10.787  0.6699 -1.1252 -0.5381
 8888TIP3    H248156   4.866   6.454  10.846 -1.6077 -0.4594 -0.0236
 8889TIP3   OH248157   6.027   0.780  16.524  0.3317 -0.8591 -0.3252
 8889TIP3    H148158   6.025   0.684  16.530  1.5043 -0.9388 -1.0230
 8889TIP3    H248159   5.972   0.801  16.449  0.4784 -1.0149 -0.4752
 8890TIP3   OH248160   0.133   6.429  14.640 -0.0266  0.5543 -0.2688
 8890TIP3    H148161   0.175   6.465  14.718 -0.2507 -0.7597  0.4874
 8890TIP3    H248162   0.127   6.335  14.658 -1.6589  0.4692 -1.1308
 8891TIP3   OH248163   0.086   3.415  12.114 -0.4773  0.1473 -0.3482
 8891TIP3    H148164   0.158   3.377  12.062 -0.4958 -0.9459  0.4189
 8891TIP3    H248165   0.103   3.386  12.203 -0.8555  1.4339  0.1578
 8892TIP3   OH248166   0.851   0.995  14.928 -0.0433  0.0523  0.5554
 8892TIP3    H148167   0.771   0.958  14.890  1.2281 -3.0856  0.7337
 8892TIP3    H248168   0.826   1.017  15.018 -1.1489  0.6989  0.0985
 8893TIP3   OH248169   6.170   6.760  14.924  0.1119 -0.3570  0.7751
 8893TIP3    H148170   6.210   6.689  14.874  0.3692 -0.4605  1.1271
 8893TIP3    H248171   6.111   6.717  14.986 -0.1702 -0.2321  0.5951
 8894TIP3   OH248172   0.549   0.721  12.278 -0.4704  0.8544  0.3042
 8894TIP3    H148173   0.641   0.746  12.271 -0.0080 -0.5498  1.1252
 8894TIP3    H248174   0.501   0.803  12.276  0.7990  1.5850 -0.2756
 8895TIP3   OH248175   3.468   1.704  16.523 -0.2869  0.9104  0.0395
 8895TIP3    H148176   3.562   1.724  16.521  0.1503 -1.0514 -0.6563
 8895TIP3    H248177   3.448   1.692  16.615  1.2175 -3.1483 -0.0342
 8896TIP3   OH248178   1.466   4.067  10.689  0.1664  0.1324  0.4954
 8896TIP3    H148179   1.426   3.988  10.725  0.8698 -0.1356  0.6918
 8896TIP3    H248180   1.398   4.103  10.631  0.0975 -1.0040 -0.1581
 8897TIP3   OH248181   2.851   6.134   1.632  0.1622  0.5845  0.0854
 8897TIP3    H148182   2.795   6.188   1.576 -1.4913 -0.6605  0.4769
 8897TIP3    H248183   2.918   6.100   1.574 -0.8655  0.2263 -0.9093
 8898TIP3   OH248184   4.392   6.744  17.275  0.1375 -0.1160 -0.1097
 8898TIP3    H148185   4.375   6.662  17.322  1.0264 -0.6169 -0.6461
 8898TIP3    H248186   4.411   6.807  17.344  0.9176 -0.7224  0.2433
 8899TIP3   OH248187   4.281   4.842  11.112  0.8501  0.3366 -0.5189
 8899TIP3    H148188   4.360   4.879  11.151  2.0263 -2.1349 -0.5211
 8899TIP3    H248189   4.305   4.821  11.022  0.2422 -0.5261 -0.4876
 8900TIP3   OH248190   5.211   1.391  15.170  0.1415  0.2227 -0.4792
 8900TIP3    H148191   5.118   1.409  15.153 -0.5332 -0.2613  2.5256
 8900TIP3    H248192   5.237   1.455  15.235  0.7808 -2.2261  1.7714
 8901TIP3   OH248193   0.876   3.416  14.998  0.4533 -0.2139 -0.3480
 8901TIP3    H148194   0.803   3.359  15.023  0.3235  0.3661  0.6439
 8901TIP3    H248195   0.835   3.489  14.953  0.3207  0.5504  0.9868
 8902TIP3   OH248196   3.018   4.172  13.998 -0.0307 -0.5415  0.5929
 8902TIP3    H148197   2.946   4.182  14.060 -0.3764  0.9334  0.0023
 8902TIP3    H248198   3.097   4.183  14.050 -0.2925 -0.2744  0.9341
 8903TIP3   OH248199   0.357   0.849  17.135  0.2762  0.1852 -0.4351
 8903TIP3    H148200   0.268   0.840  17.100 -0.4957 -1.4675  1.8294
 8903TIP3    H248201   0.393   0.760  17.130  1.4652  0.6607 -0.4421
 8904TIP3   OH248202   2.277   1.079   5.524  0.3036 -0.1858  0.2011
 8904TIP3    H148203   2.370   1.101   5.517  0.0991  0.5712 -0.1535
 8904TIP3    H248204   2.256   1.036   5.440  0.3311 -0.3659  0.2855
 8905TIP3   OH248205   1.451   0.965   5.398  0.1728 -0.1449  0.4050
 8905TIP3    H148206   1.411   0.982   5.483 -0.3200  1.6284 -0.1573
 8905TIP3    H248207   1.405   1.023   5.337  0.2084 -1.7229 -1.1667
 8906TIP3   OH248208   4.083   2.031  14.492  0.1495 -0.1093 -0.2412
 8906TIP3    H148209   4.131   1.999  14.568  0.4167  1.2847  0.1750
 8906TIP3    H248210   3.994   1.998  14.505  0.5884 -1.2925 -0.1855
 8907TIP3   OH248211   3.401   1.062   5.015  0.3668  0.4157 -0.4352
 8907TIP3    H148212   3.329   1.125   5.017 -1.1825 -1.3241  1.3179
 8907TIP3    H248213   3.441   1.069   5.102  0.2868 -0.8693 -0.2805
 8908TIP3   OH248214   1.388   0.740  11.537  0.0483 -0.0101 -0.4332
 8908TIP3    H148215   1.404   0.823  11.582 -0.9915  0.1774 -0.4069
 8908TIP3    H248216   1.414   0.673  11.601 -1.9251  0.2430  0.6868
 8909TIP3   OH248217   5.020   5.116   1.061  0.4154  0.2550  0.0747
 8909TIP3    H148218   4.977   5.182   1.006  0.1028 -1.4653 -1.7966
 8909TIP3    H248219   4.954   5.047   1.071  1.0225 -0.1486  1.3535
 8910TIP3   OH248220   5.945   0.502  11.896 -0.1091  0.3488 -0.3315
 8910TIP3    H148221   5.889   0.444  11.845 -0.3797  0.8965 -0.6584
 8910TIP3    H248222   5.995   0.443  11.954 -1.8651 -0.0692  0.7966
 8911TIP3   OH248223   3.432   6.620  13.702 -0.2266  0.1884 -0.3275
 8911TIP3    H148224   3.517   6.612  13.659  0.5744  1.5119  0.9547
 8911TIP3    H248225   3.408   6.712  13.691 -1.1594 -0.0159 -0.0456
 8912TIP3   OH248226   2.399   2.006   0.690 -0.0470 -0.8796 -0.0637
 8912TIP3    H148227   2.453   1.972   0.619 -0.4242 -1.1873 -0.2067
 8912TIP3    H248228   2.311   2.012   0.652 -0.5115 -2.2324  0.7558
 8913TIP3   OH248229   0.893   2.941  12.897 -0.1496  0.5637  0.0872
 8913TIP3    H148230   0.884   3.010  12.832 -3.9880 -1.4822 -1.6675
 8913TIP3    H248231   0.988   2.928  12.905  0.5596  4.2683 -1.3377
 8914TIP3   OH248232   3.401   5.859  16.297  0.1371  0.1879 -0.3973
 8914TIP3    H148233   3.435   5.776  16.261  1.1150  0.7838 -0.8636
 8914TIP3    H248234   3.306   5.846  16.300  0.4611 -2.0309  2.2474
 8915TIP3   OH248235   0.392   2.830  12.942 -0.6484 -0.5955  0.4510
 8915TIP3    H148236   0.472   2.819  12.890 -0.2295  0.7221  0.7982
 8915TIP3    H248237   0.387   2.750  12.995 -0.2893 -1.2956 -0.5482
 8916TIP3   OH248238   2.389   1.384   0.640 -0.0647 -0.3395 -0.8736
 8916TIP3    H148239   2.390   1.310   0.701 -0.4508  0.7052  0.4226
 8916TIP3    H248240   2.345   1.454   0.688  1.6525  1.2189 -1.4883
 8917TIP3   OH248241   2.624   6.718   6.519 -0.4174 -0.6634  0.4399
 8917TIP3    H148242   2.530   6.705   6.535 -0.0216 -1.3782  2.2787
 8917TIP3    H248243   2.641   6.806   6.555  0.3423 -2.0187  3.5894
 8918TIP3   OH248244   5.119   0.818   5.117 -0.3565 -0.2071 -0.1343
 8918TIP3    H148245   5.202   0.792   5.077  0.4355  0.7872  0.8257
 8918TIP3    H248246   5.060   0.831   5.043  0.8079  0.6723 -0.9238
 8919TIP3   OH248247   6.180   0.387   1.105 -0.4494  0.0482 -0.0767
 8919TIP3    H148248   6.157   0.400   1.197  0.1157  0.5021  0.0041
 8919TIP3    H248249   6.102   0.347   1.066  0.5044 -3.4202  1.3460
 8920TIP3   OH248250   1.376   6.560  13.432 -0.4019 -0.5246  0.2573
 8920TIP3    H148251   1.441   6.601  13.489 -1.3211  1.2185  0.0703
 8920TIP3    H248252   1.424   6.492  13.385  1.4265  1.1248 -0.3113
 8921TIP3   OH248253   3.329   4.137  13.175 -0.2723  0.5553  0.7538
 8921TIP3    H148254   3.399   4.107  13.233 -1.0632  0.6314  1.7664
 8921TIP3    H248255   3.317   4.229  13.197 -0.7234  0.5280  0.6342
 8922TIP3   OH248256   1.416   1.064   1.166 -0.3990 -0.0302  0.4022
 8922TIP3    H148257   1.369   1.099   1.090 -0.7616 -1.7599 -0.1794
 8922TIP3    H248258   1.440   0.975   1.142  1.6508  0.2173  1.3857
 8923TIP3   OH248259   0.314   0.658   1.497 -0.2164  0.0357 -0.0294
 8923TIP3    H148260   0.304   0.750   1.470  0.2742 -0.3707 -1.6515
 8923TIP3    H248261   0.351   0.663   1.585 -3.8924  1.4329  1.5296
 8924TIP3   OH248262   3.021   4.157  13.104 -0.0208 -0.5198 -0.2178
 8924TIP3    H148263   3.080   4.084  13.121 -0.8786 -1.7100 -2.2534
 8924TIP3    H248264   2.996   4.188  13.191  4.7420  0.9984  0.7089
 8925TIP3   OH248265   1.842   1.203   4.619  0.1626  0.1405 -0.3095
 8925TIP3    H148266   1.889   1.273   4.665 -1.0230 -0.4173  1.8170
 8925TIP3    H248267   1.898   1.182   4.544  1.0905  2.5815 -0.3670
 8926TIP3   OH248268   3.847   0.942  16.800 -0.6446  0.1279  0.1520
 8926TIP3    H148269   3.848   0.933  16.705 -3.7061  0.4062  0.0614
 8926TIP3    H248270   3.857   0.852  16.832 -0.1507 -0.0267 -0.4186
 8927TIP3   OH248271   5.206   6.419   4.248 -0.5252  0.7537 -0.4654
 8927TIP3    H148272   5.163   6.339   4.275 -2.1033  1.4466 -0.8837
 8927TIP3    H248273   5.198   6.421   4.152  2.4854 -0.2441 -0.8078
 8928TIP3   OH248274   1.233   3.250  14.623  0.1449  0.1004 -0.4560
 8928TIP3    H148275   1.160   3.190  14.614  1.6557 -1.9119  0.4109
 8928TIP3    H248276   1.300   3.217  14.563  1.7156 -0.2397  1.4366
 8929TIP3   OH248277   6.561   2.650  12.107  0.0596 -0.0957  0.0305
 8929TIP3    H148278   6.472   2.684  12.118  0.1115  0.3590 -0.9621
 8929TIP3    H248279   6.550   2.555  12.104 -0.1339 -0.1876  2.3083
 8930TIP3   OH248280   6.664   4.329   4.170 -0.1931  0.1652 -0.0733
 8930TIP3    H148281   6.696   4.270   4.238  0.2895  1.0425  0.4688
 8930TIP3    H248282   6.614   4.273   4.111 -0.8568 -0.5443  1.1610
 8931TIP3   OH248283   0.397   3.372  16.906  0.2244 -0.5509 -0.0823
 8931TIP3    H148284   0.458   3.300  16.924 -0.0018 -0.2778  1.9894
 8931TIP3    H248285   0.312   3.330  16.895  0.3846 -0.7465 -0.5485
 8932TIP3   OH248286   0.230   0.608   6.455  0.1346 -0.1530 -0.1383
 8932TIP3    H148287   0.276   0.530   6.487  1.3818  1.1201  1.2490
 8932TIP3    H248288   0.292   0.648   6.394  0.1153  0.5915  0.3325
 8933TIP3   OH248289   2.599   3.905   2.089  0.4543 -0.3122 -0.1485
 8933TIP3    H148290   2.522   3.880   2.141 -0.4028  3.6961  0.6974
 8933TIP3    H248291   2.672   3.859   2.131 -0.8991 -0.8198  1.7160
 8934TIP3   OH248292   6.659   4.617   5.266 -0.3469  0.5590  0.0215
 8934TIP3    H148293   6.565   4.604   5.276 -0.1952 -2.3905 -1.6995
 8934TIP3    H248294   6.697   4.573   5.341 -0.2527 -0.7429 -0.7686
 8935TIP3   OH248295   3.227   6.195  14.636 -0.3360  0.1572 -0.5049
 8935TIP3    H148296   3.138   6.159  14.642 -0.0028 -0.4052  1.4874
 8935TIP3    H248297   3.234   6.253  14.713  0.8980  0.4668 -0.8408
 8936TIP3   OH248298   5.932   1.398  13.967 -0.4201 -0.1665  0.0152
 8936TIP3    H148299   5.965   1.484  13.993 -0.6163  0.3135 -1.3324
 8936TIP3    H248300   5.986   1.372  13.893 -1.2745 -0.5987 -0.4613
 8937TIP3   OH248301   2.190   6.094  13.898 -0.0889 -0.3411  0.4848
 8937TIP3    H148302   2.189   6.052  13.812 -0.6388 -1.6672  1.1191
 8937TIP3    H248303   2.124   6.164  13.891  0.4389  0.0810 -0.4048
 8938TIP3   OH248304   2.560   0.968  15.872  0.0642  0.1114  0.2211
 8938TIP3    H148305   2.535   0.906  15.803  0.3624 -0.1899  0.3862
 8938TIP3    H248306   2.491   0.961  15.937 -0.1355  0.2806  0.0316
 8939TIP3   OH248307   0.008   1.095  15.127 -0.0421 -0.6505  0.6880
 8939TIP3    H148308   0.032   1.012  15.169 -0.5115 -0.0427  2.1735
 8939TIP3    H248309  -0.048   1.069  15.053 -1.0732 -1.5983  1.7910
 8940TIP3   OH248310   4.500   1.387  16.376 -0.2354  0.1672  0.7792
 8940TIP3    H148311   4.408   1.412  16.372  0.0396  1.2982  1.1610
 8940TIP3    H248312   4.531   1.421  16.460  1.1825  2.2078 -0.5106
 8941TIP3   OH248313   6.425   1.652  15.710 -0.1474 -0.4589  0.2533
 8941TIP3    H148314   6.384   1.633  15.626  1.4579 -0.1647 -0.6290
 8941TIP3    H248315   6.515   1.678  15.687  0.0868  0.3438  2.0027
 8942TIP3   OH248316   2.569   3.286   1.351 -0.8188  0.2009 -0.3802
 8942TIP3    H148317   2.615   3.279   1.268 -2.0502  1.1295 -1.1459
 8942TIP3    H248318   2.507   3.213   1.351 -1.0521  0.3973 -0.4300
 8943TIP3   OH248319   6.742   6.147   3.591 -0.3486 -0.2697  0.6896
 8943TIP3    H148320   6.782   6.132   3.676 -0.0880 -2.2427  0.2477
 8943TIP3    H248321   6.649   6.159   3.610 -0.4494 -1.7386  1.1650
 8944TIP3   OH248322   4.978   0.089   4.587 -0.1688 -0.0285 -0.3474
 8944TIP3    H148323   5.065   0.058   4.610  0.9262  1.2831 -2.4711
 8944TIP3    H248324   4.994   0.173   4.543 -2.3192 -0.8358 -2.7742
 8945TIP3   OH248325   3.444   5.839  15.181 -0.4348  0.1960 -0.1146
 8945TIP3    H148326   3.370   5.828  15.241  0.9811  0.3268  1.6925
 8945TIP3    H248327   3.417   5.911  15.124 -1.5402  0.5333  0.8037
 8946TIP3   OH248328   6.022   2.130  15.898 -0.2545  0.9362  0.2569
 8946TIP3    H148329   5.995   2.038  15.893 -1.4401  1.3072 -0.1872
 8946TIP3    H248330   6.079   2.142  15.822 -1.3847  0.9926 -0.5826
 8947TIP3   OH248331   1.000   0.054   4.525 -0.3468 -0.5597  0.0039
 8947TIP3    H148332   1.012   0.063   4.430  1.6093 -0.6185  0.2208
 8947TIP3    H248333   1.040  -0.030   4.546 -0.1780 -0.2362  0.9820
 8948TIP3   OH248334   1.785   3.161  17.191  0.3122  0.2564  0.2388
 8948TIP3    H148335   1.766   3.155  17.098  1.7740 -0.1393 -0.0516
 8948TIP3    H248336   1.727   3.096  17.232  0.8837 -0.7970 -0.5901
 8949TIP3   OH248337   6.431   3.050  15.250  0.0567  0.1490 -0.5039
 8949TIP3    H148338   6.503   2.992  15.276  0.7069  0.8385 -0.7581
 8949TIP3    H248339   6.420   3.033  15.157 -0.1221  0.0322 -0.4606
 8950TIP3   OH248340   5.389   1.885  12.032 -0.0372  0.0422 -0.0301
 8950TIP3    H148341   5.398   1.792  12.014 -1.0271  0.1165 -1.0485
 8950TIP3    H248342   5.369   1.924  11.946 -0.5031  1.0573  0.5226
 8951TIP3   OH248343   6.062   6.580  15.335  0.1787 -0.6799 -0.1563
 8951TIP3    H148344   6.155   6.605  15.343  0.1274 -0.8424  1.1391
 8951TIP3    H248345   6.030   6.583  15.425 -1.4138  0.6814 -0.7493
 8952TIP3   OH248346   3.783   2.849   0.121  0.0644  0.3680 -0.0702
 8952TIP3    H148347   3.821   2.906   0.055 -0.0183 -0.4510 -0.8254
 8952TIP3    H248348   3.754   2.772   0.073 -2.7123  1.0365  0.4387
 8953TIP3   OH248349   2.676   2.006  11.545 -0.5556  0.1409 -0.1364
 8953TIP3    H148350   2.763   2.009  11.584 -0.3908  0.6278 -0.5345
 8953TIP3    H248351   2.669   1.918  11.508 -0.3182  0.0311  0.0771
 8954TIP3   OH248352   2.554   2.090   2.311  0.3864 -0.2533  0.3023
 8954TIP3    H148353   2.581   2.029   2.380  0.3259  1.6176  1.9857
 8954TIP3    H248354   2.595   2.173   2.334 -1.4842  0.9735 -0.6774
 8955TIP3   OH248355   3.540   3.930  15.406  0.1175  0.1319 -0.2007
 8955TIP3    H148356   3.598   3.881  15.348  0.9954  0.6393  0.2344
 8955TIP3    H248357   3.454   3.925  15.364  0.2312 -1.5903 -0.2751
 8956TIP3   OH248358   1.049   1.455   2.031 -0.2222  0.4291 -0.2031
 8956TIP3    H148359   1.088   1.465   1.944 -0.6163 -0.4264 -0.4822
 8956TIP3    H248360   1.026   1.363   2.037 -0.7349  0.5986  0.5826
 8957TIP3   OH248361   1.565   4.448   5.625 -0.0787  0.0308  0.7966
 8957TIP3    H148362   1.494   4.398   5.585  0.2681 -0.0938  0.3381
 8957TIP3    H248363   1.572   4.528   5.572 -0.6426  0.5816  1.5357
 8958TIP3   OH248364   4.272   2.827  11.794 -0.4041  0.0674  0.0803
 8958TIP3    H148365   4.278   2.763  11.866  1.3668  0.3738  0.2224
 8958TIP3    H248366   4.358   2.825  11.753 -0.8516  1.2036 -0.9279
 8959TIP3   OH248367   2.328   4.508   5.197 -0.1134  0.0447  0.0859
 8959TIP3    H148368   2.390   4.485   5.267  0.6245  1.5152 -0.0601
 8959TIP3    H248369   2.376   4.491   5.116 -0.3037  0.1084 -0.0400
 8960TIP3   OH248370   4.097   4.420   4.958  0.5640 -0.3122  0.3049
 8960TIP3    H148371   4.122   4.340   5.005 -0.3055 -1.2029 -0.7193
 8960TIP3    H248372   4.168   4.433   4.895  0.1364 -0.9406 -0.3149
 8961TIP3   OH248373   6.737   0.056   0.441  1.0082 -0.3788 -0.4865
 8961TIP3    H148374   6.697  -0.028   0.418 -2.0486  0.8817 -0.0901
 8961TIP3    H248375   6.807   0.034   0.502 -0.2153 -2.5946  0.1622
 8962TIP3   OH248376   4.053   6.757  13.715 -0.0635  0.3431 -0.5822
 8962TIP3    H148377   3.991   6.715  13.775  0.7525  1.0894  0.7945
 8962TIP3    H248378   4.044   6.851  13.733  1.2524  0.4702 -0.5770
 8963TIP3   OH248379   6.465   3.358  15.338  0.1792  0.1273  0.4017
 8963TIP3    H148380   6.525   3.363  15.413  3.2490 -0.3343 -1.9214
 8963TIP3    H248381   6.473   3.268  15.308 -1.4441  0.1665 -0.1668
 8964TIP3   OH248382   5.290   2.631  15.578  0.0050  0.0150 -0.0728
 8964TIP3    H148383   5.257   2.720  15.587  1.2090  0.7855 -2.6837
 8964TIP3    H248384   5.381   2.642  15.548 -0.3892 -2.0316 -2.1888
 8965TIP3   OH248385   5.481   0.340   1.862 -0.1562 -0.0639 -0.0929
 8965TIP3    H148386   5.401   0.329   1.809 -0.1943 -0.1926 -0.0090
 8965TIP3    H248387   5.552   0.341   1.797 -0.3196  1.2617 -0.2601
 8966TIP3   OH248388   5.527   1.807   4.278 -0.0026 -0.4871  0.4604
 8966TIP3    H148389   5.560   1.726   4.239 -0.6778 -0.5694  0.0468
 8966TIP3    H248390   5.504   1.861   4.203  0.1391 -0.0387  0.7424
 8967TIP3   OH248391   5.629   1.188   3.502 -0.3533  0.3237  0.2767
 8967TIP3    H148392   5.565   1.253   3.530 -0.7322 -0.9746  2.5762
 8967TIP3    H248393   5.589   1.146   3.426 -0.9839  1.4114  0.0015
 8968TIP3   OH248394   6.266   4.559   4.724 -0.2438  0.1652 -0.2465
 8968TIP3    H148395   6.256   4.525   4.813 -1.6763  0.4948 -0.2768
 8968TIP3    H248396   6.271   4.654   4.736 -1.6315  0.2974 -0.6004
 8969TIP3   OH248397   6.313   6.279   6.375 -0.2035 -0.1086 -0.6060
 8969TIP3    H148398   6.402   6.243   6.374 -0.5708 -1.0594 -0.3289
 8969TIP3    H248399   6.263   6.217   6.430 -0.5066  1.6654  1.1545
 8970TIP3   OH248400   5.959   5.308   3.997 -0.9753 -0.2362 -0.4463
 8970TIP3    H148401   5.957   5.214   4.011  1.7858 -0.4167 -0.9739
 8970TIP3    H248402   5.967   5.346   4.085 -0.9003 -0.5593 -0.3147
 8971TIP3   OH248403   4.925   3.601  12.664 -0.1002  0.1533  0.1549
 8971TIP3    H148404   4.875   3.672  12.624  0.1502  0.0721 -0.3024
 8971TIP3    H248405   4.972   3.561  12.591  2.3930  1.6555  0.8991
 8972TIP3   OH248406   4.685   6.762  12.235 -0.2807 -0.2543 -0.7360
 8972TIP3    H148407   4.608   6.814  12.211 -0.8755 -0.0008  1.5430
 8972TIP3    H248408   4.696   6.779  12.329  2.3893 -0.5264 -0.9680
 8973TIP3   OH248409   2.382   5.074  12.464  0.3929  0.5959  0.6627
 8973TIP3    H148410   2.392   5.021  12.543  1.6448  0.4113  0.3943
 8973TIP3    H248411   2.429   5.025  12.397 -0.6012  0.7946 -0.1776
 8974TIP3   OH248412   0.422   3.452   5.285 -0.2085 -0.4172  0.4736
 8974TIP3    H148413   0.517   3.462   5.288 -0.1940  0.3174 -1.9143
 8974TIP3    H248414   0.389   3.537   5.256 -1.3532 -1.6700 -1.9882
 8975TIP3   OH248415   0.233   2.309  16.290  0.2728  0.0760  0.3991
 8975TIP3    H148416   0.205   2.299  16.199 -2.8952  0.0859  1.3045
 8975TIP3    H248417   0.287   2.232  16.307  0.8407  0.0373 -1.4570
 8976TIP3   OH248418   4.479   3.886   1.636  0.0162  0.1833  0.1504
 8976TIP3    H148419   4.469   3.839   1.719  0.5662  1.7026  1.0984
 8976TIP3    H248420   4.559   3.937   1.647  0.1976  0.2545 -1.3942
 8977TIP3   OH248421   5.846   4.817  16.278  0.4394  0.0756 -0.3139
 8977TIP3    H148422   5.800   4.816  16.362 -0.1337  0.7109 -0.6189
 8977TIP3    H248423   5.844   4.726  16.249 -0.0599 -0.0106 -0.0148
 8978TIP3   OH248424   6.184   2.842   3.110  0.3382  0.0993 -0.8140
 8978TIP3    H148425   6.092   2.831   3.134  0.8482  0.2480  1.3041
 8978TIP3    H248426   6.225   2.880   3.188  2.2204 -0.0535 -1.6954
 8979TIP3   OH248427   0.365   4.727  15.998 -0.4835 -0.2304  0.1541
 8979TIP3    H148428   0.381   4.695  16.087  0.8163  0.0810  0.0543
 8979TIP3    H248429   0.342   4.649  15.948  1.7619 -0.9025  0.1143
 8980TIP3   OH248430   0.994   6.324  13.797 -0.1848 -0.0772 -0.3884
 8980TIP3    H148431   1.090   6.317  13.798 -0.2701 -1.6318  1.8567
 8980TIP3    H248432   0.976   6.404  13.747  2.2748  0.2153 -0.8708
 8981TIP3   OH248433   0.445   3.374   0.115 -0.3134 -0.4814 -0.2528
 8981TIP3    H148434   0.506   3.360   0.187 -1.3352 -1.9180  0.3746
 8981TIP3    H248435   0.435   3.469   0.109 -1.8174 -0.3582  2.9165
 8982TIP3   OH248436   3.923   1.801   0.483 -0.5085  0.6253 -0.5859
 8982TIP3    H148437   3.930   1.723   0.538 -2.1533 -0.3592 -1.7513
 8982TIP3    H248438   3.910   1.873   0.545 -0.9369 -0.2761  0.3900
 8983TIP3   OH248439   2.195   4.400   2.505  0.1438 -0.1440  0.0147
 8983TIP3    H148440   2.103   4.397   2.533  0.3870 -0.8880  0.7485
 8983TIP3    H248441   2.241   4.346   2.569  0.7716 -1.6675 -1.6788
 8984TIP3   OH248442   0.026   0.743  13.947  0.2917  0.0547  0.2992
 8984TIP3    H148443  -0.065   0.716  13.958  0.3541  0.0841  0.9394
 8984TIP3    H248444   0.025   0.800  13.870 -0.4158  0.9176  0.9333
 8985TIP3   OH248445   0.369   2.316   3.725 -0.0800 -0.4260  0.3556
 8985TIP3    H148446   0.456   2.335   3.761  0.2374 -0.3666 -0.4438
 8985TIP3    H248447   0.371   2.222   3.707 -0.0462 -0.3490 -0.0374
 8986TIP3   OH248448   1.212   0.976   0.356 -0.0726 -0.4845  0.1382
 8986TIP3    H148449   1.128   1.001   0.318  0.4105 -0.1873 -0.7601
 8986TIP3    H248450   1.232   1.046   0.418  1.4948  1.7118 -2.7090
 8987TIP3   OH248451   3.946   4.125   4.863 -0.1192 -0.0009 -0.2135
 8987TIP3    H148452   3.916   4.173   4.940  1.4718 -0.3136  0.6344
 8987TIP3    H248453   4.038   4.149   4.855  0.0914 -1.1008 -1.1621
 8988TIP3   OH248454   0.775   5.091   3.510 -0.0410  0.0062 -0.8172
 8988TIP3    H148455   0.819   5.069   3.593 -0.3214 -2.0731 -1.1727
 8988TIP3    H248456   0.751   5.183   3.519 -2.4044 -0.8036  2.5135
 8989TIP3   OH248457   6.026   0.638  14.976 -0.1842 -0.0118 -0.2284
 8989TIP3    H148458   5.993   0.630  15.065 -1.0495 -0.7541 -0.6145
 8989TIP3    H248459   6.106   0.690  14.985 -1.0331  1.1395  0.7949
 8990TIP3   OH248460   0.088   0.831   6.129 -0.9787 -0.0354 -0.1806
 8990TIP3    H148461   0.056   0.758   6.182  2.3366 -1.2308  0.2590
 8990TIP3    H248462   0.115   0.897   6.193  0.8195 -0.5246 -0.4178
 8991TIP3   OH248463   6.460   5.587   4.302  0.1420 -0.2579  0.1011
 8991TIP3    H148464   6.498   5.564   4.218 -0.4902  0.5092 -0.4003
 8991TIP3    H248465   6.368   5.603   4.284  0.1294  0.5257  0.8205
 8992TIP3   OH248466   0.941   6.603  12.031 -0.1666  0.0032  0.3528
 8992TIP3    H148467   0.903   6.588  12.117 -0.9864 -1.1028 -0.1869
 8992TIP3    H248468   0.865   6.616  11.973  0.3123 -0.6927 -0.4491
 8993TIP3   OH248469   6.209   1.762  14.686 -0.1546 -0.0738  0.0030
 8993TIP3    H148470   6.193   1.774  14.592 -1.4415 -1.2513  0.0473
 8993TIP3    H248471   6.122   1.769  14.726  0.3468  0.1389  1.0908
 8994TIP3   OH248472   5.985   5.787   2.515 -0.2227  0.5838  0.0723
 8994TIP3    H148473   5.898   5.758   2.545 -0.3413  0.4478 -0.4035
 8994TIP3    H248474   6.026   5.708   2.481 -0.3931  0.9025 -0.8653
 8995TIP3   OH248475   5.409   2.064  15.623  0.3879 -0.4842 -0.3594
 8995TIP3    H148476   5.329   2.038  15.577  1.0848  0.9904 -2.5050
 8995TIP3    H248477   5.395   2.156  15.644  1.4987 -0.2201 -0.7371
 8996TIP3   OH248478   6.559   3.428   3.333 -0.6364  0.6588  0.4040
 8996TIP3    H148479   6.554   3.380   3.250  1.5966  2.1822 -0.6669
 8996TIP3    H248480   6.601   3.368   3.394 -1.0327  0.0226  0.0554
 8997TIP3   OH248481   4.855   3.231  11.463 -0.4312  0.0520  0.0068
 8997TIP3    H148482   4.939   3.275  11.453 -0.9135  1.1228  0.4895
 8997TIP3    H248483   4.827   3.252  11.553 -1.0584 -0.5568 -0.0355
 8998TIP3   OH248484   5.131   4.017  16.715  0.3137 -0.6989 -0.0318
 8998TIP3    H148485   5.050   3.988  16.673 -0.4862  1.4938 -0.0575
 8998TIP3    H248486   5.200   3.999  16.651 -0.4430 -0.5029 -0.8966
 8999TIP3   OH248487   3.471   0.051  13.993  0.1774  0.0165  0.4583
 8999TIP3    H148488   3.548   0.078  14.043  0.6416  0.6878 -0.6144
 8999TIP3    H248489   3.399   0.102  14.031  0.5496  0.6083  0.3776
 9000TIP3   OH248490   2.792   1.790  13.370 -0.7665  0.2720  0.1434
 9000TIP3    H148491   2.760   1.801  13.281 -1.5773  0.4119  0.4498
 9000TIP3    H248492   2.863   1.854  13.378 -0.7643  0.3347 -0.3591
 9001TIP3   OH248493   0.665   5.893   0.261 -0.1669 -0.1504  0.4693
 9001TIP3    H148494   0.623   5.947   0.327  3.5231  2.6053  0.7125
 9001TIP3    H248495   0.737   5.851   0.307  0.2850 -1.0246 -1.0120
 9002TIP3   OH248496   1.735   6.082   2.722 -0.5826  0.4443 -0.1158
 9002TIP3    H148497   1.663   6.048   2.775  0.3715 -0.3193  0.7134
 9002TIP3    H248498   1.799   6.114   2.786  0.4451 -0.2062 -0.8119
 9003TIP3   OH248499   0.800   4.821   0.272 -0.1988 -0.4630 -0.2604
 9003TIP3    H148500   0.822   4.746   0.327  0.1788 -0.3182 -0.2141
 9003TIP3    H248501   0.754   4.881   0.330  0.1400 -0.3399 -0.1165
 9004TIP3   OH248502   3.643   5.964  16.284 -0.6670 -0.5734 -1.0893
 9004TIP3    H148503   3.646   5.950  16.190 -0.0150 -2.2846 -0.8228
 9004TIP3    H248504   3.550   5.963  16.306 -0.7462 -2.1053 -1.4442
 9005TIP3   OH248505   6.353   0.579   0.643 -0.1896 -0.2924 -0.2516
 9005TIP3    H148506   6.344   0.543   0.554 -1.0904 -1.5874  0.3583
 9005TIP3    H248507   6.358   0.503   0.700  0.5009  0.5346  0.8197
 9006TIP3   OH248508   3.962   6.606   1.619  0.4774  0.2691  0.2309
 9006TIP3    H148509   4.013   6.659   1.681  0.7978  0.6181 -0.3281
 9006TIP3    H248510   4.022   6.537   1.590  0.6733  0.7439 -0.5087
 9007TIP3   OH248511   1.676   4.286  14.953 -0.3167 -0.3046 -0.6757
 9007TIP3    H148512   1.717   4.225  14.893  1.7942  0.3295  0.0908
 9007TIP3    H248513   1.707   4.372  14.926  0.8007 -0.0209  1.4081
 9008TIP3   OH248514   6.211   4.182   5.570 -0.2290  0.2006  0.3255
 9008TIP3    H148515   6.212   4.234   5.650 -2.1907  0.0944  0.4406
 9008TIP3    H248516   6.152   4.109   5.589 -1.1405  0.4687 -1.3942
 9009TIP3   OH248517   0.686   5.922  13.140 -0.8981  0.5051 -0.0093
 9009TIP3    H148518   0.723   5.970  13.215 -0.8826  1.1255 -0.4088
 9009TIP3    H248519   0.729   5.961  13.064 -1.1590  0.0979 -0.3608
 9010TIP3   OH248520   3.413   4.444   0.276 -0.2777 -0.1750 -0.2574
 9010TIP3    H148521   3.353   4.406   0.341 -0.0879  0.0534  0.0498
 9010TIP3    H248522   3.487   4.383   0.273 -0.2099 -0.0983 -0.1390
 9011TIP3   OH248523   6.765   4.358  17.247  0.2180  0.4151  0.0660
 9011TIP3    H148524   6.727   4.301  17.180 -1.3427  1.9489 -0.3768
 9011TIP3    H248525   6.766   4.305  17.327 -2.2532  0.1147 -0.0820
 9012TIP3   OH248526   4.762   4.311  13.237  0.1556 -0.2038  0.0537
 9012TIP3    H148527   4.705   4.259  13.293  0.2170 -0.2459  0.0763
 9012TIP3    H248528   4.736   4.402  13.254  0.6391 -0.1776  0.6491
 9013TIP3   OH248529   6.220   4.767   1.237 -0.0042 -0.0866  0.2063
 9013TIP3    H148530   6.273   4.827   1.183  0.7834 -1.2462 -0.3170
 9013TIP3    H248531   6.189   4.701   1.175 -0.4829 -0.4767  0.8699
 9014TIP3   OH248532   3.983   5.137   3.372 -0.1225 -0.0322 -0.3544
 9014TIP3    H148533   3.927   5.059   3.379 -1.1176  0.6702 -0.4716
 9014TIP3    H248534   3.935   5.196   3.314  0.2883  0.9822  0.3296
 9015TIP3   OH248535   3.347   1.418  15.058  0.3131 -0.2488  0.2103
 9015TIP3    H148536   3.311   1.406  15.145  3.1231  0.5541  1.5319
 9015TIP3    H248537   3.433   1.375  15.061  0.6106  0.1249 -2.0222
 9016TIP3   OH248538   3.663   6.725   2.773  0.4927 -0.1804 -0.1302
 9016TIP3    H148539   3.619   6.804   2.803  0.9882 -0.0312  0.2060
 9016TIP3    H248540   3.734   6.712   2.836  1.6631  0.2420 -1.3552
 9017TIP3   OH248541   2.336   3.180  13.065 -0.3062 -0.3468  0.0355
 9017TIP3    H148542   2.389   3.157  13.142  1.2232  0.8026 -0.6382
 9017TIP3    H248543   2.364   3.268  13.043 -1.3695 -0.3437 -1.3293
 9018TIP3   OH248544   6.760   5.465  11.325 -0.1852 -0.3085 -0.7900
 9018TIP3    H148545   6.753   5.535  11.260 -0.0735 -0.6118 -1.1276
 9018TIP3    H248546   6.674   5.462  11.366  0.3728  1.3611  0.5981
 9019TIP3   OH248547   5.453   3.921   3.167  0.2804  0.1427  0.4725
 9019TIP3    H148548   5.394   3.919   3.092  0.7521  2.2259  0.0421
 9019TIP3    H248549   5.531   3.965   3.136  1.7553 -1.8081  1.3113
 9020TIP3   OH248550   3.606   1.471   1.985 -0.3869  0.1039 -0.1069
 9020TIP3    H148551   3.653   1.388   1.996  0.8756  0.9115  0.6678
 9020TIP3    H248552   3.600   1.482   1.890 -0.4002 -0.7794 -0.2161
 9021TIP3   OH248553   3.334   0.681  12.884 -0.1560  0.0492 -0.1514
 9021TIP3    H148554   3.366   0.600  12.924 -0.0273 -0.5877 -1.5041
 9021TIP3    H248555   3.409   0.739  12.882 -0.1098  0.0059  0.3338
 9022TIP3   OH248556   5.040   0.713   5.698  0.6888  0.0588  0.1417
 9022TIP3    H148557   5.062   0.803   5.672  2.6494 -0.4800 -0.1404
 9022TIP3    H248558   4.947   0.704   5.678  0.8765  1.4754 -1.4572
 9023TIP3   OH248559   6.653   3.130  15.471  0.6597  0.2945 -0.1599
 9023TIP3    H148560   6.714   3.201  15.491  1.0967 -0.0387 -0.2967
 9023TIP3    H248561   6.704   3.068  15.418  0.5394 -0.5450  0.6859
 9024TIP3   OH248562   3.101   3.805   5.988 -0.1467  0.2202 -0.1402
 9024TIP3    H148563   3.120   3.879   5.931 -0.1891  0.6907  0.4531
 9024TIP3    H248564   3.144   3.731   5.946  0.0052  0.6011 -0.6663
 9025TIP3   OH248565   6.357   5.405   5.766 -0.3223 -0.5794  0.2990
 9025TIP3    H148566   6.322   5.386   5.679  0.0291  0.2169 -0.0149
 9025TIP3    H248567   6.296   5.468   5.804  1.1055  1.2866 -0.4896
 9026TIP3   OH248568   3.354   6.272   3.195  0.2278 -0.9516  0.1143
 9026TIP3    H148569   3.339   6.353   3.146  1.1265  0.8809  2.7385
 9026TIP3    H248570   3.324   6.203   3.137 -0.2587  1.2434 -2.3407
 9027TIP3   OH248571   2.676   1.742   2.809 -0.0748 -0.0404 -0.6782
 9027TIP3    H148572   2.754   1.688   2.821 -0.0349  0.4489  1.4802
 9027TIP3    H248573   2.696   1.823   2.857 -2.4898 -0.5155  1.2439
 9028TIP3   OH248574   5.074   3.772  13.639 -0.2709 -0.4656 -0.1994
 9028TIP3    H148575   5.038   3.755  13.726  2.1260  0.3268  1.0015
 9028TIP3    H248576   5.119   3.691  13.615  0.0375 -0.2949 -0.1988
 9029TIP3   OH248577   6.459   3.300   0.649 -0.0831  0.6952 -0.3312
 9029TIP3    H148578   6.502   3.214   0.656 -0.5245  0.6011  1.4379
 9029TIP3    H248579   6.414   3.297   0.564  0.1589 -0.7077 -0.4273
 9030TIP3   OH248580   2.145   1.332   2.277 -0.0889  0.1668 -0.0288
 9030TIP3    H148581   2.109   1.363   2.194 -1.3036 -0.0493  0.3955
 9030TIP3    H248582   2.229   1.376   2.285 -0.0927  0.4136 -1.2354
 9031TIP3   OH248583   0.442   3.132  16.324 -0.0857 -0.1521  0.9107
 9031TIP3    H148584   0.531   3.121  16.359  1.4073 -0.0238 -2.6695
 9031TIP3    H248585   0.436   3.225  16.305  0.2582 -0.6839 -1.9438
 9032TIP3   OH248586   0.568   6.203  15.640 -0.6251 -0.3620  0.0342
 9032TIP3    H148587   0.590   6.220  15.732  0.0785  0.0401 -0.2032
 9032TIP3    H248588   0.625   6.130  15.615  0.3653  0.5824 -0.5410
 9033TIP3   OH248589   2.300   6.778   4.274 -0.5233 -0.1887  0.2506
 9033TIP3    H148590   2.395   6.784   4.277 -0.6074  1.2141  0.5757
 9033TIP3    H248591   2.270   6.869   4.265 -1.7984 -0.6924 -0.7626
 9034TIP3   OH248592   5.870   5.477  13.297  0.1859 -0.2710 -0.5714
 9034TIP3    H148593   5.896   5.427  13.220 -0.6887 -0.3017 -0.8510
 9034TIP3    H248594   5.940   5.541  13.308  0.3348 -0.2872 -1.3729
 9035TIP3   OH248595   2.318   3.305   0.436 -0.0721  1.1446 -0.8582
 9035TIP3    H148596   2.318   3.373   0.503  1.1712 -0.4018  0.7568
 9035TIP3    H248597   2.409   3.302   0.405  0.5825 -1.6533  1.1090
 9036TIP3   OH248598   4.434   0.163  16.519 -0.0305  0.0515 -0.1856
 9036TIP3    H148599   4.524   0.149  16.549 -0.1511  0.2907  0.2790
 9036TIP3    H248600   4.413   0.083  16.470 -0.0786 -0.6386  0.9391
 9037TIP3   OH248601   5.077   3.318   1.339 -0.2167  1.1211 -0.4806
 9037TIP3    H148602   5.065   3.287   1.250 -0.5742 -1.5524  0.4578
 9037TIP3    H248603   5.001   3.373   1.356  0.4363  2.6132 -2.1788
 9038TIP3   OH248604   4.313   6.181   5.316  0.1573  1.0840 -0.4810
 9038TIP3    H148605   4.380   6.247   5.302 -0.5823  1.5277 -2.0533
 9038TIP3    H248606   4.235   6.217   5.274 -0.6153 -0.1794 -0.1543
 9039TIP3   OH248607   1.025   5.929  13.226  0.0577 -0.1896  0.2055
 9039TIP3    H148608   1.066   5.855  13.271  1.2584  0.7903  0.7711
 9039TIP3    H248609   0.950   5.951  13.280  0.2213 -0.4215  0.5327
 9040TIP3   OH248610   1.312   5.104  16.262 -0.4348  0.2940  0.1519
 9040TIP3    H148611   1.249   5.158  16.309 -0.9175  0.3817 -0.5952
 9040TIP3    H248612   1.394   5.153  16.266 -0.7419  0.8175 -0.0659
 9041TIP3   OH248613   1.131   0.403   3.399 -0.0121 -0.4326  0.4975
 9041TIP3    H148614   1.214   0.363   3.425 -0.3799 -2.3165 -1.1444
 9041TIP3    H248615   1.082   0.333   3.356 -2.1959  0.8249  0.8461
 9042TIP3   OH248616   5.285   3.745   5.299  0.2878  0.4202  0.5885
 9042TIP3    H148617   5.373   3.748   5.338  0.2486  0.6993  0.6628
 9042TIP3    H248618   5.300   3.763   5.206  0.2781  0.7933  0.6575
 9043TIP3   OH248619   2.266   3.905  12.071  0.1067  0.1431 -0.3291
 9043TIP3    H148620   2.206   3.830  12.075 -0.1983  0.4516  1.3297
 9043TIP3    H248621   2.332   3.880  12.007  2.1404 -3.1484  2.8517
 9044TIP3   OH248622   6.652   3.178   3.687 -0.3092  0.0918 -0.1878
 9044TIP3    H148623   6.706   3.253   3.709  0.4332 -0.1138 -1.2918
 9044TIP3    H248624   6.714   3.108   3.666 -0.9843 -1.0461  1.4911
 9045TIP3   OH248625   4.810   1.119  15.344 -0.4457 -0.2833  0.3593
 9045TIP3    H148626   4.882   1.180  15.361 -1.9076  1.1947  1.3445
 9045TIP3    H248627   4.846   1.058  15.279  0.7794  2.0822 -1.2551
 9046TIP3   OH248628   2.906   5.855   3.362  0.4481  0.1076  0.9275
 9046TIP3    H148629   2.933   5.881   3.274  0.9252 -0.1234  1.0063
 9046TIP3    H248630   2.971   5.791   3.390  1.5281  1.7417  2.2837
 9047TIP3   OH248631   6.442   6.708  13.866 -0.2965  0.1269  0.6203
 9047TIP3    H148632   6.458   6.802  13.874  1.9313 -0.0916 -0.7697
 9047TIP3    H248633   6.460   6.689  13.774 -0.5592 -1.6851  0.9274
 9048TIP3   OH248634   0.823   2.424  14.736 -0.4337  0.2927 -0.4963
 9048TIP3    H148635   0.891   2.386  14.680 -0.6036 -0.0309 -0.4809
 9048TIP3    H248636   0.746   2.428  14.680 -0.6557 -0.2074 -0.2300
 9049TIP3   OH248637   4.135   3.910  13.789 -0.0535  0.0817 -0.0574
 9049TIP3    H148638   4.068   3.977  13.772  0.1997  0.7267  1.4521
 9049TIP3    H248639   4.203   3.955  13.838  1.0530 -0.8163 -0.7413
 9050TIP3   OH248640   2.523   6.194   3.953 -0.5578  0.4822 -0.0308
 9050TIP3    H148641   2.570   6.150   3.882 -1.7318  1.5269 -1.4868
 9050TIP3    H248642   2.588   6.254   3.991  0.4089 -0.9000  0.5546
 9051TIP3   OH248643   4.345   2.972   0.336 -0.1102 -0.2560 -0.2006
 9051TIP3    H148644   4.286   3.016   0.397 -0.5669 -0.3251 -0.5938
 9051TIP3    H248645   4.293   2.900   0.300  0.1555 -0.1969 -0.6999
 9052TIP3   OH248646   1.967   6.585   3.802 -0.3836 -0.1214 -0.1172
 9052TIP3    H148647   2.040   6.539   3.762  0.6209 -0.2405  1.8141
 9052TIP3    H248648   1.991   6.678   3.796 -0.0039 -0.1683  0.6312
 9053TIP3   OH248649   2.701   4.490   2.185  0.1467 -0.1224  0.2284
 9053TIP3    H148650   2.761   4.469   2.114  1.4115  1.0874  0.9294
 9053TIP3    H248651   2.668   4.405   2.215  3.7690 -1.0427  1.8132
 9054TIP3   OH248652   0.369   1.067  13.525 -0.3060  0.0296  0.4321
 9054TIP3    H148653   0.426   1.052  13.449 -4.0517 -3.1573 -1.9675
 9054TIP3    H248654   0.409   1.016  13.595 -0.2426 -2.2786 -1.2306
 9055TIP3   OH248655   0.814   0.547   4.964  0.4360  0.0810 -0.1109
 9055TIP3    H148656   0.861   0.563   5.045  2.0010  0.6463 -1.1044
 9055TIP3    H248657   0.843   0.460   4.937 -1.9695 -1.1844  1.1715
 9056TIP3   OH248658   5.211   5.264  14.237 -0.7703 -0.0010  0.2151
 9056TIP3    H148659   5.238   5.354  14.256  1.6187 -0.9092  1.4339
 9056TIP3    H248660   5.284   5.228  14.185 -0.7214 -1.8152  1.4837
 9057TIP3   OH248661   3.397   3.248   4.245 -0.0697  0.1642  0.3162
 9057TIP3    H148662   3.325   3.236   4.182 -2.3643  1.8052  2.4969
 9057TIP3    H248663   3.435   3.160   4.255 -0.6892 -0.4060 -2.1616
 9058TIP3   OH248664   4.183   2.853   4.736 -0.4187  0.0213 -0.1137
 9058TIP3    H148665   4.143   2.770   4.761 -1.3013  0.3224 -0.4888
 9058TIP3    H248666   4.252   2.867   4.801 -1.4488 -0.1233  1.0337
 9059TIP3   OH248667   2.836   3.008   0.855  0.8674 -0.7374  0.0310
 9059TIP3    H148668   2.852   3.101   0.839 -0.2488 -0.5945 -0.3592
 9059TIP3    H248669   2.920   2.973   0.885  1.0185  0.6187  1.2176
 9060TIP3   OH248670   4.524   5.183  16.868 -0.7740 -0.3240  0.7304
 9060TIP3    H148671   4.540   5.258  16.811 -1.3278 -0.5763  0.2426
 9060TIP3    H248672   4.576   5.202  16.947  1.1670 -0.6681 -0.4299
 9061TIP3   OH248673   0.657   6.777  13.828  0.1313  0.5068  0.1573
 9061TIP3    H148674   0.675   6.720  13.753  0.3223  0.9782 -0.1585
 9061TIP3    H248675   0.657   6.718  13.904  0.7310  0.1504 -0.1170
 9062TIP3   OH248676   6.615   4.983   4.659 -0.2171 -0.4217  0.5781
 9062TIP3    H148677   6.617   4.889   4.673  0.5853 -0.1347  2.6073
 9062TIP3    H248678   6.691   5.002   4.604  0.7617 -0.7315  1.8066
 9063TIP3   OH248679   0.062   1.964   2.022 -0.2079  0.2377 -0.2651
 9063TIP3    H148680  -0.024   2.006   2.019 -0.4142 -0.2297 -1.4602
 9063TIP3    H248681   0.082   1.956   2.115 -2.0140 -0.7509  0.0646
 9064TIP3   OH248682   3.047   4.133  12.823  0.0755 -0.2773 -0.0515
 9064TIP3    H148683   3.045   4.173  12.910 -0.7925 -1.8273  0.6578
 9064TIP3    H248684   3.139   4.110  12.809  0.2811  0.3304  0.2779
 9065TIP3   OH248685   4.616   3.557  16.541  1.0529  0.5615  0.3635
 9065TIP3    H148686   4.628   3.553  16.636 -2.7615 -0.7401  0.8587
 9065TIP3    H248687   4.629   3.467  16.512 -1.7805  0.1334  0.2579
 9066TIP3   OH248688   4.491   5.834  10.500 -0.4410  0.0917  0.1118
 9066TIP3    H148689   4.415   5.858  10.447 -0.1800 -1.7953 -1.1424
 9066TIP3    H248690   4.454   5.795  10.579 -0.7788 -1.3052 -0.7281
 9067TIP3   OH248691   4.466   2.198   5.006  0.3544 -0.0693  0.2067
 9067TIP3    H148692   4.521   2.272   5.033  3.1477 -1.8445 -0.4973
 9067TIP3    H248693   4.487   2.185   4.914  0.0707 -1.8922  0.3935
 9068TIP3   OH248694   2.298   0.957  13.663 -0.2185  0.1042 -0.3466
 9068TIP3    H148695   2.393   0.953  13.675 -0.3880 -0.6065  0.8987
 9068TIP3    H248696   2.268   1.010  13.737 -0.9303 -0.9626  0.1341
 9069TIP3   OH248697   2.744   3.794   5.874  0.3493 -0.1326 -0.1750
 9069TIP3    H148698   2.728   3.858   5.943  0.2433 -0.6273  0.2669
 9069TIP3    H248699   2.657   3.774   5.839  0.6378  2.2833 -2.4582
 9070TIP3   OH248700   0.313   0.439   2.834  0.4684 -0.2948  0.4503
 9070TIP3    H148701   0.345   0.351   2.856 -2.2968 -1.4232  0.1311
 9070TIP3    H248702   0.251   0.460   2.903  0.0121  0.7811 -0.2793
 9071TIP3   OH248703   5.705   4.567  16.392 -0.5029 -0.4198  0.0089
 9071TIP3    H148704   5.683   4.571  16.299 -0.9043  1.9958  0.1811
 9071TIP3    H248705   5.801   4.566  16.394 -0.4719  0.7276 -0.4147
 9072TIP3   OH248706   4.373   5.938  14.880  0.2876  0.0700 -1.2175
 9072TIP3    H148707   4.331   5.857  14.909  0.6285 -0.3777 -1.9736
 9072TIP3    H248708   4.315   5.973  14.813 -0.0677  0.6694 -0.6057
 9073TIP3   OH248709   3.907   0.682   5.022  0.3832 -0.1734  0.0064
 9073TIP3    H148710   3.987   0.633   5.041 -0.2354 -1.2897 -0.2196
 9073TIP3    H248711   3.855   0.623   4.968 -0.3104  0.8031 -0.4018
 9074TIP3   OH248712   3.115   1.555   0.143  0.0414 -0.2516  0.3572
 9074TIP3    H148713   3.160   1.475   0.116 -0.9682 -0.6750 -0.0748
 9074TIP3    H248714   3.106   1.606   0.063 -2.3211 -1.1973 -0.0168
 9075TIP3   OH248715   4.768   0.346  13.260  0.1059 -0.2841 -0.7710
 9075TIP3    H148716   4.792   0.371  13.171  1.4050  0.8173 -0.1254
 9075TIP3    H248717   4.684   0.301  13.250 -1.0685  2.1277 -2.2562
 9076TIP3   OH248718   0.975   0.457  11.026 -0.1247  0.0373 -0.2989
 9076TIP3    H148719   0.910   0.464  11.096 -1.2082  0.0449 -1.2930
 9076TIP3    H248720   0.925   0.432  10.949  1.0892 -0.1718 -1.0334
 9077TIP3   OH248721   5.685   5.340   2.358  0.1432 -0.0374  0.1005
 9077TIP3    H148722   5.618   5.401   2.327 -0.3237 -0.0689  1.0379
 9077TIP3    H248723   5.698   5.364   2.450  1.2326 -0.2034 -0.0086
 9078TIP3   OH248724   6.621   0.902  15.032 -0.4243  0.0631  0.6360
 9078TIP3    H148725   6.598   0.849  15.109  0.7344 -0.0331  0.9183
 9078TIP3    H248726   6.678   0.846  14.980 -1.6181 -0.0633 -0.5670
 9079TIP3   OH248727   1.354   1.918   0.647 -0.0668 -0.1158  0.2785
 9079TIP3    H148728   1.285   1.926   0.581 -0.3400 -1.0751  0.4428
 9079TIP3    H248729   1.313   1.950   0.728  0.7779  2.6126 -0.3389
 9080TIP3   OH248730   2.433   5.747  12.628 -0.4021 -0.6206 -0.1824
 9080TIP3    H148731   2.432   5.685  12.701 -0.6570  0.0103  0.3576
 9080TIP3    H248732   2.356   5.724  12.577 -0.9748 -0.1921  0.4887
 9081TIP3   OH248733   5.067   4.140  10.775 -0.3114  0.2215 -0.0159
 9081TIP3    H148734   5.074   4.194  10.696 -0.8588  0.6112  0.1998
 9081TIP3    H248735   5.090   4.052  10.745  1.1590  0.6723 -0.2319
 9082TIP3   OH248736   0.333   5.430  11.818 -0.0359 -0.2259 -0.0765
 9082TIP3    H148737   0.264   5.365  11.810 -0.9765  0.8214 -0.5179
 9082TIP3    H248738   0.291   5.506  11.856  1.7399 -0.9013  3.5039
 9083TIP3   OH248739   5.058   6.696   0.115  0.1020 -0.3722 -0.2595
 9083TIP3    H148740   5.129   6.735   0.065  0.1212 -0.3694 -0.2304
 9083TIP3    H248741   4.983   6.753   0.100  0.6283  0.7933  1.3460
 9084TIP3   OH248742   6.583   0.002   5.165 -0.0252 -0.3577  0.8240
 9084TIP3    H148743   6.513   0.037   5.220 -0.1098  2.3606 -0.9113
 9084TIP3    H248744   6.663   0.027   5.211 -0.1319 -0.0812  0.8599
 9085TIP3   OH248745   2.961   1.659  14.415 -0.2114 -0.6062 -0.7791
 9085TIP3    H148746   2.955   1.718  14.340  0.3837  0.3524 -0.0908
 9085TIP3    H248747   2.928   1.575  14.383  0.4993 -0.3425 -2.2476
 9086TIP3   OH248748   0.522   4.785  16.908  0.0771 -0.3973 -0.1002
 9086TIP3    H148749   0.594   4.722  16.902 -0.5150 -0.8347 -4.0194
 9086TIP3    H248750   0.443   4.733  16.896 -0.5171  0.8725 -1.8307
 9087TIP3   OH248751   1.116   5.752  17.229 -0.1751 -0.6877  0.1925
 9087TIP3    H148752   1.207   5.723  17.221  0.3691  0.3842  2.2840
 9087TIP3    H248753   1.078   5.736  17.142  2.0714 -0.8877 -0.7769
 9088TIP3   OH248754   0.999   0.962   0.083  0.2898  0.3345  0.1090
 9088TIP3    H148755   1.045   1.040   0.051 -0.8336  0.4721 -1.2367
 9088TIP3    H248756   1.068   0.906   0.118  1.2093  1.5319  0.2342
 9089TIP3   OH248757   6.081   4.853  16.557 -0.1149  0.3712  0.2843
 9089TIP3    H148758   6.070   4.896  16.642  0.2004 -0.5371  0.7988
 9089TIP3    H248759   6.152   4.901  16.515  1.8531 -1.0740  1.8300
 9090TIP3   OH248760   5.240   3.653  11.188  0.1238 -0.1557  0.3652
 9090TIP3    H148761   5.228   3.560  11.202  1.2725 -0.1338  1.6631
 9090TIP3    H248762   5.171   3.695  11.240 -0.3878 -0.2719 -0.2126
 9091TIP3   OH248763   2.749   6.319  15.494 -0.1916  1.0092 -0.4729
 9091TIP3    H148764   2.826   6.364  15.527 -0.2944  0.1599  1.0138
 9091TIP3    H248765   2.744   6.342  15.401  2.2539  0.4893 -0.7557
 9092TIP3   OH248766   6.236   0.231  11.791  0.1414  0.0217  0.5408
 9092TIP3    H148767   6.196   0.248  11.706  0.1605  1.0419  0.7351
 9092TIP3    H248768   6.213   0.140  11.810  0.2810 -0.2715 -0.6319
 9093TIP3   OH248769   3.581   0.213   0.784 -0.4540 -0.2277  0.5664
 9093TIP3    H148770   3.523   0.265   0.840 -2.4123 -0.7759 -0.9009
 9093TIP3    H248771   3.611   0.274   0.717  0.9316  0.1267  1.4872
 9094TIP3   OH248772   4.920   2.560   2.453 -0.2154 -0.6004  0.0993
 9094TIP3    H148773   4.884   2.485   2.500 -1.6954  0.0867  0.0870
 9094TIP3    H248774   4.913   2.536   2.361 -2.1993  0.1700  0.0089
 9095TIP3   OH248775   3.888   3.502   0.982  0.1298 -0.1617  0.8613
 9095TIP3    H148776   3.952   3.434   1.000 -1.4043 -1.8988 -0.1006
 9095TIP3    H248777   3.884   3.506   0.886  0.6426  1.7324  0.8904
 9096TIP3   OH248778   2.748   6.295   1.454  0.1063  0.5126 -0.0441
 9096TIP3    H148779   2.803   6.354   1.507  0.3359 -0.6543  1.0494
 9096TIP3    H248780   2.808   6.256   1.391  0.6878 -1.1728  1.5016
 9097TIP3   OH248781   6.281   1.761  13.614  0.0328 -0.2331 -0.4838
 9097TIP3    H148782   6.221   1.829  13.644  0.0057 -0.6498  0.4150
 9097TIP3    H248783   6.231   1.680  13.621  0.6496 -0.5657  0.1435
 9098TIP3   OH248784   0.728   6.320  15.858  0.1109 -0.4196  0.2595
 9098TIP3    H148785   0.766   6.397  15.900  1.2141 -0.7925 -0.0413
 9098TIP3    H248786   0.679   6.276  15.928  0.0357  0.1817  0.5921
 9099TIP3   OH248787   2.816   3.676   4.287  0.0128  0.9355 -0.4193
 9099TIP3    H148788   2.833   3.657   4.379  1.9553  1.8518 -0.5463
 9099TIP3    H248789   2.748   3.743   4.288  0.1471  1.0623  0.3715
 9100TIP3   OH248790   1.941   4.238  12.636 -0.1844 -0.5484  0.4076
 9100TIP3    H148791   1.917   4.314  12.583  1.2135 -0.6153 -0.3539
 9100TIP3    H248792   2.002   4.273  12.700  0.8447 -1.1038 -0.2533
 9101TIP3   OH248793   1.271   3.809   3.919 -0.0017  0.0679  0.3465
 9101TIP3    H148794   1.238   3.805   3.829 -0.7875  3.1628  0.4196
 9101TIP3    H248795   1.345   3.869   3.914  0.3906 -0.3128  1.6393
 9102TIP3   OH248796   6.691   0.340   4.917 -0.0886  0.1608  0.7332
 9102TIP3    H148797   6.649   0.394   4.984 -1.5440  0.1983 -0.1791
 9102TIP3    H248798   6.737   0.402   4.861 -0.1538  0.2689  0.8005
 9103TIP3   OH248799   6.254   0.473   2.603 -0.0975 -0.4590 -0.3390
 9103TIP3    H148800   6.241   0.479   2.698  1.9674 -0.2682 -0.0417
 9103TIP3    H248801   6.247   0.380   2.583 -2.1959 -0.3511 -0.2920
 9104TIP3   OH248802   4.003   1.928  11.227  0.0642 -0.7177  0.6458
 9104TIP3    H148803   4.068   1.859  11.242 -0.0658 -1.5398 -2.1184
 9104TIP3    H248804   3.984   1.922  11.133 -3.4182  0.0258  1.2276
 9105TIP3   OH248805   3.059   3.959  16.566 -0.7176 -0.7869 -0.0143
 9105TIP3    H148806   3.034   4.025  16.502 -0.8644 -0.5706  0.2650
 9105TIP3    H248807   2.977   3.915  16.589 -0.4763 -1.7473 -0.9481
 9106TIP3   OH248808   0.847   2.712   2.555 -0.6943 -0.8961 -0.4188
 9106TIP3    H148809   0.752   2.701   2.559 -0.6504 -0.8284  1.2370
 9106TIP3    H248810   0.873   2.731   2.645  1.1826 -3.3931 -0.3692
 9107TIP3   OH248811   3.695   4.525   4.346 -0.2265 -0.2423 -0.1653
 9107TIP3    H148812   3.785   4.549   4.327 -0.3921 -0.2588 -1.0278
 9107TIP3    H248813   3.667   4.586   4.414  1.0821 -1.5848  1.6348
 9108TIP3   OH248814   2.561   6.808  15.032 -0.1763  0.1229  0.7236
 9108TIP3    H148815   2.469   6.834  15.030  0.0001  0.6866 -1.4433
 9108TIP3    H248816   2.580   6.783  14.942  1.9401  0.5002  1.0520
 9109TIP3   OH248817   4.385   0.818  12.345 -0.2780 -0.6621  0.0402
 9109TIP3    H148818   4.382   0.799  12.252 -2.1164 -1.5836  0.2591
 9109TIP3    H248819   4.312   0.878  12.360 -0.4076 -1.0502  0.9907
 9110TIP3   OH248820   4.085   0.988  14.212 -0.1944  0.4394 -0.1152
 9110TIP3    H148821   4.089   1.083  14.203  0.8633  0.4161 -0.0546
 9110TIP3    H248822   4.022   0.973  14.283  1.0346  1.1911  1.1766
 9111TIP3   OH248823   2.314   4.322   1.859  0.1643  0.7210 -0.6014
 9111TIP3    H148824   2.253   4.369   1.914 -0.3912  0.1650 -0.7357
 9111TIP3    H248825   2.298   4.229   1.878  0.5572  0.5513 -1.0626
 9112TIP3   OH248826   2.833   5.167   0.581  0.3068  0.2572 -0.5963
 9112TIP3    H148827   2.773   5.190   0.510 -1.2445 -0.0453  0.5937
 9112TIP3    H248828   2.834   5.245   0.637  0.9174  0.2037 -0.5303
 9113TIP3   OH248829   5.677   6.625   0.374  0.1972  0.4064 -0.0377
 9113TIP3    H148830   5.728   6.664   0.302  1.0058 -2.1866 -0.9382
 9113TIP3    H248831   5.622   6.560   0.331  1.6356 -2.1042  1.8002
 9114TIP3   OH248832   5.957   1.224  14.948 -0.0268 -0.6766  0.1633
 9114TIP3    H148833   5.976   1.227  15.042 -1.6911  3.1078  0.4800
 9114TIP3    H248834   5.862   1.219  14.943  0.0210 -0.2651 -1.2947
 9115TIP3   OH248835   6.456   4.065   3.077 -0.8891  0.1947  0.4125
 9115TIP3    H148836   6.530   4.120   3.104  0.3296 -0.9542 -0.5097
 9115TIP3    H248837   6.392   4.075   3.148 -0.3954  2.1926  0.6227
 9116TIP3   OH248838   4.063   0.120   5.381 -0.4108  0.7240 -0.2323
 9116TIP3    H148839   4.010   0.140   5.458  0.8678 -0.0042  0.8671
 9116TIP3    H248840   4.008   0.061   5.329 -1.4273  1.5170 -0.0584
 9117TIP3   OH248841   0.136   6.376   6.079 -0.2275 -0.2155  0.2251
 9117TIP3    H148842   0.226   6.395   6.053 -1.2576  3.5763 -0.8843
 9117TIP3    H248843   0.143   6.346   6.170  2.1590 -0.1811  0.0771
 9118TIP3   OH248844   2.075   2.912  12.605  0.1720  0.2370  0.6651
 9118TIP3    H148845   2.095   2.885  12.515 -0.9529 -0.5068  0.6304
 9118TIP3    H248846   2.041   3.001  12.596 -0.2271  0.0523  0.3194
 9119TIP3   OH248847   1.337   2.360  11.560 -0.1081  0.2429  0.6607
 9119TIP3    H148848   1.362   2.434  11.506 -1.7196  1.0723  1.0201
 9119TIP3    H248849   1.389   2.370  11.640 -0.5996  1.2078  0.8682
 9120TIP3   OH248850   6.125   6.300  13.555  0.1493  0.0403  0.0807
 9120TIP3    H148851   6.191   6.369  13.563  1.2398 -0.7360 -1.8815
 9120TIP3    H248852   6.175   6.223  13.527 -1.4617 -0.8054 -0.4789
 9121TIP3   OH248853   0.224   6.373  17.220  0.1214 -0.0419  0.1190
 9121TIP3    H148854   0.208   6.467  17.235 -1.3092 -0.3186  0.4029
 9121TIP3    H248855   0.153   6.346  17.161 -0.8369 -1.4482  1.8809
 9122TIP3   OH248856   0.562   0.820   5.115 -0.0255  0.4389  0.1051
 9122TIP3    H148857   0.486   0.806   5.058 -0.3285 -0.3746  0.7015
 9122TIP3    H248858   0.530   0.880   5.183 -0.3943 -0.5628  0.8369
 9123TIP3   OH248859   6.664   0.678  11.399  0.4398  0.0984 -0.4771
 9123TIP3    H148860   6.676   0.742  11.328  1.2199 -0.5095 -0.9027
 9123TIP3    H248861   6.586   0.629  11.374 -0.5232  1.2928  0.1615
 9124TIP3   OH248862   1.530   1.548  11.011  0.4936  0.2977 -0.7204
 9124TIP3    H148863   1.482   1.629  10.990  1.2244  0.4455 -1.9049
 9124TIP3    H248864   1.621   1.577  11.020  0.8271 -0.4547 -1.6010
 9125TIP3   OH248865   6.304   5.889   5.496  0.5226  0.2036  0.1671
 9125TIP3    H148866   6.396   5.895   5.468  0.2244  0.6489 -0.7483
 9125TIP3    H248867   6.286   5.973   5.537  0.2874  0.4244 -0.3885
 9126TIP3   OH248868   6.641   1.296   1.000  0.0185  0.0689  0.1309
 9126TIP3    H148869   6.658   1.221   0.943  2.7524  0.4543  0.3783
 9126TIP3    H248870   6.601   1.361   0.942  0.4158 -0.4704 -0.7527
 9127TIP3   OH248871   1.613   4.282   1.680  0.5745 -0.2534 -0.0766
 9127TIP3    H148872   1.622   4.374   1.655  1.3192 -0.5355 -0.8674
 9127TIP3    H248873   1.679   4.270   1.748 -0.8297  0.2781  1.4156
 9128TIP3   OH248874   2.969   3.451  11.917  0.4805 -0.3881  0.0677
 9128TIP3    H148875   3.046   3.508  11.927  1.5151 -1.1949 -2.7726
 9128TIP3    H248876   2.897   3.510  11.897  0.5099  0.3020  1.8911
 9129TIP3   OH248877   2.529   1.187   2.030  0.5725 -0.3850 -0.0359
 9129TIP3    H148878   2.513   1.248   1.958  0.6374  0.0085  0.2800
 9129TIP3    H248879   2.574   1.114   1.989  1.1990  0.1320 -0.2829
 9130TIP3   OH248880   1.151   0.715  10.990 -0.3660 -0.3334 -0.0115
 9130TIP3    H148881   1.241   0.685  11.007 -0.2980  0.8638  1.9832
 9130TIP3    H248882   1.103   0.635  10.968  0.9101 -1.1694  0.1629
 9131TIP3   OH248883   4.093   0.732   5.717  0.2918 -0.0560  0.2304
 9131TIP3    H148884   4.068   0.824   5.724  0.1294 -0.0243 -0.6745
 9131TIP3    H248885   4.127   0.710   5.803  1.4156  1.1757  0.1188
 9132TIP3   OH248886   3.952   2.246  16.058  0.2015 -0.4668 -0.2953
 9132TIP3    H148887   3.979   2.155  16.075  0.1755 -0.5496 -0.7038
 9132TIP3    H248888   3.913   2.243  15.971 -2.3986 -0.6363  0.8264
 9133TIP3   OH248889   3.957   4.600   4.362  0.1928 -0.1135 -0.1127
 9133TIP3    H148890   4.052   4.592   4.369  0.1029 -2.7468 -1.1552
 9133TIP3    H248891   3.939   4.593   4.268 -1.1775 -2.5313  0.2660
 9134TIP3   OH248892   3.486   0.423  16.256 -0.2249  0.2946  0.7853
 9134TIP3    H148893   3.410   0.373  16.227  1.0064 -1.2963  0.2466
 9134TIP3    H248894   3.500   0.395  16.347  0.2205 -0.0658  0.6120
 9135TIP3   OH248895   5.469   4.847   2.414 -0.3492  0.7104  0.4785
 9135TIP3    H148896   5.435   4.901   2.485 -0.7890 -0.6084  1.2935
 9135TIP3    H248897   5.423   4.763   2.424  0.9658 -0.1076 -0.2041
 9136TIP3   OH248898   4.243   2.494   0.053  0.5076 -0.3896  0.2552
 9136TIP3    H148899   4.277   2.575   0.091 -1.2280  0.0651  0.8840
 9136TIP3    H248900   4.177   2.464   0.116 -0.2283 -1.2651 -0.9221
 9137TIP3   OH248901   4.869   3.595   1.164  0.3026  0.3095  0.2092
 9137TIP3    H148902   4.841   3.546   1.241 -0.4263  1.5696  0.7761
 9137TIP3    H248903   4.861   3.687   1.191 -2.1246  0.8206 -2.1276
 9138TIP3   OH248904   0.792   4.781  12.246  0.1123 -0.2682  0.5790
 9138TIP3    H148905   0.774   4.735  12.164 -0.6671  1.5847 -0.3216
 9138TIP3    H248906   0.711   4.828  12.265  1.0561  1.1316  1.2116
 9139TIP3   OH248907   6.437   4.008  14.288  0.3060  0.3954  0.2044
 9139TIP3    H148908   6.435   3.916  14.264  0.3834  0.2432  0.7685
 9139TIP3    H248909   6.435   4.008  14.384  0.8493  0.9619  0.2184
 9140TIP3   OH248910   4.228   1.467   2.105  0.4879  0.1884 -0.0681
 9140TIP3    H148911   4.183   1.388   2.136  0.8884 -0.4408 -1.0638
 9140TIP3    H248912   4.319   1.439   2.095  0.4495  0.5270 -1.3191
 9141TIP3   OH248913   1.373   5.968  13.925  0.1798 -0.6149  0.2461
 9141TIP3    H148914   1.438   6.033  13.897  0.4192 -0.7858  0.4020
 9141TIP3    H248915   1.424   5.889  13.941  0.0804 -0.4461  1.4257
 9142TIP3   OH248916   3.279   1.773  14.839  0.5096  0.5643  0.3281
 9142TIP3    H148917   3.265   1.814  14.924  0.6587  3.0029 -0.7926
 9142TIP3    H248918   3.210   1.706  14.834  0.4072  0.4904  2.2879
 9143TIP3   OH248919   0.567   6.054   0.469  0.3229 -0.3873 -0.3234
 9143TIP3    H148920   0.640   6.054   0.531 -0.8426  0.5129  1.1056
 9143TIP3    H248921   0.489   6.056   0.525 -0.8644 -3.0609 -1.7561
 9144TIP3   OH248922   0.437   0.382   5.365 -0.5056  0.1299  0.1103
 9144TIP3    H148923   0.392   0.462   5.394  0.2428  1.0652 -1.2738
 9144TIP3    H248924   0.470   0.403   5.278  0.8677 -1.2459  0.2791
 9145TIP3   OH248925   2.730   3.074  14.778 -0.0480  0.6762  0.0411
 9145TIP3    H148926   2.705   3.066  14.870 -1.5262  1.2833 -0.2983
 9145TIP3    H248927   2.819   3.040  14.774 -0.6543 -1.1153  1.3646
 9146TIP3   OH248928   1.524   3.021   0.782 -0.2568 -0.3779  0.4863
 9146TIP3    H148929   1.434   3.021   0.814 -0.5435  1.3727 -0.2553
 9146TIP3    H248930   1.576   3.048   0.858 -0.2642 -1.9459  1.0785
 9147TIP3   OH248931   3.156   5.568   1.665 -0.0005  0.5785 -0.2973
 9147TIP3    H148932   3.070   5.607   1.650  0.7364  1.8279 -1.3863
 9147TIP3    H248933   3.141   5.474   1.664 -1.2312  0.7800 -1.2250
 9148TIP3   OH248934   1.276   2.565  15.114  0.1828 -0.0768  0.3087
 9148TIP3    H148935   1.211   2.497  15.097 -1.1471  0.9862  1.1112
 9148TIP3    H248936   1.271   2.581  15.208  0.2023  1.4230  0.0666
 9149TIP3   OH248937   0.642   0.180  14.531 -0.5097  0.4811  0.3421
 9149TIP3    H148938   0.557   0.218  14.555 -0.6771 -0.7528  1.7932
 9149TIP3    H248939   0.706   0.232  14.580 -0.7122 -0.7873  2.0246
 9150TIP3   OH248940   3.742   4.155   3.258 -0.0185 -0.1003 -0.5630
 9150TIP3    H148941   3.715   4.189   3.344 -0.0249 -2.4326  0.3989
 9150TIP3    H248942   3.670   4.177   3.200 -2.7829 -3.6814  1.3469
 9151TIP3   OH248943   3.922   2.879  12.850  0.2506 -0.2052 -0.2667
 9151TIP3    H148944   3.908   2.881  12.945 -0.9597 -0.1555 -0.4458
 9151TIP3    H248945   4.004   2.928  12.838  0.0977  0.3178  0.6997
 9152TIP3   OH248946   3.792   6.709  13.157  0.1107 -0.4741  0.6415
 9152TIP3    H148947   3.887   6.695  13.157  0.1240 -0.4874  1.8577
 9152TIP3    H248948   3.764   6.678  13.243 -0.8164  0.7521  0.7967
 9153TIP3   OH248949   6.445   1.900  14.826  0.0795  0.1638 -0.4707
 9153TIP3    H148950   6.404   1.813  14.831  0.4279 -0.1698 -2.7340
 9153TIP3    H248951   6.378   1.960  14.856  0.2693 -0.9923  2.3715
 9154TIP3   OH248952   0.886   6.756   6.331 -0.1726 -0.1605  0.1447
 9154TIP3    H148953   0.820   6.825   6.320 -0.6439 -0.7157 -0.4914
 9154TIP3    H248954   0.935   6.783   6.409 -0.0017  1.1862 -0.4099
 9155TIP3   OH248955   4.474   3.901  15.692 -0.2209  0.2499 -0.4013
 9155TIP3    H148956   4.519   3.848  15.627 -0.3996  1.6420 -1.6891
 9155TIP3    H248957   4.385   3.911  15.659 -0.5077  0.3740  0.4002
 9156TIP3   OH248958   4.081   1.620  15.713  0.0279 -0.0102  0.2787
 9156TIP3    H148959   4.034   1.548  15.671 -1.1523  0.9502 -0.0690
 9156TIP3    H248960   4.173   1.604  15.691 -0.2048 -1.4440  0.2671
 9157TIP3   OH248961   5.567   6.308  12.270 -0.5102 -0.6628  0.0349
 9157TIP3    H148962   5.647   6.319  12.321 -0.5859 -0.0719  0.0264
 9157TIP3    H248963   5.510   6.257  12.328 -0.1497 -1.0369  0.0636
 9158TIP3   OH248964   1.126   1.276  15.613  1.0863 -0.5506  0.2065
 9158TIP3    H148965   1.070   1.224  15.556  1.3236 -0.2143 -0.3374
 9158TIP3    H248966   1.088   1.265  15.701  0.4371 -0.6869 -0.0907
 9159TIP3   OH248967   5.142   0.669  11.587  0.2417 -0.4911 -0.0191
 9159TIP3    H148968   5.226   0.628  11.567  1.3673  1.9412 -0.3799
 9159TIP3    H248969   5.146   0.755  11.546 -2.5407 -0.4289 -0.2547
 9160TIP3   OH248970   0.436   3.160   1.025  0.6440  0.2609 -0.0595
 9160TIP3    H148971   0.484   3.105   0.964  2.2535  2.0720 -0.5034
 9160TIP3    H248972   0.492   3.164   1.103 -1.2054 -1.7061  1.3867
 9161TIP3   OH248973   6.245   2.978   0.428  0.7480 -0.5137  0.3942
 9161TIP3    H148974   6.326   2.928   0.412  2.0162  1.5756  0.0460
 9161TIP3    H248975   6.177   2.930   0.381  2.3671 -0.6461 -1.8819
 9162TIP3   OH248976   4.953   4.956   2.671  0.5390 -0.0430 -0.7443
 9162TIP3    H148977   4.995   4.913   2.745  1.2946 -0.7750 -1.5874
 9162TIP3    H248978   4.988   5.046   2.673  0.0909  0.1199  0.1316
 9163TIP3   OH248979   0.147   2.334  14.149  0.2503  0.1924 -0.6076
 9163TIP3    H148980   0.068   2.280  14.149  0.2082  0.2101 -2.9832
 9163TIP3    H248981   0.117   2.421  14.126  0.9594  0.2049 -1.4981
 9164TIP3   OH248982   0.431   0.118  13.264  0.5763  0.0791 -0.3549
 9164TIP3    H148983   0.418   0.186  13.198 -0.0581 -0.4932 -0.8188
 9164TIP3    H248984   0.344   0.081  13.279  0.1046  2.3746  3.1820
 9165TIP3   OH248985   1.991   1.379  10.618  0.0551 -0.2009  0.4954
 9165TIP3    H148986   1.940   1.340  10.547  0.8643 -1.5518  0.6492
 9165TIP3    H248987   1.997   1.311  10.684 -1.1208  1.2160  2.1139
 9166TIP3   OH248988   4.175   4.854  14.787 -0.7158  0.1176  0.0928
 9166TIP3    H148989   4.246   4.911  14.816 -0.8054  0.2383  0.0775
 9166TIP3    H248990   4.095   4.903  14.811 -0.7895  0.6207 -1.1559
 9167TIP3   OH248991   1.269   6.498  16.133  0.0941 -0.5677  0.1119
 9167TIP3    H148992   1.242   6.445  16.207 -0.4772 -0.6270 -0.1350
 9167TIP3    H248993   1.313   6.436  16.074  0.4127 -0.5488  0.3258
 9168TIP3   OH248994   3.435   1.341  15.888 -0.2417  0.2476 -0.3303
 9168TIP3    H148995   3.456   1.406  15.954 -2.5508 -0.4592  1.1569
 9168TIP3    H248996   3.433   1.390  15.805  1.4328  1.3661  0.2787
 9169TIP3   OH248997   3.941   4.266  16.032 -0.3256  0.7069 -0.3938
 9169TIP3    H148998   4.022   4.262  16.081  0.2958  0.7535 -1.3926
 9169TIP3    H248999   3.923   4.176  16.006 -0.9212  0.6121  0.3515
 9170TIP3   OH249000   2.490   2.063   3.559  0.1393  0.1367  0.7880
 9170TIP3    H149001   2.507   2.004   3.633  2.4034 -0.1873  0.0593
 9170TIP3    H249002   2.537   2.023   3.486  1.1699  2.5105  0.1099
 9171TIP3   OH249003   3.216   4.285   5.513 -0.1470  0.4438 -0.1703
 9171TIP3    H149004   3.136   4.291   5.566 -0.1859  1.5588 -0.3602
 9171TIP3    H249005   3.214   4.196   5.478 -0.9690  0.2444  0.3644
 9172TIP3   OH249006   0.989   1.824  17.176  0.1828  0.3007  0.5807
 9172TIP3    H149007   1.049   1.891  17.209  1.8649 -1.1652  0.6035
 9172TIP3    H249008   1.039   1.742  17.183 -0.6360 -0.5158 -2.4108
 9173TIP3   OH249009   6.509   0.259  14.802 -0.0499 -0.1499 -0.0922
 9173TIP3    H149010   6.557   0.304  14.732  1.1313 -1.2264  0.0184
 9173TIP3    H249011   6.455   0.328  14.842 -0.6957  0.4953 -2.0170
 9174TIP3   OH249012   4.642   6.579   1.125  0.6192  0.1283 -0.3535
 9174TIP3    H149013   4.705   6.513   1.152  0.1524 -0.5918 -1.0104
 9174TIP3    H249014   4.671   6.606   1.037  0.3325  0.1886 -0.4313
 9175TIP3   OH249015   5.731   6.265  11.907  0.2138  0.1479 -0.3753
 9175TIP3    H149016   5.798   6.204  11.876  1.6004  0.1245  2.5180
 9175TIP3    H249017   5.658   6.209  11.934  0.6151 -0.0781  0.2300
 9176TIP3   OH249018   2.289   2.724   1.094  0.1437 -0.4730 -0.3930
 9176TIP3    H149019   2.289   2.699   1.186 -0.9290  1.6575  0.2238
 9176TIP3    H249020   2.208   2.687   1.059 -1.0951  1.4290  0.3521
 9177TIP3   OH249021   4.500   5.272   2.241  0.0677  0.4227 -0.2875
 9177TIP3    H149022   4.579   5.308   2.201  0.5789  0.2744  0.6027
 9177TIP3    H249023   4.473   5.202   2.181  0.9592  0.0601 -0.2766
 9178TIP3   OH249024   1.961   0.244   3.072 -0.4835 -0.1294  0.4854
 9178TIP3    H149025   2.005   0.265   3.154 -0.3732 -0.1476  0.4318
 9178TIP3    H249026   1.890   0.185   3.098  0.0714 -0.8093  0.4705
 9179TIP3   OH249027   3.258   1.113  14.053 -0.3408  0.4643 -0.0428
 9179TIP3    H149028   3.255   1.139  13.961 -2.2342  2.9599  0.6890
 9179TIP3    H249029   3.253   1.017  14.050  1.3224  0.4041 -2.5763
 9180TIP3   OH249030   3.788   0.877  12.544 -0.0253 -0.1558  0.2211
 9180TIP3    H149031   3.761   0.797  12.498 -1.4708 -1.4389  3.1879
 9180TIP3    H249032   3.847   0.846  12.613  2.4262  1.7788 -0.9313
 9181TIP3   OH249033   0.716   5.017  15.164 -0.1663  0.0915  0.1733
 9181TIP3    H149034   0.702   5.097  15.114 -1.7214 -0.0737  0.3109
 9181TIP3    H249035   0.670   4.949  15.113 -1.4769 -0.1389  1.6413
 9182TIP3   OH249036   4.244   4.490   0.221  0.1171  0.4123 -0.7381
 9182TIP3    H149037   4.279   4.463   0.137 -2.1026 -0.1109 -1.5416
 9182TIP3    H249038   4.163   4.536   0.199 -0.2330  0.7156  1.0823
 9183TIP3   OH249039   6.383   3.593   4.910 -0.4283  0.6558 -0.2417
 9183TIP3    H149040   6.349   3.554   4.991 -0.0779 -0.3971 -0.6031
 9183TIP3    H249041   6.469   3.553   4.898 -0.3199  1.0902 -0.9438
 9184TIP3   OH249042   1.372   2.449   2.878 -0.5581 -0.1665 -0.2448
 9184TIP3    H149043   1.415   2.411   2.954  0.2531 -1.5881 -1.3811
 9184TIP3    H249044   1.443   2.493   2.830 -0.7450 -0.7070 -1.0307
 9185TIP3   OH249045   3.857   1.906  13.876  0.1434  0.1113  0.2789
 9185TIP3    H149046   3.906   1.826  13.857 -0.6312 -0.1655 -0.6345
 9185TIP3    H249047   3.923   1.976  13.876  0.7627 -0.4712  0.6693
 9186TIP3   OH249048   0.437   2.291  12.800 -0.4067  0.4589  0.1501
 9186TIP3    H149049   0.503   2.359  12.812  0.5252 -0.6611  1.6039
 9186TIP3    H249050   0.473   2.233  12.733  0.0707 -0.1138  0.8939
 9187TIP3   OH249051   3.941   1.828  12.022  0.4151  0.5620  0.1235
 9187TIP3    H149052   3.891   1.910  12.027 -0.6094 -0.0364 -0.0275
 9187TIP3    H249053   3.945   1.809  11.928  0.2098  0.1804  0.1909
 9188TIP3   OH249054   1.019   3.463  10.882  0.0755 -0.0986 -0.5706
 9188TIP3    H149055   1.108   3.438  10.905 -0.3724 -1.5408 -0.3467
 9188TIP3    H249056   0.968   3.382  10.891 -0.9311  0.2924 -2.4010
 9189TIP3   OH249057   4.813   5.373  11.710 -0.5925  0.7092  0.1004
 9189TIP3    H149058   4.761   5.447  11.679 -0.1101  0.5708 -1.0579
 9189TIP3    H249059   4.846   5.331  11.630 -1.7396 -1.3967  0.6997
 9190TIP3   OH249060   4.641   4.474  13.747 -0.6207  0.4763 -0.2493
 9190TIP3    H149061   4.701   4.400  13.736  0.3222  1.3633 -1.1845
 9190TIP3    H249062   4.569   4.439  13.800 -0.7974 -1.4271 -1.7098
 9191TIP3   OH249063   5.283   1.275  14.245 -0.6400 -0.2072  0.0226
 9191TIP3    H149064   5.249   1.195  14.285  0.0728  0.4408  1.9757
 9191TIP3    H249065   5.206   1.318  14.207 -0.9931 -1.9069 -1.2349
 9192TIP3   OH249066   5.049   1.198   1.185  0.0841  0.1505  0.0103
 9192TIP3    H149067   4.963   1.226   1.217  0.5170  1.0094  0.4375
 9192TIP3    H249068   5.045   1.103   1.186 -0.8637  0.1886  0.0456
 9193TIP3   OH249069   1.518   2.042   3.972 -0.4682  0.1437 -0.3990
 9193TIP3    H149070   1.557   2.009   3.891  3.0174  0.5381  1.0214
 9193TIP3    H249071   1.554   2.130   3.982 -3.1366  1.2067  0.1145
 9194TIP3   OH249072   5.797   3.396   1.278  0.1008  0.4611 -0.3090
 9194TIP3    H149073   5.755   3.410   1.363  0.0439  1.0869 -0.4391
 9194TIP3    H249074   5.784   3.302   1.261  0.9130  0.1375  0.7906
 9195TIP3   OH249075   6.063   4.672   3.230 -0.2679  0.3723  0.0222
 9195TIP3    H149076   5.991   4.668   3.294  0.1183  0.8277  0.4932
 9195TIP3    H249077   6.020   4.662   3.145 -1.2551  3.2616  0.1027
 9196TIP3   OH249078   2.805   3.115   1.567  0.0888 -0.9161 -0.2446
 9196TIP3    H149079   2.849   3.040   1.608 -0.5158 -1.6631 -0.9403
 9196TIP3    H249080   2.759   3.077   1.493 -0.6052  0.0861 -0.3276
 9197TIP3   OH249081   2.023   1.601   3.809 -0.1142  0.1723 -0.1288
 9197TIP3    H149082   1.960   1.669   3.834  0.5718  1.3271 -1.4873
 9197TIP3    H249083   1.975   1.545   3.748 -0.5553 -0.3312  0.6770
 9198TIP3   OH249084   6.453   2.079  15.176  0.0919  0.1307  0.6074
 9198TIP3    H149085   6.365   2.046  15.193  0.1366 -0.1898  0.2322
 9198TIP3    H249086   6.497   2.007  15.131 -0.2063  1.1480 -1.3879
 9199TIP3   OH249087   1.248   4.687  12.279  0.4295  0.0008  0.2650
 9199TIP3    H149088   1.319   4.737  12.238  0.8086 -0.4221  0.4002
 9199TIP3    H249089   1.230   4.734  12.361 -0.2366  0.7693 -0.3150
 9200TIP3   OH249090   1.298   0.139  15.446 -0.3231 -0.3971  0.6655
 9200TIP3    H149091   1.271   0.216  15.396  0.0692 -0.1144  0.8872
 9200TIP3    H249092   1.257   0.066  15.400 -0.0220 -0.1339 -0.0387
 9201TIP3   OH249093   4.178   2.608  11.580  0.3058 -0.3583 -0.9600
 9201TIP3    H149094   4.174   2.517  11.550  1.3534 -0.5278 -0.6069
 9201TIP3    H249095   4.144   2.605  11.670  1.6247 -0.6406 -0.4545
 9202TIP3   OH249096   5.993   0.640  13.131 -0.1060  0.0734 -0.1344
 9202TIP3    H149097   5.970   0.674  13.045 -1.0063 -1.1739 -0.3884
 9202TIP3    H249098   5.947   0.557  13.138 -0.0887  0.1860  1.5777
 9203TIP3   OH249099   0.666   5.388  17.132  0.7582 -0.6015 -0.0442
 9203TIP3    H149100   0.753   5.427  17.122  0.8687 -1.2397 -1.6996
 9203TIP3    H249101   0.672   5.337  17.212  1.8820 -0.5640 -0.1049
 9204TIP3   OH249102   1.470   3.608  12.006 -0.1072  0.1824  0.1135
 9204TIP3    H149103   1.511   3.688  11.973 -1.3892  0.6202 -0.4515
 9204TIP3    H249104   1.526   3.579  12.077  0.1766  1.7878  0.5510
 9205TIP3   OH249105   2.666   2.327   0.686 -0.0743  0.5206 -0.2909
 9205TIP3    H149106   2.737   2.295   0.630  0.4206  1.4789 -0.2140
 9205TIP3    H249107   2.671   2.272   0.764 -0.4511 -0.4918 -0.9633
 9206TIP3   OH249108   0.725   5.279  16.287 -0.1935  0.4514  0.1208
 9206TIP3    H149109   0.720   5.219  16.361 -0.3108  0.7040  0.3198
 9206TIP3    H249110   0.814   5.269  16.253  0.0516  0.7617  0.6581
 9207TIP3   OH249111   0.524   5.013  14.178  0.4902  0.1328 -0.0230
 9207TIP3    H149112   0.580   5.071  14.229  1.4214  0.5162 -1.4389
 9207TIP3    H249113   0.578   4.935  14.162 -1.1329 -1.6386  2.8052
 9208TIP3   OH249114   0.743   0.582  12.070  0.3333  0.4894 -0.0343
 9208TIP3    H149115   0.682   0.583  11.996  1.0618 -1.2354 -0.6787
 9208TIP3    H249116   0.716   0.656  12.124 -0.9496  1.0656 -1.4243
 9209TIP3   OH249117   5.646   2.242   4.765 -0.8280 -0.0575 -0.2379
 9209TIP3    H149118   5.571   2.227   4.708 -0.5515  1.1976 -0.9484
 9209TIP3    H249119   5.660   2.336   4.762  0.0372 -0.1361  0.8423
 9210TIP3   OH249120   2.686   2.328  12.735  0.0770 -0.4760 -0.3342
 9210TIP3    H149121   2.746   2.396  12.703  0.2500  0.6140  2.2365
 9210TIP3    H249122   2.743   2.255  12.759  0.0377 -0.8648 -1.3832
 9211TIP3   OH249123   0.965   0.723   0.438  0.5609 -0.2398 -0.3634
 9211TIP3    H149124   0.978   0.628   0.436  1.4818 -0.1229  0.0077
 9211TIP3    H249125   0.870   0.734   0.429  0.0963 -1.3320  2.7179
 9212TIP3   OH249126   6.261   2.677   3.397 -0.1623  0.6812 -0.4430
 9212TIP3    H149127   6.181   2.631   3.372 -0.7566  1.0765  0.7144
 9212TIP3    H249128   6.325   2.651   3.330 -1.1831  0.1786 -1.2391
 9213TIP3   OH249129   1.698   5.914   5.485 -0.1250 -0.4873 -0.0089
 9213TIP3    H149130   1.720   5.861   5.408  1.4497  0.9764 -0.6008
 9213TIP3    H249131   1.604   5.929   5.479 -0.0949 -0.8435 -1.3600
 9214TIP3   OH249132   6.551   4.114  11.774  0.3299  0.2903 -0.7340
 9214TIP3    H149133   6.574   4.206  11.789  0.3489  0.2188 -0.3177
 9214TIP3    H249134   6.456   4.111  11.789  0.2787  0.3023 -1.0522
 9215TIP3   OH249135   1.523   4.434   5.006  0.1777 -0.1640 -0.3110
 9215TIP3    H149136   1.495   4.426   5.097  1.4521 -0.9382  0.0236
 9215TIP3    H249137   1.442   4.446   4.957 -0.6144 -0.9408  0.7897
 9216TIP3   OH249138   2.708   6.737  11.650  0.3327 -0.4768  0.2617
 9216TIP3    H149139   2.650   6.808  11.676 -0.0192 -0.5189 -0.4136
 9216TIP3    H249140   2.651   6.661  11.640  0.7412 -0.9167  1.2056
 9217TIP3   OH249141   6.241   0.304  13.862  0.0142  0.5997 -0.3174
 9217TIP3    H149142   6.334   0.291  13.882 -0.0624  1.2141  0.4660
 9217TIP3    H249143   6.214   0.222  13.821  0.3828 -0.4104  1.3822
 9218TIP3   OH249144   2.651   2.729   1.393 -0.3907 -0.2388 -0.0135
 9218TIP3    H149145   2.692   2.731   1.307 -1.3251 -0.2416 -0.4600
 9218TIP3    H249146   2.592   2.804   1.394 -0.4250 -0.2671  0.6078
 9219TIP3   OH249147   1.195   2.450   5.831 -0.1805 -0.3748  0.3292
 9219TIP3    H149148   1.279   2.412   5.857 -0.4845 -2.6697 -1.8673
 9219TIP3    H249149   1.211   2.486   5.744 -0.8565  1.4549  0.9266
 9220TIP3   OH249150   5.214   3.357   4.017 -0.0281 -0.9692  0.1917
 9220TIP3    H149151   5.136   3.333   3.967 -1.3405  1.5087  0.9982
 9220TIP3    H249152   5.226   3.450   4.000  1.6813 -0.9188  1.5572
 9221TIP3   OH249153   5.289   3.340  11.952 -0.3147 -0.3043  0.5399
 9221TIP3    H149154   5.364   3.386  11.990 -0.4492  0.6458 -0.3241
 9221TIP3    H249155   5.322   3.253  11.932  1.1333  0.6712 -1.5641
 9222TIP3   OH249156   5.656   5.569  10.521 -0.1674 -0.2109  0.1785
 9222TIP3    H149157   5.590   5.513  10.482  0.1816 -0.0551 -0.6516
 9222TIP3    H249158   5.661   5.541  10.613  0.8581 -2.3693 -0.4900
 9223TIP3   OH249159   2.062   1.273   2.522  0.1846 -0.1236 -0.3957
 9223TIP3    H149160   2.101   1.277   2.435 -1.7067 -0.3011 -1.2815
 9223TIP3    H249161   1.986   1.216   2.512  1.0106 -1.6953  1.8168
 9224TIP3   OH249162   1.232   6.182  13.679 -0.4902 -0.8435  0.0624
 9224TIP3    H149163   1.322   6.170  13.707 -0.6531  0.2661  1.1178
 9224TIP3    H249164   1.233   6.265  13.631 -0.7486 -1.3684 -0.8721
 9225TIP3   OH249165   0.708   0.866   5.385  0.6147 -0.3517  0.2130
 9225TIP3    H149166   0.716   0.796   5.320  2.1580  0.4070 -0.4481
 9225TIP3    H249167   0.798   0.884   5.412  0.0137 -0.4054  2.3095
 9226TIP3   OH249168   2.787   6.236   4.136 -0.2766  0.7931 -0.2984
 9226TIP3    H149169   2.747   6.290   4.204  1.0810  1.0074  0.3416
 9226TIP3    H249170   2.876   6.221   4.166 -0.3975 -1.1643 -0.8429
 9227TIP3   OH249171   1.214   6.525   1.719 -0.4500 -0.5382 -0.1781
 9227TIP3    H149172   1.237   6.499   1.629  1.0334 -0.2735  0.1105
 9227TIP3    H249173   1.293   6.508   1.770 -1.8329 -2.2813  1.4403
 9228TIP3   OH249174   2.496   3.405  14.882  0.2509  0.0219 -0.2795
 9228TIP3    H149175   2.563   3.352  14.926  0.1108  0.1889  0.1297
 9228TIP3    H249176   2.423   3.408  14.943 -0.5829 -1.1136 -1.1892
 9229TIP3   OH249177   1.584   0.273  16.082  0.5146  0.0634 -0.0490
 9229TIP3    H149178   1.542   0.220  16.150 -1.1171  1.5359  0.1222
 9229TIP3    H249179   1.676   0.248  16.086  0.2242 -0.7976  1.8365
 9230TIP3   OH249180   2.355   2.971  12.854  0.3731 -0.0810  0.0875
 9230TIP3    H149181   2.390   2.943  12.939  2.6893  0.2382 -0.7141
 9230TIP3    H249182   2.336   3.064  12.866 -1.7682 -0.5905  0.9897
 9231TIP3   OH249183   3.085   0.844   0.248 -0.1203  0.6142 -0.1768
 9231TIP3    H149184   3.173   0.817   0.223 -0.1239  1.0823 -0.7001
 9231TIP3    H249185   3.030   0.814   0.176 -0.1708  1.7272 -0.6041
 9232TIP3   OH249186   2.694   0.852  16.126  0.1491  0.0449 -0.0395
 9232TIP3    H149187   2.767   0.854  16.188 -0.5032  2.1707  0.7117
 9232TIP3    H249188   2.629   0.796  16.167  1.6410 -2.5310 -1.0870
 9233TIP3   OH249189   1.557   2.846  14.106 -0.1393 -0.3415  0.2650
 9233TIP3    H149190   1.544   2.815  14.195 -0.3286 -0.4756  0.1902
 9233TIP3    H249191   1.652   2.855  14.098 -0.2696  2.3497  1.3769
 9234TIP3   OH249192   6.117   2.178  12.712  0.0553  0.0827  0.1676
 9234TIP3    H149193   6.069   2.096  12.705  0.1560  0.0302  0.0792
 9234TIP3    H249194   6.053   2.242  12.744 -0.1858  0.1213 -0.3927
 9235TIP3   OH249195   0.729   0.028  14.858  0.5198  0.2211  0.1974
 9235TIP3    H149196   0.727  -0.039  14.926 -1.8135 -0.4536 -0.5037
 9235TIP3    H249197   0.681  -0.011  14.785  0.4847  2.0640 -0.7749
 9236TIP3   OH249198   0.215   1.381  15.421 -0.4389 -0.0723  0.0232
 9236TIP3    H149199   0.197   1.298  15.466 -0.8762  0.0398  0.0561
 9236TIP3    H249200   0.212   1.447  15.489  2.0142 -0.2654  0.3635
 9237TIP3   OH249201   0.923   5.890   2.053 -0.2183  0.4201  0.1504
 9237TIP3    H149202   0.860   5.857   1.990  0.2385 -0.4494  0.1371
 9237TIP3    H249203   1.005   5.896   2.004  0.0447  0.1195  0.5483
 9238TIP3   OH249204   1.147   1.523   5.803  0.0589  0.3876 -0.3458
 9238TIP3    H149205   1.156   1.480   5.718  0.6131  1.3700 -0.7999
 9238TIP3    H249206   1.233   1.560   5.820  0.4737 -1.4074  1.5431
 9239TIP3   OH249207   6.557   0.647  13.894 -0.5996  0.1214  0.0422
 9239TIP3    H149208   6.539   0.740  13.900 -0.9610  0.1579 -1.3883
 9239TIP3    H249209   6.488   0.613  13.838 -0.9280 -1.1490  1.1708
 9240TIP3   OH249210   1.732   5.621   5.282 -0.0599  0.2034  0.4047
 9240TIP3    H149211   1.708   5.578   5.364 -1.1432 -1.8569 -0.9705
 9240TIP3    H249212   1.820   5.588   5.263 -0.3679 -0.3898  0.0172
 9241TIP3   OH249213   6.516   6.777  13.619  0.3171 -0.0742  0.3374
 9241TIP3    H149214   6.565   6.857  13.639 -0.6894  0.7697 -0.5341
 9241TIP3    H249215   6.469   6.797  13.538 -0.7210 -1.2006  0.6540
 9242TIP3   OH249216   1.848   2.793   5.061  0.2225 -0.1960 -0.1339
 9242TIP3    H149217   1.763   2.749   5.052 -1.6124  3.5215 -1.9667
 9242TIP3    H249218   1.907   2.744   5.004 -0.8889 -2.2764  0.4581
 9243TIP3   OH249219   6.343   1.031   0.964 -0.1137 -0.3859 -0.2417
 9243TIP3    H149220   6.357   1.126   0.970 -1.5378 -0.2550  1.3701
 9243TIP3    H249221   6.397   0.994   1.033  0.2475 -0.7319 -0.7060
 9244TIP3   OH249222   3.987   1.715   0.226  0.5883  0.3562  0.3308
 9244TIP3    H149223   4.081   1.733   0.230  0.8154 -0.9485  1.2851
 9244TIP3    H249224   3.950   1.762   0.300  0.6746 -0.1470  0.6978
 9245TIP3   OH249225   3.613   6.003  14.698  0.1386 -0.3987 -0.8105
 9245TIP3    H149226   3.555   5.973  14.628  1.3697 -1.3754 -1.4471
 9245TIP3    H249227   3.683   5.938  14.699  1.6173  1.1651 -0.5749
 9246TIP3   OH249228   1.324   6.267  14.218 -0.9291 -0.3704  0.1282
 9246TIP3    H149229   1.392   6.307  14.164 -0.4519 -1.0427  0.2237
 9246TIP3    H249230   1.370   6.241  14.299 -1.5706  0.3504  0.7302
 9247TIP3   OH249231   2.617   4.981  11.153  0.2066 -0.2403  0.1160
 9247TIP3    H149232   2.690   4.956  11.210 -0.4472 -0.3886  0.8868
 9247TIP3    H249233   2.606   5.074  11.168 -1.3042 -0.6756  1.7736
 9248TIP3   OH249234   1.934   4.761   2.788 -0.4523  0.2695  0.3236
 9248TIP3    H149235   2.006   4.811   2.826 -0.9599  0.1337  1.4585
 9248TIP3    H249236   1.907   4.700   2.857 -0.6542 -0.7304 -0.6209
 9249TIP3   OH249237   4.615   4.662   3.138 -0.0886  0.7038 -0.0140
 9249TIP3    H149238   4.539   4.604   3.144  0.9506 -0.5702  1.6737
 9249TIP3    H249239   4.580   4.750   3.150 -1.3829  0.1800  0.1282
 9250TIP3   OH249240   3.467   2.862  13.300 -0.5365 -0.4743  0.4422
 9250TIP3    H149241   3.506   2.816  13.374  0.2103  1.4242  1.2455
 9250TIP3    H249242   3.394   2.912  13.338 -1.0058 -0.5622 -0.3300
 9251TIP3   OH249243   2.081   0.847  12.418  0.1405 -0.0140  0.0438
 9251TIP3    H149244   2.055   0.909  12.350 -3.7419  0.0748  1.4995
 9251TIP3    H249245   2.085   0.899  12.497  1.3584 -0.7603  0.4816
 9252TIP3   OH249246   4.521   1.359   4.902  0.1728  0.0740 -0.2303
 9252TIP3    H149247   4.600   1.408   4.880  0.8561 -0.0185  1.8712
 9252TIP3    H249248   4.528   1.344   4.996 -2.0576 -0.4667 -0.1204
 9253TIP3   OH249249   0.526   3.943  14.035  0.7874  0.9531  0.0905
 9253TIP3    H149250   0.518   4.015  13.972 -0.1354 -0.3081 -1.2675
 9253TIP3    H249251   0.439   3.902  14.036  1.6791 -1.0158 -0.2487
 9254TIP3   OH249252   2.288   0.734  16.127  0.0054 -0.0075  0.4425
 9254TIP3    H149253   2.289   0.737  16.031 -2.0820  1.6890  0.4220
 9254TIP3    H249254   2.253   0.648  16.149  0.2498 -0.3022 -0.3286
 9255TIP3   OH249255   1.423   1.677   5.779  0.2490  0.8180 -0.1154
 9255TIP3    H149256   1.413   1.769   5.804  1.1311  1.0871 -0.7389
 9255TIP3    H249257   1.475   1.639   5.850  1.0591  1.1202 -0.5466
 9256TIP3   OH249258   4.880   3.492  15.545 -0.3233  0.8051  0.3652
 9256TIP3    H149259   4.827   3.567  15.516 -2.1615 -0.2870  0.8074
 9256TIP3    H249260   4.834   3.459  15.622  0.1219 -1.1839 -0.2156
 9257TIP3   OH249261   5.097   5.641  15.722 -0.6624  1.2001 -0.4064
 9257TIP3    H149262   5.054   5.654  15.638  1.4876 -0.8564 -1.9065
 9257TIP3    H249263   5.049   5.697  15.783 -4.4836  0.1013 -2.2472
 9258TIP3   OH249264   3.438   4.919  14.398 -0.2920 -0.5539  0.0079
 9258TIP3    H149265   3.363   4.918  14.458  0.3114  0.0340  0.7924
 9258TIP3    H249266   3.450   4.827  14.374 -0.4680 -0.8158  0.8952
 9259TIP3   OH249267   1.254   5.811   6.033 -0.2810 -0.3583 -0.2266
 9259TIP3    H149268   1.334   5.859   6.012  0.6977 -1.6264  0.5180
 9259TIP3    H249269   1.240   5.753   5.957  0.6063 -1.5363  0.4994
 9260TIP3   OH249270   6.506   4.660  13.749  0.2375 -0.0824  0.6064
 9260TIP3    H149271   6.446   4.706  13.808 -1.2578 -0.8259 -0.3179
 9260TIP3    H249272   6.529   4.725  13.682  0.8161  0.3331  1.2050
 9261TIP3   OH249273   2.684   2.020  16.833  0.4973  0.0466 -0.3151
 9261TIP3    H149274   2.682   1.926  16.850 -0.5938  0.2190  0.5577
 9261TIP3    H249275   2.739   2.029  16.755 -0.9973 -1.5026 -1.5900
 9262TIP3   OH249276   1.650   3.555  14.691  0.1674 -0.0125 -0.2303
 9262TIP3    H149277   1.744   3.548  14.674  0.1725  1.6060 -0.9910
 9262TIP3    H249278   1.641   3.537  14.784  0.9602 -2.3089 -0.5611
 9263TIP3   OH249279   4.748   2.471   0.334 -0.3075 -0.4414 -0.2269
 9263TIP3    H149280   4.796   2.404   0.286  1.5317  2.1833 -2.2760
 9263TIP3    H249281   4.791   2.553   0.308 -2.6087  1.5287  1.9750
 9264TIP3   OH249282   4.916   3.750   3.834  0.2132 -0.1654  0.0331
 9264TIP3    H149283   4.854   3.821   3.852  2.8649  2.1160  0.6821
 9264TIP3    H249284   4.935   3.713   3.921  0.9289  0.1852  0.0268
 9265TIP3   OH249285   4.849   2.862  14.506  0.4681  0.4579 -0.0284
 9265TIP3    H149286   4.797   2.856  14.425  2.2398 -0.9378 -1.1078
 9265TIP3    H249287   4.885   2.951  14.505  1.1452  0.1850 -1.2252
 9266TIP3   OH249288   6.756   5.211   1.238  0.0972  0.5279  0.5002
 9266TIP3    H149289   6.756   5.134   1.294  0.9405  0.1853  0.0342
 9266TIP3    H249290   6.847   5.239   1.235  0.0309  0.6480 -0.5587
 9267TIP3   OH249291   3.455   3.995   0.415 -0.7513  0.5162  0.4986
 9267TIP3    H149292   3.375   4.048   0.410 -1.7687 -1.0183  0.2402
 9267TIP3    H249293   3.439   3.933   0.486  1.2449  1.8286  2.1561
 9268TIP3   OH249294   5.559   4.906  14.323 -0.2184 -0.6259 -0.3047
 9268TIP3    H149295   5.537   4.839  14.387 -1.1231  0.4973  0.5817
 9268TIP3    H249296   5.654   4.897  14.311 -0.1762 -1.4061  0.5367
 9269TIP3   OH249297   3.092   6.323   4.273 -0.1655 -0.6508 -0.3363
 9269TIP3    H149298   3.176   6.311   4.230  0.5615 -3.0879  1.6894
 9269TIP3    H249299   3.099   6.409   4.315  0.5206  0.0520 -1.8526
 9270TIP3   OH249300   4.059   4.808  14.547 -0.0940 -0.6516  1.1006
 9270TIP3    H149301   4.077   4.714  14.545  1.1979 -0.4588  2.4966
 9270TIP3    H249302   4.116   4.841  14.617 -0.5047  1.1712  0.5810
 9271TIP3   OH249303   4.593   1.946  17.256  0.6249  0.0185 -0.7408
 9271TIP3    H149304   4.546   1.951  17.173  0.4965  1.1536 -0.6144
 9271TIP3    H249305   4.592   2.036  17.289  0.7388 -0.4072  0.4577
 9272TIP3   OH249306   1.567   1.616  16.313  0.1636  0.2483 -0.4988
 9272TIP3    H149307   1.541   1.543  16.369  1.2129  0.9459  0.9545
 9272TIP3    H249308   1.584   1.577  16.228  1.4720 -1.3304  0.4599
 9273TIP3   OH249309   5.744   2.609  10.598  0.5453 -0.3727  0.0687
 9273TIP3    H149310   5.741   2.660  10.679 -0.1944 -0.5792  0.1757
 9273TIP3    H249311   5.734   2.674  10.529  2.0627 -0.0869  0.0936
 9274TIP3   OH249312   2.743   1.715   3.885  0.1971  0.2997 -0.3760
 9274TIP3    H149313   2.724   1.773   3.959  0.1531 -0.2025  0.0106
 9274TIP3    H249314   2.806   1.652   3.920  0.2509  0.1229 -0.7962
 9275TIP3   OH249315   0.710   1.669   5.168 -0.5001 -0.5189 -0.0560
 9275TIP3    H149316   0.650   1.650   5.241 -0.1062 -1.0046  0.1452
 9275TIP3    H249317   0.728   1.762   5.176 -2.0926 -0.1285 -0.7686
 9276TIP3   OH249318   0.639   4.179  14.939  0.1745 -0.2443 -0.5444
 9276TIP3    H149319   0.697   4.121  14.989 -0.4934  0.5325  1.1573
 9276TIP3    H249320   0.551   4.152  14.965 -0.1676  4.1623  3.4565
 9277TIP3   OH249321   4.883   1.158  11.991  0.0918 -0.0524 -0.3676
 9277TIP3    H149322   4.868   1.088  12.055 -1.2833 -0.9702 -1.6462
 9277TIP3    H249323   4.970   1.139  11.955  0.8573  0.4539  1.1980
 9278TIP3   OH249324   0.094   2.043   1.385 -0.3521  0.1116  0.7127
 9278TIP3    H149325   0.076   2.110   1.319 -1.7353  0.2494  1.2067
 9278TIP3    H249326   0.127   2.092   1.460 -0.5616  0.1449  0.7821
 9279TIP3   OH249327   5.296   1.157  13.700 -0.0831  0.4116  0.0127
 9279TIP3    H149328   5.233   1.228  13.711 -0.2281  0.1394  0.9209
 9279TIP3    H249329   5.283   1.128  13.610 -1.4348  0.1824  0.2746
 9280TIP3   OH249330   2.930   2.786  14.264  0.0034 -0.1863 -0.6950
 9280TIP3    H149331   3.007   2.842  14.275  0.5786 -0.7921 -1.4855
 9280TIP3    H249332   2.946   2.742  14.180 -1.1313 -0.4416 -0.7776
 9281TIP3   OH249333   2.458   2.213  15.951 -0.3271 -0.0949 -0.2588
 9281TIP3    H149334   2.541   2.221  15.905 -0.6836 -0.4469 -0.9710
 9281TIP3    H249335   2.479   2.164  16.031  0.1294 -0.2454 -0.4737
 9282TIP3   OH249336   0.613   1.917  16.777  0.8729 -0.0101 -0.1897
 9282TIP3    H149337   0.593   2.009  16.760 -1.1500 -0.6055 -1.1333
 9282TIP3    H249338   0.700   1.905  16.738  2.1434  2.0314  1.8938
 9283TIP3   OH249339   2.040   1.495   1.724  0.2095  0.2019 -0.0742
 9283TIP3    H149340   2.052   1.582   1.764  0.8238 -0.2535  0.7572
 9283TIP3    H249341   2.077   1.504   1.636  0.5955  0.6903  0.1332
 9284TIP3   OH249342   0.892   4.032  15.495 -0.1983 -0.5604 -0.1963
 9284TIP3    H149343   0.939   4.115  15.507 -1.3610  0.1497 -0.5812
 9284TIP3    H249344   0.913   4.004  15.406  1.1617 -1.3073  0.3302
 9285TIP3   OH249345   4.420   2.152  16.013 -0.0621  0.2674 -0.0276
 9285TIP3    H149346   4.465   2.165  15.929  0.2539 -0.6061 -0.0027
 9285TIP3    H249347   4.483   2.104  16.067 -0.1560  1.0791  0.8129
 9286TIP3   OH249348   1.609   1.487  11.623  0.6818  0.0306 -0.1288
 9286TIP3    H149349   1.634   1.417  11.563  0.3392  0.2769 -0.5653
 9286TIP3    H249350   1.535   1.531  11.580  0.4984  0.2738  0.4252
 9287TIP3   OH249351   2.283   1.257  12.719 -0.3613 -0.1037 -0.2302
 9287TIP3    H149352   2.371   1.286  12.696 -0.0272 -1.1720 -0.3185
 9287TIP3    H249353   2.251   1.325  12.779  0.5947  0.1889 -0.0390
 9288TIP3   OH249354   0.684   6.767  10.815 -1.0760  0.1466 -0.6048
 9288TIP3    H149355   0.593   6.779  10.789 -1.5417 -1.0797  0.3415
 9288TIP3    H249356   0.691   6.673  10.835  0.1591  0.3827  0.1785
 9289TIP3   OH249357   6.271   6.394   4.606  0.3683  0.0574  0.6543
 9289TIP3    H149358   6.291   6.359   4.693 -1.9188  2.3251  2.1534
 9289TIP3    H249359   6.340   6.458   4.590  1.4757 -1.2101  0.2403
 9290TIP3   OH249360   6.384   5.710   5.710 -0.0697  0.1351  0.0296
 9290TIP3    H149361   6.312   5.671   5.759 -0.5568 -1.4299 -1.8906
 9290TIP3    H249362   6.342   5.762   5.641  0.6190 -0.5709 -0.9400
 9291TIP3   OH249363   4.230   5.819   3.031 -0.4809  0.1884  0.0086
 9291TIP3    H149364   4.299   5.761   2.998 -2.1284 -2.4607  1.0696
 9291TIP3    H249365   4.274   5.875   3.095  1.2656  0.5994 -1.5048
 9292TIP3   OH249366   1.260   0.054   2.494 -0.1978 -0.0243 -0.5330
 9292TIP3    H149367   1.354   0.068   2.484 -0.3077  0.0019 -1.5758
 9292TIP3    H249368   1.220   0.128   2.449 -0.7200  0.3406  0.5080
 9293TIP3   OH249369   2.366   6.706  15.208  0.0131 -0.0817 -0.1942
 9293TIP3    H149370   2.336   6.794  15.230  1.2492 -0.7050  4.6113
 9293TIP3    H249371   2.288   6.663  15.172 -0.6004  2.8985 -2.6161
 9294TIP3   OH249372   6.086   6.714   0.909  0.4099  0.3265 -0.1722
 9294TIP3    H149373   6.071   6.772   0.984 -0.3670 -1.1096  0.7941
 9294TIP3    H249374   6.167   6.667   0.930  0.0001 -0.3380 -0.0601
 9295TIP3   OH249375   3.228   2.627  14.593 -0.1852 -0.4169  0.4074
 9295TIP3    H149376   3.136   2.648  14.609 -0.2477 -0.8478  0.6280
 9295TIP3    H249377   3.255   2.687  14.523 -0.2622  0.6355  1.2653
 9296TIP3   OH249378   5.381   3.025  10.863  0.5712 -0.3485  0.1908
 9296TIP3    H149379   5.293   3.033  10.900  0.0769  0.0572 -1.0689
 9296TIP3    H249380   5.371   2.966  10.789  1.1417  0.6030 -0.6542
 9297TIP3   OH249381   4.337   4.946   5.811 -0.1856 -0.2479  0.3994
 9297TIP3    H149382   4.270   4.889   5.849  0.1083 -0.8327  0.0582
 9297TIP3    H249383   4.305   5.035   5.826 -0.3880 -0.4870  1.4316
 9298TIP3   OH249384   5.887   1.820   5.723 -0.5431  0.3860  0.2137
 9298TIP3    H149385   5.896   1.729   5.695  0.1389  0.8280 -1.0566
 9298TIP3    H249386   5.973   1.845   5.755  0.4226  1.7566 -3.1723
 9299TIP3   OH249387   2.714   1.293  14.531  0.0590  0.0668 -0.1657
 9299TIP3    H149388   2.787   1.332  14.483  0.4846  0.7833  1.0750
 9299TIP3    H249389   2.737   1.302  14.623 -1.9582  1.0448  0.2701
 9300TIP3   OH249390   3.292   4.129   2.849 -0.0743  0.3879 -0.5329
 9300TIP3    H149391   3.253   4.049   2.883 -0.9710  1.2481  0.4922
 9300TIP3    H249392   3.347   4.100   2.776  0.3601 -1.2642  0.4228
 9301TIP3   OH249393   3.661   0.609   3.302 -0.2949 -0.5391  0.2183
 9301TIP3    H149394   3.628   0.618   3.391  0.2204  1.7906  0.2271
 9301TIP3    H249395   3.683   0.517   3.293 -0.5887 -0.8502  2.4295
 9302TIP3   OH249396   3.722   3.623  10.618  0.3285  0.0088 -0.2532
 9302TIP3    H149397   3.726   3.528  10.605  0.4130  0.1487 -1.3616
 9302TIP3    H249398   3.629   3.644  10.621  0.2652 -0.5077  3.3597
 9303TIP3   OH249399   6.453   6.006   1.524  0.2656 -0.2936 -0.1110
 9303TIP3    H149400   6.413   5.952   1.455  0.9949  1.1951 -1.7350
 9303TIP3    H249401   6.488   5.942   1.586  0.5551 -1.7052 -1.6809
 9304TIP3   OH249402   2.298   5.851  14.347  0.0902 -0.3087 -0.4436
 9304TIP3    H149403   2.391   5.873  14.350 -0.2138  1.0541 -0.3903
 9304TIP3    H249404   2.265   5.901  14.272 -0.4236 -1.4780 -0.9990
 9305TIP3   OH249405   4.116   3.706   0.025  0.2634 -0.2518 -0.2887
 9305TIP3    H149406   4.146   3.788   0.063  0.6541 -0.0472 -1.0256
 9305TIP3    H249407   4.117   3.643   0.097  0.2169  0.3272  0.2129
 9306TIP3   OH249408   2.105   1.830  12.484  0.3429 -0.5284 -0.9347
 9306TIP3    H149409   2.075   1.776  12.410 -0.4307  1.1389 -1.8727
 9306TIP3    H249410   2.027   1.876  12.513  1.5558  2.5643 -2.2822
 9307TIP3   OH249411   3.291   5.564   0.273 -0.7815 -0.0949 -0.2745
 9307TIP3    H149412   3.206   5.523   0.285 -0.1692 -1.3002 -0.0314
 9307TIP3    H249413   3.313   5.550   0.181 -0.2767 -0.8952 -0.0371
 9308TIP3   OH249414   2.927   2.345  16.621  0.2293  0.4049  0.1208
 9308TIP3    H149415   2.946   2.393  16.540 -1.8177 -0.8314 -1.1305
 9308TIP3    H249416   2.885   2.409  16.678 -0.3098  0.7243 -0.6276
 9309TIP3   OH249417   1.106   3.447   0.570  0.3295  0.7099  0.5281
 9309TIP3    H149418   1.188   3.403   0.546  0.0932  1.4877 -1.7535
 9309TIP3    H249419   1.126   3.540   0.565 -0.4772  0.8975  0.7531
 9310TIP3   OH249420   3.478   4.060  15.642 -0.3383  0.4598 -0.5301
 9310TIP3    H149421   3.469   4.154  15.627 -1.8810  0.5164  0.5484
 9310TIP3    H249422   3.486   4.022  15.555  1.0846  1.6524 -0.9347
 9311TIP3   OH249423   5.486   0.604   2.169 -0.1289  0.2992  0.1917
 9311TIP3    H149424   5.467   0.686   2.214  0.4772  0.7735 -0.4059
 9311TIP3    H249425   5.452   0.536   2.227  3.9201  0.6483  3.1882
 9312TIP3   OH249426   4.765   5.860   4.685  0.3041  0.1332  0.2831
 9312TIP3    H149427   4.760   5.890   4.775  0.6272  0.0264  0.3372
 9312TIP3    H249428   4.738   5.768   4.689  2.4916 -0.5116  0.6129
 9313TIP3   OH249429   0.040   2.400   4.973 -0.5397  0.1938  0.0468
 9313TIP3    H149430  -0.036   2.457   4.987 -0.3775  0.2791  0.6095
 9313TIP3    H249431   0.052   2.356   5.058  0.9362  1.2663  0.4174
 9314TIP3   OH249432   4.853   1.133   1.718 -0.1010 -0.5390 -0.1856
 9314TIP3    H149433   4.886   1.178   1.640 -0.2410  0.6972  0.4578
 9314TIP3    H249434   4.889   1.044   1.712  0.8715 -0.0939 -1.0307
 9315TIP3   OH249435   1.820   4.754   0.586 -0.4937 -0.0735  0.1296
 9315TIP3    H149436   1.756   4.825   0.579  0.2334  0.5246 -0.7282
 9315TIP3    H249437   1.904   4.797   0.567 -0.1035 -1.2545 -0.9106
 9316TIP3   OH249438   1.372   6.816  15.101  0.0486  0.3058  0.3244
 9316TIP3    H149439   1.305   6.835  15.166  0.6086 -0.1924  1.0448
 9316TIP3    H249440   1.432   6.756  15.144  1.4128  1.3875 -0.0402
 9317TIP3   OH249441   0.480   0.298   3.731  0.1566 -0.0727 -0.0367
 9317TIP3    H149442   0.398   0.284   3.778  1.1518 -1.6878  1.2644
 9317TIP3    H249443   0.526   0.364   3.784  0.7069 -0.9165  0.5464
 9318TIP3   OH249444   0.233   3.841   3.450 -0.7376  0.2626 -0.1634
 9318TIP3    H149445   0.278   3.813   3.371 -1.1355 -0.5954 -0.0886
 9318TIP3    H249446   0.256   3.775   3.516 -0.5904  0.8439  0.3784
 9319TIP3   OH249447   1.444   2.866   6.304 -0.4264 -0.0720  0.2895
 9319TIP3    H149448   1.455   2.958   6.278 -0.8604 -0.4095 -1.1309
 9319TIP3    H249449   1.467   2.865   6.397 -0.5495  1.5030  0.3595
 9320TIP3   OH249450   6.686   2.086   3.676  0.6581 -0.1525 -0.3014
 9320TIP3    H149451   6.612   2.139   3.646 -0.1149 -1.0233  0.0623
 9320TIP3    H249452   6.748   2.089   3.602 -1.0444 -1.9087 -1.8559
 9321TIP3   OH249453   4.021   1.132   0.525 -0.0554  0.1980  0.1800
 9321TIP3    H149454   3.987   1.044   0.544  0.9613 -0.1175  0.5704
 9321TIP3    H249455   3.969   1.190   0.581 -1.1199 -0.0837 -0.4995
 9322TIP3   OH249456   5.299   4.905  14.152  0.2898  0.1609 -0.3887
 9322TIP3    H149457   5.390   4.934  14.153  0.4501 -0.2771 -1.6127
 9322TIP3    H249458   5.266   4.929  14.066 -0.9138  0.7683  0.2228
 9323TIP3   OH249459   0.715   0.453  13.828 -0.0472 -0.1640  1.2299
 9323TIP3    H149460   0.623   0.448  13.804 -0.1528 -0.9615  1.7898
 9323TIP3    H249461   0.762   0.447  13.745 -0.5278  1.3441  0.8503
 9324TIP3   OH249462   4.872   4.238  12.105  0.4740 -0.5334 -0.0785
 9324TIP3    H149463   4.905   4.297  12.173  1.1529  0.8847 -1.6015
 9324TIP3    H249464   4.824   4.295  12.046 -0.0276 -1.7404 -0.8457
 9325TIP3   OH249465   3.467   1.682  10.846  0.0931  0.2545 -0.1830
 9325TIP3    H149466   3.430   1.598  10.871  0.6742  0.3795  1.1037
 9325TIP3    H249467   3.560   1.665  10.832 -0.2624  0.1106 -2.6421
 9326TIP3   OH249468   2.904   2.430  12.392  0.0481 -0.0015 -0.0700
 9326TIP3    H149469   2.879   2.464  12.478  0.2927 -0.8805  0.3654
 9326TIP3    H249470   2.928   2.507  12.341  0.5799  0.4732  0.8767
 9327TIP3   OH249471   6.699   5.003   1.413  0.3308  0.6107 -0.1230
 9327TIP3    H149472   6.731   4.948   1.485  3.5288  0.4932 -1.5204
 9327TIP3    H249473   6.706   4.948   1.335  0.4564  1.9247 -1.0574
 9328TIP3   OH249474   0.090   1.267  17.153  0.1983  0.2991 -0.0979
 9328TIP3    H149475   0.026   1.335  17.174 -0.6473 -0.3487 -0.5061
 9328TIP3    H249476   0.166   1.314  17.119  0.0754  1.1014  0.7373
 9329TIP3   OH249477   5.661   6.354  12.834 -0.0055  0.1521 -0.2119
 9329TIP3    H149478   5.579   6.333  12.789  0.2012  1.1247 -1.0520
 9329TIP3    H249479   5.714   6.400  12.769  0.9311  0.1682  0.5399
 9330TIP3   OH249480   0.396   1.893  11.576  0.4887  0.3038  0.5071
 9330TIP3    H149481   0.479   1.869  11.617  1.1552  2.7350  0.6523
 9330TIP3    H249482   0.365   1.968  11.626 -1.5096 -0.2022  0.0653
 9331TIP3   OH249483   2.461   3.015   0.494 -0.4593  0.2287 -0.1665
 9331TIP3    H149484   2.389   2.956   0.473  0.7726 -1.8776  1.3449
 9331TIP3    H249485   2.502   3.033   0.409 -0.9693 -0.9508 -0.6800
 9332TIP3   OH249486   1.148   4.849  13.142  0.3966 -0.0404  0.1398
 9332TIP3    H149487   1.201   4.871  13.065  2.4586 -1.2634  1.1619
 9332TIP3    H249488   1.081   4.790  13.109  1.9301 -1.4202 -0.5523
 9333TIP3   OH249489   0.572   2.940   3.767 -0.3428  0.7223  0.2598
 9333TIP3    H149490   0.644   2.886   3.734 -0.4025  0.8455 -0.0840
 9333TIP3    H249491   0.534   2.889   3.838 -0.9569 -0.0883 -0.6412
 9334TIP3   OH249492   1.365   6.293   2.547  0.0932  0.4986 -0.4092
 9334TIP3    H149493   1.452   6.280   2.509 -0.1496  3.6675 -2.2051
 9334TIP3    H249494   1.329   6.368   2.500 -2.2833  1.3690  2.6436
 9335TIP3   OH249495   0.923   2.687   2.827  0.1856  0.0498 -0.1683
 9335TIP3    H149496   0.852   2.631   2.861  1.5995 -0.4548  2.0768
 9335TIP3    H249497   1.001   2.658   2.875  1.5051  2.0072 -1.0893
 9336TIP3   OH249498   2.151   3.484   2.182  0.2257 -0.0061 -0.0422
 9336TIP3    H149499   2.078   3.459   2.125  1.0510 -0.9264 -0.7077
 9336TIP3    H249500   2.170   3.406   2.233  0.3794  0.4021  0.5334
 9337TIP3   OH249501   0.606   5.369   2.502 -0.0169  0.6886 -0.1925
 9337TIP3    H149502   0.618   5.462   2.523  0.1085  0.3833  1.1117
 9337TIP3    H249503   0.695   5.338   2.482  0.2413  0.3534  1.4525
 9338TIP3   OH249504   1.871   4.729   0.904  0.3726 -0.2212 -0.3570
 9338TIP3    H149505   1.839   4.708   0.816  0.0455 -0.4506 -0.1872
 9338TIP3    H249506   1.881   4.824   0.904  1.1311 -0.3053 -0.8915
 9339TIP3   OH249507   0.220   3.737  10.758  0.3295 -0.1900  0.2510
 9339TIP3    H149508   0.175   3.693  10.831 -1.3197 -0.7338 -1.0609
 9339TIP3    H249509   0.268   3.808  10.799 -1.0214 -0.1499  1.8193
 9340TIP3   OH249510   1.589   4.234   3.510 -0.0428 -0.0729  0.6348
 9340TIP3    H149511   1.674   4.192   3.496  1.4267  2.7515  0.7334
 9340TIP3    H249512   1.550   4.238   3.422  0.0957 -1.0247  0.5263
 9341TIP3   OH249513   4.710   4.515   5.178 -0.6458 -0.0725 -0.4390
 9341TIP3    H149514   4.661   4.597   5.193 -1.1853 -0.5867  0.6704
 9341TIP3    H249515   4.788   4.524   5.232 -0.9855 -0.5199  0.1418
 9342TIP3   OH249516   1.828   2.559   3.482  0.6681 -0.3359 -0.3987
 9342TIP3    H149517   1.896   2.492   3.486  1.5631  0.6339  1.6998
 9342TIP3    H249518   1.763   2.532   3.547 -0.5495 -0.7972 -1.7709
 9343TIP3   OH249519   5.078   6.487  15.597  0.0744  0.0436  0.8503
 9343TIP3    H149520   5.009   6.487  15.663 -1.5840 -0.9680 -0.8397
 9343TIP3    H249521   5.084   6.397  15.567  0.5880  0.5367 -0.6021
 9344TIP3   OH249522   3.818   1.551   5.700  0.3407 -0.5082 -0.4667
 9344TIP3    H149523   3.849   1.555   5.791  1.0340 -0.4906 -0.6954
 9344TIP3    H249524   3.890   1.589   5.649 -0.6261  0.7972 -0.8905
 9345TIP3   OH249525   0.114   2.080   4.381 -0.0054  0.1367 -0.6245
 9345TIP3    H149526   0.147   2.169   4.399 -0.0056 -0.0849  0.4919
 9345TIP3    H249527   0.019   2.090   4.379 -0.0175  0.1278 -0.2524
 9346TIP3   OH249528   1.229   3.653   1.936  0.1677 -0.2738  0.6826
 9346TIP3    H149529   1.199   3.735   1.975  0.9958 -0.3205  1.4227
 9346TIP3    H249530   1.320   3.669   1.911  0.3339 -0.9654  0.8227
 9347TIP3   OH249531   3.528   0.747   5.188  0.1067 -0.3689 -0.3982
 9347TIP3    H149532   3.515   0.763   5.095  0.7555  0.4272 -0.3613
 9347TIP3    H249533   3.565   0.659   5.193 -0.7899 -0.7738 -0.8237
 9348TIP3   OH249534   0.366   6.025   2.250 -0.3084 -0.0548 -0.2396
 9348TIP3    H149535   0.362   5.935   2.219  1.9293 -0.2404 -0.0889
 9348TIP3    H249536   0.447   6.059   2.213 -0.6840  1.6212  0.4354
 9349TIP3   OH249537   4.430   5.987  15.438 -0.5421 -0.5011  0.4870
 9349TIP3    H149538   4.438   5.925  15.366  0.5908 -0.5783  0.6747
 9349TIP3    H249539   4.398   6.068  15.397 -1.1860 -0.9396  0.1124
 9350TIP3   OH249540   1.360   1.316   6.521 -0.2457  0.8975  0.1115
 9350TIP3    H149541   1.389   1.407   6.531  0.5315  0.6487  0.1780
 9350TIP3    H249542   1.411   1.283   6.447 -0.2491  0.3992  0.3328
 9351TIP3   OH249543   2.418   0.679   4.513  0.2963 -0.3250  0.0842
 9351TIP3    H149544   2.325   0.679   4.492  0.2392 -1.9921  0.2843
 9351TIP3    H249545   2.444   0.587   4.509  2.0127  0.1479 -0.3012
 9352TIP3   OH249546   0.798   5.152   6.404  0.5280  0.7573 -0.3678
 9352TIP3    H149547   0.727   5.211   6.379 -0.3646  0.0215  0.3761
 9352TIP3    H249548   0.865   5.210   6.441  0.9311  1.6073 -2.3752
 9353TIP3   OH249549   3.222   4.864  14.541  0.5876  0.3109  0.5969
 9353TIP3    H149550   3.186   4.950  14.562  0.0026  0.2127  0.0097
 9353TIP3    H249551   3.238   4.823  14.626 -0.5207  0.4226  0.8562
 9354TIP3   OH249552   2.525   4.515   5.387 -0.4495 -0.4680  0.0977
 9354TIP3    H149553   2.572   4.595   5.363 -0.5361 -0.0304  1.3374
 9354TIP3    H249554   2.592   4.448   5.393 -0.4022 -0.5423 -1.1580
 9355TIP3   OH249555   1.366   4.047  14.087 -0.5165 -0.3487  1.0483
 9355TIP3    H149556   1.375   4.071  14.179 -0.5619 -1.9819  1.4894
 9355TIP3    H249557   1.416   4.114  14.040 -0.2372  0.3203  2.2701
 9356TIP3   OH249558   1.430   1.370   3.717 -0.2313  0.4214  0.4740
 9356TIP3    H149559   1.524   1.364   3.737 -0.2581 -0.4542  0.3693
 9356TIP3    H249560   1.417   1.304   3.649 -0.4744  2.1415 -1.1851
 9357TIP3   OH249561   3.811   0.436  15.876  0.2709  0.1785 -0.3665
 9357TIP3    H149562   3.751   0.425  15.802 -0.1230 -1.1635  0.1407
 9357TIP3    H249563   3.763   0.401  15.951  0.2278  2.5540  0.7673
 9358TIP3   OH249564   2.328   4.554   2.298  0.0422  0.1341 -0.6177
 9358TIP3    H149565   2.270   4.509   2.359 -0.1537  0.1501 -0.7912
 9358TIP3    H249566   2.371   4.484   2.250  0.5179  0.1156 -0.1606
 9359TIP3   OH249567   6.360   2.361  12.667 -0.9120 -0.6483  0.2767
 9359TIP3    H149568   6.387   2.360  12.575  0.4657 -2.3336  0.6718
 9359TIP3    H249569   6.267   2.340  12.665 -0.3615 -3.1965 -0.6207
 9360TIP3   OH249570   4.418   4.075   2.298  0.2420  0.0577  0.1880
 9360TIP3    H149571   4.471   4.105   2.372  1.9582  0.4959 -1.1991
 9360TIP3    H249572   4.411   4.152   2.241 -0.9759 -0.3099 -0.1716
 9361TIP3   OH249573   2.708   0.163  11.101  0.0003 -0.4948  0.6999
 9361TIP3    H149574   2.688   0.125  11.015 -0.2305 -0.6716  0.8350
 9361TIP3    H249575   2.626   0.160  11.149  0.4076 -1.5188  1.3622
 9362TIP3   OH249576   0.914   4.777   4.325 -0.0874 -0.2682 -0.0663
 9362TIP3    H149577   0.871   4.818   4.249  0.2326 -2.1964 -1.3250
 9362TIP3    H249578   1.006   4.803   4.317  0.1832 -1.4545 -1.0653
 9363TIP3   OH249579   3.346   0.814   0.688  0.2070 -0.1132  0.2082
 9363TIP3    H149580   3.395   0.896   0.694 -1.4986  0.8537  1.3573
 9363TIP3    H249581   3.406   0.747   0.721  1.5347  0.6886 -0.5198
 9364TIP3   OH249582   2.594   4.561  12.019 -0.0968 -0.4330  0.1329
 9364TIP3    H149583   2.639   4.483  11.987 -3.4268 -1.7017 -1.6909
 9364TIP3    H249584   2.520   4.573  11.959 -0.0347  3.8027  0.7059
 9365TIP3   OH249585   5.919   2.189  16.322 -0.4596  0.3217  0.0393
 9365TIP3    H149586   5.886   2.100  16.333 -1.8697  0.7708 -0.3822
 9365TIP3    H249587   5.850   2.234  16.271  0.6255  1.4021 -0.5118
 9366TIP3   OH249588   5.992   5.346   4.263 -0.2019  0.0145 -0.0477
 9366TIP3    H149589   5.964   5.438   4.268 -0.5446 -0.1794  1.7161
 9366TIP3    H249590   5.947   5.303   4.335 -0.7386 -1.7480 -1.4113
 9367TIP3   OH249591   3.536   4.336  16.163  0.1378 -0.0062  0.5097
 9367TIP3    H149592   3.460   4.304  16.115  0.7083  0.3850 -0.7033
 9367TIP3    H249593   3.538   4.285  16.244 -0.4782 -1.1498 -0.1850
 9368TIP3   OH249594   5.191   4.640   0.207  0.3319  0.1055 -0.2280
 9368TIP3    H149595   5.232   4.569   0.256  1.1453  0.3490 -0.5492
 9368TIP3    H249596   5.262   4.702   0.191 -0.2064  0.6291 -0.6159
 9369TIP3   OH249597   5.619   6.774  16.495 -0.3423 -0.2839  0.4643
 9369TIP3    H149598   5.704   6.743  16.526 -0.8333 -2.2925 -0.1081
 9369TIP3    H249599   5.637   6.810  16.408  0.1735  0.6872  0.9695
 9370TIP3   OH249600   6.632   6.001   2.912  0.1639  0.1157 -0.1702
 9370TIP3    H149601   6.678   6.056   2.850  1.9635 -2.1457 -0.8859
 9370TIP3    H249602   6.603   5.925   2.861 -0.1113 -0.8006  1.3142
 9371TIP3   OH249603   6.248   0.993  12.526 -0.0928  0.2137  0.6170
 9371TIP3    H149604   6.270   0.941  12.449  0.2998  1.2058  0.0424
 9371TIP3    H249605   6.292   1.077  12.512  0.8972  0.0373  2.4329
 9372TIP3   OH249606   3.948   1.704  15.330  0.9504 -0.8313 -0.0765
 9372TIP3    H149607   3.999   1.720  15.251 -1.3340 -0.5984 -1.5647
 9372TIP3    H249608   3.863   1.673  15.298 -0.3940  0.2741  2.2587
 9373TIP3   OH249609   3.143   6.055  17.109 -0.4242 -0.2015  0.3257
 9373TIP3    H149610   3.097   6.101  17.039  1.3774  0.7633 -0.2330
 9373TIP3    H249611   3.186   6.123  17.160 -0.2541 -1.0337  1.3236
 9374TIP3   OH249612   3.623   2.499   5.909  0.1725  0.0175 -0.1000
 9374TIP3    H149613   3.630   2.543   5.993  0.1652 -0.6966  0.2732
 9374TIP3    H249614   3.690   2.541   5.854  1.0891 -0.4271  0.6602
 9375TIP3   OH249615   3.814   1.922  14.501  0.0415  0.0306 -0.5423
 9375TIP3    H149616   3.834   1.830  14.485 -0.8911 -0.5144  1.3204
 9375TIP3    H249617   3.829   1.934  14.595 -0.8438  1.5157 -0.5718
 9376TIP3   OH249618   1.801   4.610   1.916  0.2870 -0.3564 -0.1286
 9376TIP3    H149619   1.706   4.602   1.903  0.5682 -1.8753 -1.4487
 9376TIP3    H249620   1.811   4.624   2.010 -1.2956  0.5575 -0.0768
 9377TIP3   OH249621   4.440   5.885  11.303 -0.0009  0.4959  0.0554
 9377TIP3    H149622   4.519   5.878  11.357  0.2028 -0.6794 -0.3892
 9377TIP3    H249623   4.396   5.801  11.313  0.8325 -0.3477 -2.8317
 9378TIP3   OH249624   3.949   2.992   3.268  0.5953 -0.6231 -0.2523
 9378TIP3    H149625   3.926   3.034   3.186 -2.2462  1.4203  1.4907
 9378TIP3    H249626   3.913   2.903   3.260 -2.0835  0.4272 -0.2004
 9379TIP3   OH249627   6.052   1.393  12.668  0.8744  0.4004 -0.3903
 9379TIP3    H149628   6.028   1.481  12.639  0.4437  0.8444  1.2935
 9379TIP3    H249629   6.136   1.405  12.713 -0.5864  0.4366  2.3962
 9380TIP3   OH249630   5.140   1.039   1.478  0.7322 -0.0827  0.1999
 9380TIP3    H149631   5.090   0.973   1.525  1.5453  0.7735  2.3197
 9380TIP3    H249632   5.198   0.989   1.421 -0.9754 -1.1137 -0.6639
 9381TIP3   OH249633   3.293   6.573   5.232 -0.3666  0.5527 -0.8284
 9381TIP3    H149634   3.364   6.559   5.168  0.6833  2.0559 -0.0337
 9381TIP3    H249635   3.268   6.665   5.219 -0.2456  0.8254  0.8131
 9382TIP3   OH249636   0.755   1.896   0.019 -0.3112  0.1970 -0.1085
 9382TIP3    H149637   0.845   1.874  -0.005  0.6177  1.1394  2.4460
 9382TIP3    H249638   0.723   1.947  -0.055  2.0835  1.9879  0.0447
 9383TIP3   OH249639   6.383   6.756   3.119 -0.0827  0.1778  0.1808
 9383TIP3    H149640   6.313   6.746   3.055 -0.5361 -1.1106  0.8551
 9383TIP3    H249641   6.460   6.780   3.068 -1.0170  1.6181 -0.5580
 9384TIP3   OH249642   5.718   6.606  13.642 -0.1409  0.3463  0.0761
 9384TIP3    H149643   5.777   6.543  13.601  0.5406  0.2957  1.1244
 9384TIP3    H249644   5.745   6.691  13.606 -1.5503 -0.0095 -1.9192
 9385TIP3   OH249645   0.455   5.964   3.237  0.4339  0.1236  0.1564
 9385TIP3    H149646   0.436   5.870   3.235 -0.4028  0.2735  0.7029
 9385TIP3    H249647   0.388   6.003   3.180  0.6294  0.4153  0.1257
 9386TIP3   OH249648   3.213   6.662   3.355 -0.3335  0.2201 -0.8496
 9386TIP3    H149649   3.184   6.733   3.412  2.5182  0.4979  0.3503
 9386TIP3    H249650   3.274   6.704   3.294  1.8075 -1.2726  0.2236
 9387TIP3   OH249651   0.367   1.317   0.918  0.0271  0.3723 -0.3324
 9387TIP3    H149652   0.380   1.353   1.005 -0.6693 -0.1510 -0.0086
 9387TIP3    H249653   0.291   1.260   0.926 -0.9900  1.5183 -1.6425
 9388TIP3   OH249654   3.897   4.098  14.590 -0.1749  0.3541  0.0982
 9388TIP3    H149655   3.899   4.160  14.518 -2.3552 -1.4287 -1.5594
 9388TIP3    H249656   3.974   4.044  14.577 -0.0634  0.6199 -0.3542
 9389TIP3   OH249657   6.414   1.530  14.465  0.4035  0.1250 -0.5702
 9389TIP3    H149658   6.359   1.488  14.532  1.7882 -1.0428 -0.1467
 9389TIP3    H249659   6.491   1.560  14.513 -0.0890  2.2441 -1.0753
 9390TIP3   OH249660   6.407   0.122  12.384 -0.2330 -0.2469 -0.0341
 9390TIP3    H149661   6.472   0.185  12.354  0.3140 -1.3721 -1.2555
 9390TIP3    H249662   6.376   0.157  12.468  0.3824  1.3942 -0.4822
 9391TIP3   OH249663   0.802   6.819  15.407  0.1874  0.2271  0.2061
 9391TIP3    H149664   0.885   6.786  15.440 -0.3726 -1.1874  0.2500
 9391TIP3    H249665   0.745   6.824  15.485  0.1048  0.8272  0.1165
 9392TIP3   OH249666   4.587   4.582   2.551  0.8162 -0.1707 -0.1162
 9392TIP3    H149667   4.499   4.607   2.522 -0.3806 -2.7692  1.0596
 9392TIP3    H249668   4.600   4.630   2.633  0.4199  0.0581 -0.1869
 9393TIP3   OH249669   5.836   4.307   2.720  0.1207 -0.2517  0.1620
 9393TIP3    H149670   5.905   4.241   2.716  1.9047  1.6203 -1.3286
 9393TIP3    H249671   5.779   4.286   2.647  1.3764  0.5200 -1.0826
 9394TIP3   OH249672   5.848   5.207   4.485 -0.1735 -0.4130  0.4164
 9394TIP3    H149673   5.851   5.113   4.469 -1.7179 -0.3754 -0.1769
 9394TIP3    H249674   5.756   5.225   4.504  0.0819  1.0042  0.3742
 9395TIP3   OH249675   1.286   0.494  14.513 -0.3033  0.1611  0.5663
 9395TIP3    H149676   1.220   0.513  14.580 -1.1232 -0.0826 -0.1553
 9395TIP3    H249677   1.241   0.435  14.453  0.1879  0.9764 -0.6077
 9396TIP3   OH249678   4.540   6.002   0.875 -0.6037  0.1627 -0.3456
 9396TIP3    H149679   4.556   6.042   0.789 -0.5307  1.0121  0.0537
 9396TIP3    H249680   4.468   6.053   0.912  0.0390  0.4564  0.5199
 9397TIP3   OH249681   5.552   3.766  15.825 -0.2647 -0.4013 -0.2042
 9397TIP3    H149682   5.462   3.799  15.827 -0.1152  0.0700 -1.0704
 9397TIP3    H249683   5.605   3.838  15.860  0.0871  0.3981 -2.2855
 9398TIP3   OH249684   2.141   2.625  13.645 -0.0060 -0.0192  0.2638
 9398TIP3    H149685   2.118   2.532  13.644  2.5751 -0.6809 -3.0671
 9398TIP3    H249686   2.200   2.634  13.720 -0.7961 -0.9133  1.0041
 9399TIP3   OH249687   4.911   2.895  11.084  0.6790 -0.2051  0.1601
 9399TIP3    H149688   4.850   2.832  11.122  1.0445 -0.3178  0.5667
 9399TIP3    H249689   4.921   2.962  11.153  0.1688  0.3793 -0.3241
 9400TIP3   OH249690   5.727   4.183   0.255 -0.5017  0.7916 -0.0205
 9400TIP3    H149691   5.640   4.142   0.257 -0.1987  0.1240 -0.4015
 9400TIP3    H249692   5.716   4.265   0.303 -1.3435  0.7076 -0.0644
 9401TIP3   OH249693   2.704   3.712  13.380  0.3067 -0.4098  0.4850
 9401TIP3    H149694   2.748   3.651  13.439  1.6683 -0.5019 -0.5971
 9401TIP3    H249695   2.706   3.668  13.295 -1.6610 -0.2922  0.3727
 9402TIP3   OH249696   1.429   1.642   4.121 -0.2172  0.0009  0.5761
 9402TIP3    H149697   1.392   1.723   4.087 -1.7980 -1.1602 -0.5452
 9402TIP3    H249698   1.354   1.594   4.157  0.3221 -1.9040 -0.7501
 9403TIP3   OH249699   1.092   5.921   2.309  0.2538  0.2281 -0.1775
 9403TIP3    H149700   1.109   5.835   2.270  2.0694  0.2639  0.4831
 9403TIP3    H249701   1.025   5.960   2.252  2.2995 -0.0120 -2.8646
 9404TIP3   OH249702   3.829   5.681  14.111 -0.4522  0.3662  0.0873
 9404TIP3    H149703   3.849   5.615  14.045 -1.4296 -0.3255  0.4835
 9404TIP3    H249704   3.888   5.661  14.184 -0.2759  0.3420 -0.0626
 9405TIP3   OH249705   6.809   4.592   4.079 -0.0234  0.2565 -0.3430
 9405TIP3    H149706   6.738   4.630   4.131  1.1901  0.1467  1.4553
 9405TIP3    H249707   6.770   4.574   3.994 -1.5142  2.4505 -0.1641
 9406TIP3   OH249708   6.756   1.782  17.213 -0.2660  0.5796 -0.0817
 9406TIP3    H149709   6.804   1.816  17.289  0.2172  0.7110 -0.4451
 9406TIP3    H249710   6.818   1.788  17.141  0.2198 -2.0018  0.0355
 9407TIP3   OH249711   5.739   6.013  11.564  0.3876 -0.1867  0.6602
 9407TIP3    H149712   5.692   6.097  11.564 -1.1572 -0.9495 -2.9023
 9407TIP3    H249713   5.676   5.951  11.601  0.4549 -0.2939  0.5955
 9408TIP3   OH249714   2.080   1.290  11.769 -0.3829  0.1852  0.4398
 9408TIP3    H149715   2.143   1.360  11.784 -0.2315  0.2175 -0.3047
 9408TIP3    H249716   2.065   1.291  11.674 -2.7526  1.2735  0.7901
 9409TIP3   OH249717   0.808   6.819  12.921 -0.1233  0.5235  0.6591
 9409TIP3    H149718   0.813   6.905  12.964 -0.3516  1.3425 -0.9061
 9409TIP3    H249719   0.786   6.758  12.992  3.3611  1.2156  2.4728
 9410TIP3   OH249720   1.244   2.870  14.378 -0.4832 -0.0336 -0.5037
 9410TIP3    H149721   1.153   2.867  14.347 -0.4889  1.2374 -0.6407
 9410TIP3    H249722   1.272   2.960  14.361  0.4697 -0.1291  0.4842
 9411TIP3   OH249723   6.550   6.132   5.085  0.0733 -0.1391  0.0716
 9411TIP3    H149724   6.494   6.164   5.157 -0.2081 -1.6305  0.5478
 9411TIP3    H249725   6.492   6.131   5.009 -0.1024 -0.1661  0.2035
 9412TIP3   OH249726   4.870   0.383   1.747  0.0936 -0.1259 -0.2473
 9412TIP3    H149727   4.910   0.364   1.662  0.6919 -1.4384  0.3142
 9412TIP3    H249728   4.915   0.324   1.808 -1.2704 -0.1586  0.7449
 9413TIP3   OH249729   2.585   2.536  13.316  0.1706 -0.9404  0.2610
 9413TIP3    H149730   2.580   2.452  13.271  1.4887  0.2883 -2.2850
 9413TIP3    H249731   2.652   2.523  13.383  1.3955 -1.5414 -1.0447
 9414TIP3   OH249732   4.361   2.211  13.181 -0.1536  0.1422 -0.2002
 9414TIP3    H149733   4.367   2.175  13.093  0.6769  0.8510 -0.4384
 9414TIP3    H249734   4.447   2.193  13.220 -0.1135  0.8883  0.0567
 9415TIP3   OH249735   3.348   0.367   2.915 -0.4401  0.4656  0.0854
 9415TIP3    H149736   3.273   0.329   2.960 -0.1859  0.1375  0.2336
 9415TIP3    H249737   3.406   0.396   2.985  1.0855 -2.2633  0.0009
 9416TIP3   OH249738   5.685   1.125  16.545 -0.4718  0.0437 -0.3709
 9416TIP3    H149739   5.676   1.038  16.584  1.7055  0.0866  0.2925
 9416TIP3    H249740   5.652   1.115  16.456 -1.6569 -1.0782  0.1757
 9417TIP3   OH249741   3.588   1.346  10.731 -0.7979 -0.2263  0.1560
 9417TIP3    H149742   3.610   1.437  10.749 -1.3401 -0.5947  3.0142
 9417TIP3    H249743   3.495   1.339  10.756 -0.6813 -1.6208  0.2468
 9418TIP3   OH249744   3.444   1.872  13.021 -0.1688 -0.3507 -0.4537
 9418TIP3    H149745   3.477   1.839  13.105 -0.4950 -0.6402 -0.4423
 9418TIP3    H249746   3.481   1.814  12.955  1.3355  0.7922 -0.6403
 9419TIP3   OH249747   2.287   4.506  12.637  0.2802 -0.2107 -0.1059
 9419TIP3    H149748   2.376   4.539  12.632  0.8351 -1.6088  0.1265
 9419TIP3    H249749   2.295   4.412  12.620 -1.2238 -0.2603 -0.6882
 9420TIP3   OH249750   3.274   4.392   2.967  0.0805 -0.5465  0.3736
 9420TIP3    H149751   3.304   4.453   2.899  0.3129  1.3400  2.1195
 9420TIP3    H249752   3.278   4.306   2.926  2.1706  0.3362 -1.3385
 9421TIP3   OH249753   4.985   2.976  12.758  0.3156  0.3360 -0.6354
 9421TIP3    H149754   4.898   3.003  12.785  1.1806  1.3161  1.3132
 9421TIP3    H249755   5.013   3.043  12.695  0.2522  0.8754 -0.0938
 9422TIP3   OH249756   0.907   3.307   2.908 -0.5828  0.2842 -0.0999
 9422TIP3    H149757   0.900   3.254   2.828  0.4753  0.1551 -0.1144
 9422TIP3    H249758   0.860   3.255   2.974 -1.4195  0.3656 -0.6105
 9423TIP3   OH249759   6.299   1.947   2.034  0.6693 -0.0144  0.3256
 9423TIP3    H149760   6.322   1.890   1.960  1.2573  0.9150 -0.2191
 9423TIP3    H249761   6.270   1.887   2.103 -2.7680 -0.8007 -1.6393
 9424TIP3   OH249762   5.828   6.755  11.997 -0.3564  0.4169 -0.6434
 9424TIP3    H149763   5.882   6.681  12.024 -2.6174 -0.6608  1.0715
 9424TIP3    H249764   5.862   6.830  12.045 -0.7666 -0.3764  0.8998
 9425TIP3   OH249765   6.270   6.722   4.498 -0.3714 -0.3817 -0.0754
 9425TIP3    H149766   6.335   6.682   4.556  1.1407  0.2655 -1.2684
 9425TIP3    H249767   6.238   6.798   4.547  1.3414  0.5169 -0.2866
 9426TIP3   OH249768   0.754   6.521  14.961  0.0044  0.2880 -0.4269
 9426TIP3    H149769   0.761   6.523  14.866  1.6393  0.0125 -0.3154
 9426TIP3    H249770   0.660   6.508  14.978 -0.3257  0.6184 -1.9861
 9427TIP3   OH249771   5.185   6.079   2.030  0.0504  0.4237 -0.2277
 9427TIP3    H149772   5.101   6.122   2.050 -0.8475 -1.6492  0.7162
 9427TIP3    H249773   5.250   6.129   2.079 -0.7184  1.7759 -0.5862
 9428TIP3   OH249774   4.220   4.265   3.235 -0.2753  0.2200 -0.0258
 9428TIP3    H149775   4.255   4.180   3.263  0.9706  1.0935  1.1652
 9428TIP3    H249776   4.139   4.275   3.284 -1.1035 -0.8444 -1.1448
 9429TIP3   OH249777   2.559   0.278  15.561  0.3419 -0.4327  0.5529
 9429TIP3    H149778   2.542   0.212  15.494 -0.5858  0.4369 -0.0835
 9429TIP3    H249779   2.620   0.339  15.520  1.0241 -0.7659  1.0621
 9430TIP3   OH249780   4.902   0.468  12.659  0.2649 -0.3230 -0.3502
 9430TIP3    H149781   4.970   0.421  12.611 -0.2614 -0.1347 -1.2769
 9430TIP3    H249782   4.839   0.401  12.685  0.3726 -0.3708 -0.2066
 9431TIP3   OH249783   5.373   6.297   5.847 -0.2680  0.6535 -0.1316
 9431TIP3    H149784   5.444   6.299   5.783  1.5870 -0.3977  1.8536
 9431TIP3    H249785   5.416   6.298   5.932 -2.5240 -2.0075  1.1418
 9432TIP3   OH249786   1.381   0.736   0.379 -0.5730 -0.1633  0.1215
 9432TIP3    H149787   1.349   0.824   0.363 -0.9116  0.2558  2.8188
 9432TIP3    H249788   1.411   0.737   0.470 -0.1099 -2.6759  0.0538
 9433TIP3   OH249789   4.422   3.077  11.520 -0.1433 -0.4993  0.3304
 9433TIP3    H149790   4.427   3.099  11.613  0.5708  0.5253  0.0582
 9433TIP3    H249791   4.464   2.991  11.513  0.6100 -0.1750  0.8268
 9434TIP3   OH249792   4.505   0.651  15.525  0.0613  0.4760 -0.6465
 9434TIP3    H149793   4.567   0.724  15.531  0.4350  0.2553 -1.8454
 9434TIP3    H249794   4.485   0.630  15.616  0.4454  1.6538 -0.2789
 9435TIP3   OH249795   2.169   4.047   6.381  0.1439  0.0835  0.0148
 9435TIP3    H149796   2.123   4.131   6.383 -0.2389 -0.1192 -0.1676
 9435TIP3    H249797   2.166   4.016   6.472 -0.0395  0.0949  0.0138
 9436TIP3   OH249798   4.651   5.744  13.033 -0.5209  0.0305  0.0104
 9436TIP3    H149799   4.589   5.739  13.106 -0.3284 -0.6534  0.1294
 9436TIP3    H249800   4.596   5.737  12.955 -0.8533  1.9296  0.0483
 9437TIP3   OH249801   5.246   0.144   0.164 -0.8114  0.2575  0.6098
 9437TIP3    H149802   5.310   0.211   0.139 -1.4884  1.2529  1.5092
 9437TIP3    H249803   5.168   0.166   0.114 -0.4041 -1.0935 -0.6626
 9438TIP3   OH249804   4.651   6.206  10.458  0.1092  0.4577  0.4036
 9438TIP3    H149805   4.658   6.294  10.421  0.8735  0.3086  0.1989
 9438TIP3    H249806   4.574   6.211  10.516 -0.0286  1.1720  0.1655
 9439TIP3   OH249807   1.718   3.815  16.911  0.4261 -0.3847  0.1246
 9439TIP3    H149808   1.727   3.724  16.885  1.7742 -0.4633  0.7992
 9439TIP3    H249809   1.639   3.846  16.867  0.4079 -1.6538 -0.7366
 9440TIP3   OH249810   3.245   4.663  12.059  0.1623  0.4551 -0.2789
 9440TIP3    H149811   3.304   4.649  11.986 -0.1418 -0.6969 -0.3143
 9440TIP3    H249812   3.173   4.601  12.044  0.5185 -0.3942  1.4439
 9441TIP3   OH249813   3.569   0.239  11.890  0.2220 -0.1473  0.0629
 9441TIP3    H149814   3.650   0.250  11.840  0.2353  0.7986  0.2705
 9441TIP3    H249815   3.500   0.259  11.828  0.0785 -2.1106 -0.4373
 9442TIP3   OH249816   0.917   3.010  11.848 -0.2787 -0.3386 -0.1865
 9442TIP3    H149817   0.906   3.105  11.835  2.4538 -0.0842 -0.8254
 9442TIP3    H249818   0.845   2.971  11.797 -0.8855  1.3524 -0.6741
 9443TIP3   OH249819   1.399   0.654  13.000 -0.1321  0.0326  0.3087
 9443TIP3    H149820   1.453   0.575  12.991 -0.9158 -0.5339  0.4792
 9443TIP3    H249821   1.343   0.636  13.076  0.2465  1.0885  0.8453
 9444TIP3   OH249822   5.040   1.780  14.394 -0.4620 -0.0910  0.2202
 9444TIP3    H149823   5.005   1.845  14.455 -1.5714  0.5375 -1.0704
 9444TIP3    H249824   5.127   1.811  14.373  0.4122 -0.9461  2.3943
 9445TIP3   OH249825   3.292   2.828   3.759  0.4457  0.3494 -0.1760
 9445TIP3    H149826   3.220   2.810   3.820 -2.5334  1.5595 -3.1812
 9445TIP3    H249827   3.288   2.757   3.696  3.0475 -0.4954  0.5665
 9446TIP3   OH249828   3.515   6.030  12.048  0.6962 -0.0689 -0.0627
 9446TIP3    H149829   3.516   6.085  12.126  0.0621 -1.4800  0.9635
 9446TIP3    H249830   3.598   6.049  12.004  0.6285  1.4451  0.4448
 9447TIP3   OH249831   0.484   0.711   4.270  0.2549  0.0161 -0.4959
 9447TIP3    H149832   0.550   0.667   4.324 -0.7998 -0.5163  0.3813
 9447TIP3    H249833   0.464   0.791   4.318 -0.1256 -0.0831 -0.4889
 9448TIP3   OH249834   5.357   6.133   4.724 -0.0067 -0.2447  0.1468
 9448TIP3    H149835   5.334   6.226   4.712  1.1103  0.0146 -0.0764
 9448TIP3    H249836   5.336   6.093   4.640  2.5655  0.4686 -0.8861
 9449TIP3   OH249837   0.096   0.981  13.763  0.3189 -0.7681 -0.1562
 9449TIP3    H149838   0.149   0.902  13.745  1.4235 -0.1874  0.5057
 9449TIP3    H249839   0.157   1.054  13.748  0.8995 -0.1790  4.4656
 9450TIP3   OH249840   6.744   3.545  12.406  0.3904  0.3008  0.4562
 9450TIP3    H149841   6.728   3.466  12.457 -2.3743  0.8978  0.5633
 9450TIP3    H249842   6.808   3.594  12.458 -1.5212  0.3773  2.8430
 9451TIP3   OH249843   5.718   5.617  13.444  0.4047 -0.2400  0.4121
 9451TIP3    H149844   5.767   5.559  13.386  1.2815 -0.8461  1.7089
 9451TIP3    H249845   5.669   5.558  13.501 -0.3331  0.3355  0.3743
 9452TIP3   OH249846   3.880   6.511   4.014 -0.4116  0.2599 -0.6788
 9452TIP3    H149847   3.815   6.552   3.956  0.1265  1.0056 -0.7602
 9452TIP3    H249848   3.899   6.427   3.973  0.4036  1.0350 -1.9200
 9453TIP3   OH249849   4.135   4.456  15.112  0.2625 -0.1129 -0.9866
 9453TIP3    H149850   4.123   4.490  15.023 -2.2017  1.9298  0.0507
 9453TIP3    H249851   4.079   4.378  15.116  0.8997 -0.6006 -1.4010
 9454TIP3   OH249852   1.541   5.085  11.572 -0.7176 -0.3454 -0.1305
 9454TIP3    H149853   1.623   5.133  11.563 -0.7539 -0.3724 -0.5938
 9454TIP3    H249854   1.567   4.998  11.601 -0.4521 -0.9388 -2.1399
 9455TIP3   OH249855   4.979   5.746  15.497 -0.3682 -0.4298 -0.1677
 9455TIP3    H149856   4.999   5.747  15.403  0.6320  1.0769  0.0380
 9455TIP3    H249857   4.913   5.815  15.508 -0.7511 -0.8490  0.1827
 9456TIP3   OH249858   2.175   1.754  14.897 -0.3636 -0.2826  0.6269
 9456TIP3    H149859   2.239   1.729  14.831 -0.7323 -0.2279  0.2487
 9456TIP3    H249860   2.102   1.694  14.884 -1.4559  1.3019 -0.6089
 9457TIP3   OH249861   0.364   4.474  16.452  0.0407  0.1670 -0.0020
 9457TIP3    H149862   0.356   4.533  16.377 -1.4461 -0.3912 -0.2795
 9457TIP3    H249863   0.394   4.391  16.415 -1.2931 -0.2949 -0.0749
 9458TIP3   OH249864   1.701   5.014  15.462 -0.0940 -0.2822 -0.7188
 9458TIP3    H149865   1.738   5.094  15.498  2.2119 -2.2175  1.3981
 9458TIP3    H249866   1.738   5.008  15.374  0.1516  0.6682 -0.6867
 9459TIP3   OH249867   4.338   4.056  16.250  0.1368 -0.5163 -0.0981
 9459TIP3    H149868   4.348   3.972  16.295 -3.4523 -0.8417  0.2015
 9459TIP3    H249869   4.297   4.034  16.167 -0.7025  0.9437 -0.0783
 9460TIP3   OH249870   0.832   5.700  15.346 -0.0824  0.1196 -0.2280
 9460TIP3    H149871   0.741   5.671  15.351  0.1174 -0.4810 -0.0623
 9460TIP3    H249872   0.862   5.671  15.260 -0.2867  1.0295 -0.6120
 9461TIP3   OH249873   0.624   0.158  15.209 -0.1795 -0.2756 -0.1659
 9461TIP3    H149874   0.659   0.120  15.289  0.3131  1.9896  0.7508
 9461TIP3    H249875   0.549   0.103  15.187 -0.3321 -0.9266  1.8632
 9462TIP3   OH249876   4.631   3.306   5.745 -0.2203  0.7553 -0.4530
 9462TIP3    H149877   4.599   3.378   5.691  0.1079  0.6073 -0.8509
 9462TIP3    H249878   4.678   3.249   5.684  2.1728  1.7810  0.3654
 9463TIP3   OH249879   0.824   4.393  13.503 -0.0567 -0.2709  0.4271
 9463TIP3    H149880   0.876   4.473  13.500 -0.1428 -0.2462 -1.8506
 9463TIP3    H249881   0.734   4.422  13.513  0.0985 -0.1742  1.5270
 9464TIP3   OH249882   2.137   0.333   0.829  0.6210  0.1897  0.3843
 9464TIP3    H149883   2.124   0.421   0.862  0.3471  0.6934 -1.0267
 9464TIP3    H249884   2.049   0.296   0.823  0.5751  0.4689 -0.7473
 9465TIP3   OH249885   4.083   5.794   3.689 -0.2567  0.7771 -0.4225
 9465TIP3    H149886   4.045   5.794   3.777 -3.2479 -0.4931 -1.6143
 9465TIP3    H249887   4.167   5.750   3.699 -1.0266 -0.2922  1.6387
 9466TIP3   OH249888   6.471   0.716   0.990 -0.0258 -0.0664  0.1562
 9466TIP3    H149889   6.514   0.721   0.905 -0.1963 -3.0816 -0.1337
 9466TIP3    H249890   6.536   0.751   1.051  1.2554 -0.7353 -0.8022
 9467TIP3   OH249891   0.845   4.309   4.858 -0.6556  0.0147  0.3399
 9467TIP3    H149892   0.750   4.315   4.861 -0.6685 -0.2424  0.4528
 9467TIP3    H249893   0.874   4.396   4.830 -1.0669 -0.6735 -2.3391
 9468TIP3   OH249894   1.871   2.100   1.334 -0.1017  0.1873 -0.2174
 9468TIP3    H149895   1.875   2.184   1.380  0.9116 -0.7823  1.4902
 9468TIP3    H249896   1.915   2.116   1.251  2.7349  0.6121  1.2960
 9469TIP3   OH249897   3.233   4.888   1.604  0.2528 -0.1747 -0.0725
 9469TIP3    H149898   3.227   4.917   1.695  1.7477 -0.0648  0.0132
 9469TIP3    H249899   3.157   4.927   1.561 -0.5193 -0.3088  1.1440
 9470TIP3   OH249900   6.029   6.320  15.059  0.5149  0.4368  0.3295
 9470TIP3    H149901   5.988   6.250  15.109  1.5331 -1.5369 -1.4940
 9470TIP3    H249902   6.074   6.275  14.987  0.5828  3.0120 -1.3173
 9471TIP3   OH249903   1.563   6.370  12.071  0.0163  0.2318 -0.4751
 9471TIP3    H149904   1.634   6.306  12.065  0.5790  0.7769  0.2872
 9471TIP3    H249905   1.605   6.453  12.048 -0.1272  0.7269  1.0250
 9472TIP3   OH249906   6.122   3.983  12.934  0.4284  0.3651  1.0044
 9472TIP3    H149907   6.036   3.941  12.931 -1.3366  3.8761  0.1231
 9472TIP3    H249908   6.178   3.926  12.881 -1.9241 -0.7491 -0.3795
 9473TIP3   OH249909   5.342   4.143  16.846  0.4953 -0.3033  0.7710
 9473TIP3    H149910   5.311   4.218  16.898  0.8919  0.6765 -0.3873
 9473TIP3    H249911   5.264   4.089  16.834 -0.0311  0.4489  0.7407
 9474TIP3   OH249912   0.282   1.916   4.252 -0.2127  0.0656  0.0808
 9474TIP3    H149913   0.328   1.853   4.308  0.4169  1.1393  0.7870
 9474TIP3    H249914   0.220   1.960   4.311  0.5954  1.3421 -0.0010
 9475TIP3   OH249915   1.033   2.207   6.577  0.1533 -0.5100 -0.4528
 9475TIP3    H149916   1.087   2.175   6.649 -1.3966 -0.8363  0.5942
 9475TIP3    H249917   0.980   2.131   6.552 -0.5254  0.0768 -0.7943
 9476TIP3   OH249918   0.702   4.491   4.154 -0.2756 -0.1676  0.0240
 9476TIP3    H149919   0.684   4.574   4.198  2.2638  1.5275 -1.9488
 9476TIP3    H249920   0.757   4.515   4.079  0.4594 -3.6259 -0.6556
 9477TIP3   OH249921   2.148   5.359  14.643  0.3469  0.0021  0.4978
 9477TIP3    H149922   2.112   5.418  14.710  0.5718  0.6095  0.0879
 9477TIP3    H249923   2.243   5.361  14.657  0.4510  0.6472 -0.2538
 9478TIP3   OH249924   2.180   5.531   4.499  0.3846  0.0238  1.2502
 9478TIP3    H149925   2.192   5.437   4.491 -1.5207 -0.0450 -1.6414
 9478TIP3    H249926   2.242   5.569   4.436 -0.1178  0.5806  1.0776
 9479TIP3   OH249927   1.506   2.351  15.139 -0.1793  0.3642  0.2671
 9479TIP3    H149928   1.456   2.270  15.130 -1.8951  1.6179 -2.2379
 9479TIP3    H249929   1.449   2.408  15.191  1.2824 -0.1842  2.5557
 9480TIP3   OH249930   4.717   5.320  10.969 -0.0105 -0.0874  0.0833
 9480TIP3    H149931   4.802   5.354  10.942 -0.2735  0.6580  0.1740
 9480TIP3    H249932   4.689   5.264  10.897 -0.1407  0.8891 -0.6316
 9481TIP3   OH249933   0.974   3.402   0.264  0.2281  0.5736  0.0428
 9481TIP3    H149934   0.930   3.362   0.339  1.4263 -0.8863 -0.0314
 9481TIP3    H249935   0.903   3.422   0.203 -0.8520  2.4500  1.8389
 9482TIP3   OH249936   3.365   3.137  13.501 -0.3130 -0.0567 -0.3771
 9482TIP3    H149937   3.370   3.093  13.585 -0.7455  1.5282  0.4945
 9482TIP3    H249938   3.449   3.182  13.492 -0.9052  1.1409 -0.0102
 9483TIP3   OH249939   3.825   3.399   4.744  0.3896  0.2642  0.1991
 9483TIP3    H149940   3.865   3.313   4.730 -0.9123 -0.0701 -1.7792
 9483TIP3    H249941   3.895   3.461   4.722  0.6591 -0.2964 -0.5576
 9484TIP3   OH249942   5.437   4.587   5.829 -0.2921  0.2438  0.5125
 9484TIP3    H149943   5.345   4.572   5.850 -0.1483  1.8284  2.3894
 9484TIP3    H249944   5.484   4.559   5.907  0.7501  0.4059 -0.0536
 9485TIP3   OH249945   1.373   5.649  14.232 -0.2873 -0.6675 -0.1611
 9485TIP3    H149946   1.463   5.661  14.262 -0.9462  0.0347  1.6585
 9485TIP3    H249947   1.320   5.664  14.311 -2.0530  0.1464 -1.4719
 9486TIP3   OH249948   1.257   3.721   5.010 -0.0219 -0.3210 -0.2635
 9486TIP3    H149949   1.201   3.735   4.933 -0.1131 -1.2691 -0.3804
 9486TIP3    H249950   1.235   3.793   5.069 -0.4011  0.0641 -0.8686
 9487TIP3   OH249951   5.406   5.957  13.769 -0.0542  0.2674  0.0590
 9487TIP3    H149952   5.463   6.032  13.752  0.5660 -0.1120  0.4454
 9487TIP3    H249953   5.346   5.956  13.695 -1.1534  2.1414  0.8948
 9488TIP3   OH249954   4.865   2.068  11.330  0.3163 -0.0993 -0.4120
 9488TIP3    H149955   4.825   2.037  11.248  0.6896 -2.5287  0.2974
 9488TIP3    H249956   4.957   2.041  11.323  0.5238  0.3755  0.4671
 9489TIP3   OH249957   5.783   5.586   4.938 -0.0915  0.7010 -0.2280
 9489TIP3    H149958   5.746   5.674   4.947 -1.3030  0.2708 -0.8192
 9489TIP3    H249959   5.779   5.549   5.026  0.7230  1.3536  0.0855
 9490TIP3   OH249960   2.111   6.544   0.622  0.1665 -0.0339 -0.5339
 9490TIP3    H149961   2.116   6.615   0.686  0.4995 -0.6941  0.1740
 9490TIP3    H249962   2.069   6.584   0.545  1.4381  1.2370 -0.5749
 9491TIP3   OH249963   4.975   5.196  11.160 -0.0359 -0.2116 -0.4881
 9491TIP3    H149964   5.062   5.159  11.144 -0.4896 -1.1277 -0.8707
 9491TIP3    H249965   4.960   5.180  11.253  0.4803  0.5549 -0.2651
 9492TIP3   OH249966   2.635   0.125   4.196  0.3477 -0.4693  0.6060
 9492TIP3    H149967   2.681   0.137   4.113  0.2973  1.0974  0.7902
 9492TIP3    H249968   2.646   0.208   4.242 -0.9957 -0.7609  1.4839
 9493TIP3   OH249969   0.534   4.092   2.121  0.1869  0.1426  0.0215
 9493TIP3    H149970   0.519   4.079   2.028  1.4721  1.9714 -0.4658
 9493TIP3    H249971   0.447   4.089   2.160 -0.3189 -1.0736 -1.1679
 9494TIP3   OH249972   6.081   2.207   3.290 -0.3255 -0.0263 -0.3526
 9494TIP3    H149973   6.133   2.156   3.229  0.5420 -0.8337  1.0306
 9494TIP3    H249974   5.994   2.213   3.250  0.8738  1.5958 -2.8354
 9495TIP3   OH249975   2.786   0.172   2.945 -0.2049 -0.2495 -0.6911
 9495TIP3    H149976   2.835   0.244   2.904  0.3609 -0.4116 -0.3056
 9495TIP3    H249977   2.703   0.170   2.897 -0.4318  0.9829 -0.3794
 9496TIP3   OH249978   6.173   2.888   2.831  0.8045  0.3683  0.0690
 9496TIP3    H149979   6.154   2.980   2.849 -0.5920  0.0166  0.4185
 9496TIP3    H249980   6.152   2.842   2.912 -0.4092 -0.5078 -0.7198
 9497TIP3   OH249981   4.564   1.364  12.453 -0.3760 -0.3608 -0.1587
 9497TIP3    H149982   4.579   1.362  12.548 -0.8061 -0.9022 -0.0972
 9497TIP3    H249983   4.623   1.432  12.421  2.7941 -2.9046 -0.0238
 9498TIP3   OH249984   6.793   3.800  11.839 -0.7496  0.3169  0.5868
 9498TIP3    H149985   6.828   3.885  11.813 -0.0121 -0.3716 -0.7080
 9498TIP3    H249986   6.836   3.781  11.922 -0.3769  0.8810  0.5277
 9499TIP3   OH249987   5.446   2.017  11.758  0.4194  0.0886 -0.3312
 9499TIP3    H149988   5.470   2.075  11.830  0.6972  1.1122 -1.2526
 9499TIP3    H249989   5.465   2.066  11.679 -1.2736 -0.4702 -1.1157
 9500TIP3   OH249990   2.895   2.736   2.341 -0.2682  0.2193 -0.3546
 9500TIP3    H149991   2.865   2.684   2.416 -1.0207  0.5579 -0.4203
 9500TIP3    H249992   2.874   2.681   2.265  1.0547 -0.3963 -0.2901
 9501TIP3   OH249993   2.885   2.702  14.508  0.6389  0.3559  0.2537
 9501TIP3    H149994   2.916   2.756  14.435 -0.1175  1.5506  0.8018
 9501TIP3    H249995   2.791   2.693  14.493  0.3527  1.2261  1.4778
 9502TIP3   OH249996   4.039   2.121   5.399 -0.0907  0.4446 -0.1071
 9502TIP3    H149997   4.062   2.110   5.307  1.2980  3.3764 -0.1801
 9502TIP3    H249998   4.057   2.037   5.439 -0.6872 -0.8713 -2.4888
 9503TIP3   OH249999   5.482   1.080  15.331  0.0655  0.2476  0.4589
 9503TIP3    H150000   5.490   1.129  15.249 -0.8756  0.2655  0.3668
 9503TIP3    H250001   5.570   1.078  15.367  0.4228  0.5415 -0.3867
 9504TIP3   OH250002   1.592   4.070  12.470 -0.1120  0.0476  0.1146
 9504TIP3    H150003   1.586   4.165  12.458  0.6008  0.0020 -0.6385
 9504TIP3    H250004   1.501   4.043  12.485 -0.2978  0.8694  0.5280
 9505TIP3   OH250005   1.255   5.932   2.813 -0.0792  0.2904  0.2689
 9505TIP3    H150006   1.173   5.882   2.818 -0.0427  0.2094  0.0820
 9505TIP3    H250007   1.227   6.023   2.798 -0.1274  0.2122 -0.1257
 9506TIP3   OH250008   3.761   0.185   4.185  0.1673  0.8217 -0.0725
 9506TIP3    H150009   3.780   0.177   4.279  0.6518 -0.0855 -0.2499
 9506TIP3    H250010   3.833   0.141   4.142 -1.3182 -0.9765 -0.8026
 9507TIP3   OH250011   0.613   0.279   3.126  0.2791 -0.2395  0.0183
 9507TIP3    H150012   0.707   0.267   3.113  0.2290 -1.5429  0.8709
 9507TIP3    H250013   0.593   0.235   3.208 -0.8572  1.1308  0.5054
 9508TIP3   OH250014   0.907   4.892   6.496  0.7524 -0.1779 -0.1877
 9508TIP3    H150015   0.895   4.981   6.464  1.0361 -0.3795 -0.8442
 9508TIP3    H250016   1.000   4.887   6.521  0.6998 -0.2438  0.0023
 9509TIP3   OH250017   1.756   4.591  12.009  0.5051 -0.2634 -1.1181
 9509TIP3    H150018   1.757   4.554  12.098  2.0497  0.3181 -0.8812
 9509TIP3    H250019   1.782   4.518  11.953  2.2595  0.0900 -0.7883
 9510TIP3   OH250020   4.324   2.193  15.080  0.4671  0.0809 -0.1675
 9510TIP3    H150021   4.300   2.229  15.165 -0.3900 -0.8871  0.0088
 9510TIP3    H250022   4.243   2.195  15.029  0.7586 -0.2084 -0.6508
 9511TIP3   OH250023   5.949   3.047  15.548 -0.6175 -0.0114  0.5588
 9511TIP3    H150024   6.012   3.027  15.479 -0.8314 -1.1606  0.6866
 9511TIP3    H250025   5.881   2.981  15.539 -1.3044  0.6112  1.0624
 9512TIP3   OH250026   1.597   3.607  13.146  0.0163 -0.2458  0.2824
 9512TIP3    H150027   1.548   3.661  13.208 -0.1457  0.7136 -0.6554
 9512TIP3    H250028   1.678   3.584  13.192  0.1334  0.8951  0.6622
 9513TIP3   OH250029   2.081   2.054  17.016 -0.0223 -0.1448  0.6423
 9513TIP3    H150030   1.999   2.070  17.064 -0.0110 -2.7958  1.6691
 9513TIP3    H250031   2.147   2.048  17.085  0.5309 -0.8270  0.0546
 9514TIP3   OH250032   2.700   3.252  16.155 -0.0143  0.5067 -0.6217
 9514TIP3    H150033   2.667   3.207  16.078 -0.4303 -0.1968 -0.0359
 9514TIP3    H250034   2.776   3.301  16.123 -0.3308  0.4228 -1.5206
 9515TIP3   OH250035   5.347   1.048   0.514 -0.4557 -0.4978 -0.7771
 9515TIP3    H150036   5.428   1.050   0.463  0.0566 -2.0992 -0.0408
 9515TIP3    H250037   5.316   0.958   0.507 -0.5319 -0.6821  1.5249
 9516TIP3   OH250038   2.183   6.181  15.144 -0.1132  0.4090  0.1407
 9516TIP3    H150039   2.119   6.124  15.185 -0.1656  0.4157  0.0695
 9516TIP3    H250040   2.190   6.150  15.054  0.2446  0.1872  0.2436
 9517TIP3   OH250041   1.765   5.841   2.010 -0.5376  0.5446 -0.7028
 9517TIP3    H150042   1.826   5.775   2.043 -1.6422 -0.6087 -0.9040
 9517TIP3    H250043   1.788   5.921   2.057  0.5103 -0.1017 -0.0942
 9518TIP3   OH250044   3.980   5.419  15.140  0.0973  0.2119  0.1765
 9518TIP3    H150045   3.991   5.511  15.116  0.2555  0.0243 -0.4926
 9518TIP3    H250046   4.002   5.371  15.060  0.7214 -0.4362  0.7317
 9519TIP3   OH250047   1.074   1.662   3.430  0.4373 -0.5024 -0.1235
 9519TIP3    H150048   1.154   1.715   3.433  0.9422 -1.1991 -1.1710
 9519TIP3    H250049   1.062   1.631   3.520  2.7250 -2.4607 -0.4704
 9520TIP3   OH250050   3.805   4.276   0.160 -0.0820  0.0500 -0.1155
 9520TIP3    H150051   3.718   4.246   0.185 -0.3534 -0.8631 -2.0174
 9520TIP3    H250052   3.865   4.234   0.223 -0.8518 -0.9090 -0.0124
 9521TIP3   OH250053   0.422   4.840   4.995  0.3310  0.8127  0.2277
 9521TIP3    H150054   0.517   4.830   5.000  0.2092 -0.4616  0.2657
 9521TIP3    H250055   0.409   4.915   4.937  1.3289 -0.5930 -1.8909
 9522TIP3   OH250056   4.708   4.198   4.816 -0.6363  0.2843 -0.1250
 9522TIP3    H150057   4.697   4.169   4.907 -0.0052  1.8593  0.4638
 9522TIP3    H250058   4.796   4.234   4.812 -0.5596 -0.0254 -1.4383
 9523TIP3   OH250059   6.422   3.002  14.616 -0.2870 -0.1309 -0.7106
 9523TIP3    H150060   6.395   3.087  14.651  1.4326  0.7805 -1.5162
 9523TIP3    H250061   6.481   2.967  14.682  2.0654  1.0793 -2.1151
 9524TIP3   OH250062   2.708   6.659   1.329  0.5555 -0.4311  0.2558
 9524TIP3    H150063   2.748   6.742   1.301 -0.9044  0.0819 -0.3372
 9524TIP3    H250064   2.781   6.597   1.330  1.3563  0.4609 -0.9892
 9525TIP3   OH250065   6.778   2.453  13.343 -0.2392  0.1901  0.1376
 9525TIP3    H150066   6.736   2.529  13.303  0.0938  0.2489 -0.1074
 9525TIP3    H250067   6.801   2.482  13.431  1.8114  1.0917 -0.6611
 9526TIP3   OH250068   3.724   4.960  12.921  0.1832 -0.3835  0.0144
 9526TIP3    H150069   3.767   4.955  13.007 -0.0693  0.8363  0.2158
 9526TIP3    H250070   3.672   5.040  12.925  0.8899  0.1767 -1.6222
 9527TIP3   OH250071   4.946   0.045   0.986  0.0950 -0.1084 -0.4053
 9527TIP3    H150072   4.915   0.061   0.896 -1.2584  1.3112  0.2860
 9527TIP3    H250073   4.878   0.083   1.041  0.3861 -1.9437  1.2598
 9528TIP3   OH250074   0.390   1.770  14.322 -0.1023  0.1445  0.2356
 9528TIP3    H150075   0.310   1.823  14.320  1.6689  2.8996  0.0303
 9528TIP3    H250076   0.422   1.772  14.232 -0.4181 -1.9578  0.0654
 9529TIP3   OH250077   6.112   1.287  11.784  0.4485  0.2577  0.0864
 9529TIP3    H150078   6.195   1.248  11.809  0.6355  1.1616  0.8978
 9529TIP3    H250079   6.096   1.355  11.850 -0.8945  0.1348 -0.0974
 9530TIP3   OH250080   0.548   3.448   2.737 -0.0482 -0.3172 -0.7298
 9530TIP3    H150081   0.644   3.456   2.733 -0.1168 -0.0947 -1.9959
 9530TIP3    H250082   0.531   3.355   2.725  0.0370 -0.4727  0.2731
 9531TIP3   OH250083   4.070   0.875   4.244 -0.3036  0.1437  0.2563
 9531TIP3    H150084   4.108   0.838   4.165 -2.1040 -1.6187  0.1761
 9531TIP3    H250085   4.134   0.855   4.313 -0.3512 -1.4032 -0.1406
 9532TIP3   OH250086   5.632   0.399   4.982  0.1050 -0.0908  0.0283
 9532TIP3    H150087   5.578   0.416   5.059 -1.4101  0.2678 -1.0898
 9532TIP3    H250088   5.657   0.486   4.951  1.0757 -0.2461  0.3550
 9533TIP3   OH250089   5.356   6.335   2.399  0.4546 -0.3505  0.0091
 9533TIP3    H150090   5.344   6.296   2.485 -1.2059  0.3743  0.1225
 9533TIP3    H250091   5.407   6.414   2.415 -0.7049  0.3144  0.4689
 9534TIP3   OH250092   0.595   5.154   3.790 -0.0434 -0.6313 -0.2046
 9534TIP3    H150093   0.560   5.139   3.878 -1.1323 -0.1188 -0.5335
 9534TIP3    H250094   0.562   5.241   3.766  1.9597  0.1113 -0.3142
 9535TIP3   OH250095   3.692   3.611   5.423  0.5488 -0.0884 -0.4865
 9535TIP3    H150096   3.670   3.671   5.351  0.1358  1.1336  0.6257
 9535TIP3    H250097   3.611   3.605   5.474  1.2849  0.3510  0.7682
 9536TIP3   OH250098   5.894   6.568   2.949  0.7528 -0.4529  0.0607
 9536TIP3    H150099   5.937   6.550   2.866 -0.6364  2.0674 -1.2649
 9536TIP3    H250100   5.840   6.491   2.966  0.6449 -0.7560 -1.6179
 9537TIP3   OH250101   5.697   1.153   1.637 -0.6239 -0.7442  0.1002
 9537TIP3    H150102   5.663   1.129   1.551 -0.2848 -0.1961 -0.1827
 9537TIP3    H250103   5.639   1.107   1.699 -3.6873  2.4318 -0.2986
 9538TIP3   OH250104   0.821   3.888   6.264  0.5651  0.4458  0.0328
 9538TIP3    H150105   0.812   3.859   6.173  2.8952  0.8377 -0.3666
 9538TIP3    H250106   0.732   3.889   6.298 -0.3219  0.0818 -2.1823
 9539TIP3   OH250107   2.021   2.353   3.501  0.0105 -0.1129 -0.0287
 9539TIP3    H150108   2.111   2.372   3.525 -0.0134  1.0385 -0.8493
 9539TIP3    H250109   1.990   2.294   3.570  1.9148 -1.9360 -0.6764
 9540TIP3   OH250110   1.122   3.934   4.119 -0.3958 -0.3298 -0.1460
 9540TIP3    H150111   1.148   3.881   4.044  1.2229  0.1688  0.0530
 9540TIP3    H250112   1.178   4.011   4.116 -0.2970 -0.3032  1.5690
 9541TIP3   OH250113   6.272   2.982  16.473  0.1579  0.2140 -0.0025
 9541TIP3    H150114   6.190   2.940  16.447  0.7727 -1.3443  0.5701
 9541TIP3    H250115   6.248   3.074  16.486 -1.3271 -0.0765 -0.6008
 9542TIP3   OH250116   6.123   6.136   6.508 -0.1199 -0.1395  1.2167
 9542TIP3    H150117   6.060   6.127   6.580 -0.3312  0.1304  1.0679
 9542TIP3    H250118   6.071   6.172   6.436  0.2312  0.1702  1.1212
 9543TIP3   OH250119   5.829   0.500  12.435 -0.3760  0.0446  0.0348
 9543TIP3    H150120   5.857   0.541  12.353 -0.3048 -1.6230 -0.8011
 9543TIP3    H250121   5.760   0.439  12.409 -0.6291 -0.2025  1.2621
 9544TIP3   OH250122   1.397   4.348  11.492 -0.5680  0.3602  0.1697
 9544TIP3    H150123   1.359   4.281  11.436  1.1570  1.7260 -2.7387
 9544TIP3    H250124   1.481   4.311  11.520  0.4927  1.3053 -1.6250
 9545TIP3   OH250125   0.459   1.891   2.305 -0.3120  0.5423  0.3138
 9545TIP3    H150126   0.494   1.959   2.363  0.9745 -1.8543  2.4722
 9545TIP3    H250127   0.372   1.873   2.340 -0.4882  0.7910  0.0021
 9546TIP3   OH250128   5.630   5.853   5.180  0.2422 -0.5196 -1.0126
 9546TIP3    H150129   5.672   5.870   5.096  0.6351  3.0323 -0.1541
 9546TIP3    H250130   5.698   5.867   5.245 -1.0063  0.4820  0.1168
 9547TIP3   OH250131   5.974   4.996  11.563  0.0136 -0.3424 -0.2001
 9547TIP3    H150132   5.993   4.908  11.529 -1.4486  0.0709 -2.1596
 9547TIP3    H250133   5.883   5.012  11.538 -0.6120  0.6919  2.4948
 9548TIP3   OH250134   6.208   0.904   3.621 -0.5042  0.1644 -0.3275
 9548TIP3    H150135   6.137   0.964   3.596 -0.8113  0.1898  0.6048
 9548TIP3    H250136   6.280   0.962   3.648 -0.0011  0.1459 -1.5713
 9549TIP3   OH250137   6.132   5.001   5.679 -0.3377  0.1403 -0.2724
 9549TIP3    H150138   6.050   5.013   5.630  0.2103 -0.2035 -1.3092
 9549TIP3    H250139   6.199   4.994   5.611  0.0883 -3.1490  0.3798
 9550TIP3   OH250140   2.325   0.575  13.959 -0.3023 -0.4354 -0.6021
 9550TIP3    H150141   2.266   0.650  13.946 -1.5375 -0.8976  2.0588
 9550TIP3    H250142   2.269   0.498  13.951  0.5181 -1.0010 -0.9846
 9551TIP3   OH250143   0.762   4.038  15.138  0.4533  0.1248  0.3425
 9551TIP3    H150144   0.735   3.981  15.210  0.8133 -1.4969 -0.7835
 9551TIP3    H250145   0.740   4.126  15.168 -0.1019 -0.5955  2.1181
 9552TIP3   OH250146   4.526   5.834   6.330 -0.4943 -0.8669  0.0375
 9552TIP3    H150147   4.597   5.779   6.364 -0.4862  1.5449  4.2812
 9552TIP3    H250148   4.447   5.800   6.373 -1.0429  0.0533 -0.2317
 9553TIP3   OH250149   2.932   6.033  16.244  0.5585 -0.4179 -0.1717
 9553TIP3    H150150   2.892   6.027  16.330  1.9542  0.7051  0.5811
 9553TIP3    H250151   2.871   6.087  16.193 -1.7722 -3.5624 -0.8357
 9554TIP3   OH250152   1.052   4.201   3.962  0.0844 -0.1604 -0.0206
 9554TIP3    H150153   1.039   4.246   4.045  2.6708 -0.1211  0.3924
 9554TIP3    H250154   1.001   4.120   3.971  0.7876 -0.4260  1.8412
 9555TIP3   OH250155   1.280   6.817  12.247 -0.2059  0.7766 -0.2062
 9555TIP3    H150156   1.263   6.723  12.249  1.7665  0.4271  0.8538
 9555TIP3    H250157   1.344   6.832  12.317 -0.0920  2.8277 -0.7100
 9556TIP3   OH250158   4.097   4.008  13.497  0.0184  0.1619 -0.2636
 9556TIP3    H150159   4.061   4.093  13.522 -1.3597  0.1279 -2.0333
 9556TIP3    H250160   4.028   3.946  13.518  1.2099 -0.6219  1.4784
 9557TIP3   OH250161   0.919   5.492   3.055 -0.7313  0.3820  0.2061
 9557TIP3    H150162   0.894   5.525   2.968 -0.9885  0.9195  0.4795
 9557TIP3    H250163   0.866   5.414   3.067  0.2789 -0.4578 -0.6787
 9558TIP3   OH250164   4.097   0.494  11.226  0.0846 -0.6947  0.0833
 9558TIP3    H150165   4.011   0.459  11.203 -0.1766  0.2493 -0.3669
 9558TIP3    H250166   4.090   0.588  11.210  1.3584 -0.6865 -0.4114
 9559TIP3   OH250167   3.271   4.511  13.943  0.1527 -0.4874 -0.2320
 9559TIP3    H150168   3.187   4.528  13.902 -0.7336 -1.2827  1.2207
 9559TIP3    H250169   3.327   4.480  13.871 -1.2548 -1.4847 -0.9088
 9560TIP3   OH250170   1.045   5.591  15.773  0.2435 -0.6461 -0.4571
 9560TIP3    H150171   1.043   5.579  15.678 -2.5580 -1.2827 -0.3572
 9560TIP3    H250172   1.002   5.513  15.808  2.5261 -1.1262  1.4575
 9561TIP3   OH250173   0.528   6.793  11.886  0.3656  0.2760  0.0266
 9561TIP3    H150174   0.521   6.730  11.958  2.4273 -1.1409 -0.9621
 9561TIP3    H250175   0.447   6.845  11.892 -2.1532 -3.4538 -0.0854
 9562TIP3   OH250176   0.214   6.477  11.760 -0.7442  0.6558  0.5397
 9562TIP3    H150177   0.224   6.382  11.765 -0.8675  0.5847 -0.3826
 9562TIP3    H250178   0.132   6.490  11.713 -0.4106  1.2105  0.0922
 9563TIP3   OH250179   4.165   3.917  12.084  0.0141 -0.1084  0.0409
 9563TIP3    H150180   4.250   3.929  12.042 -0.1513 -0.2981 -0.3456
 9563TIP3    H250181   4.104   3.905  12.012 -0.6250  1.8030  0.2545
 9564TIP3   OH250182   6.759   4.907   4.311  0.3278  0.0800 -0.4370
 9564TIP3    H150183   6.785   4.934   4.398  0.9742 -0.2890 -0.5187
 9564TIP3    H250184   6.745   4.989   4.264  0.1109  0.2772 -0.0299
 9565TIP3   OH250185   2.727   5.427  16.450 -0.0057 -0.2453  0.2089
 9565TIP3    H150186   2.761   5.494  16.509  0.0766 -0.3599  0.2919
 9565TIP3    H250187   2.792   5.357  16.454 -0.2809 -0.4905  0.4197
 9566TIP3   OH250188   5.920   6.482  12.119  0.6010  0.5720 -0.4239
 9566TIP3    H150189   5.945   6.447  12.033  2.4019 -1.3390  0.8124
 9566TIP3    H250190   5.898   6.404  12.170  0.2764  1.6334  1.0740
 9567TIP3   OH250191   3.273   5.608  10.334 -0.2417  0.1795  0.2808
 9567TIP3    H150192   3.368   5.604  10.341  0.1263 -0.4835 -4.1099
 9567TIP3    H250193   3.254   5.701  10.320 -0.0060  0.0381 -1.0727
 9568TIP3   OH250194   2.098   4.076  11.730 -0.5197 -0.0509  0.0267
 9568TIP3    H150195   2.153   4.065  11.653  0.4003  0.6177  0.5897
 9568TIP3    H250196   2.011   4.094  11.694 -0.6499 -2.2011 -0.8731
 9569TIP3   OH250197   4.123   2.682   1.919  0.2229 -0.0706  0.3418
 9569TIP3    H150198   4.189   2.625   1.880  0.1510 -0.2314  0.4542
 9569TIP3    H250199   4.075   2.717   1.845  0.5852  0.2293  0.2476
 9570TIP3   OH250200   1.456   2.738  10.568  0.2355  0.2804  0.4810
 9570TIP3    H150201   1.448   2.795  10.644 -0.1711  1.7208 -0.6334
 9570TIP3    H250202   1.426   2.791  10.494  2.6165 -0.3700 -1.0160
 9571TIP3   OH250203   6.763   2.813   1.315 -0.2305 -0.1625 -0.3475
 9571TIP3    H150204   6.717   2.882   1.362  0.6405  0.9548 -1.0997
 9571TIP3    H250205   6.710   2.799   1.236  1.0431  1.6225 -1.5648
 9572TIP3   OH250206   6.015   5.498  15.291  0.0277 -0.0440  0.3075
 9572TIP3    H150207   5.991   5.587  15.318  0.6398 -0.0644  0.9314
 9572TIP3    H250208   5.935   5.463  15.251 -0.0230  1.0283 -0.5812
 9573TIP3   OH250209   2.944   5.116  17.128  0.3999 -0.7129 -0.4042
 9573TIP3    H150210   2.995   5.195  17.149  3.7886 -2.4615 -1.6394
 9573TIP3    H250211   2.928   5.075  17.212 -0.4635  0.7342  0.1540
 9574TIP3   OH250212   5.291   2.981   5.082 -0.5051 -0.2495 -0.0582
 9574TIP3    H150213   5.226   2.957   5.016 -0.8924 -1.1780  0.6355
 9574TIP3    H250214   5.299   2.902   5.136 -1.0662  0.8729  1.7011
 9575TIP3   OH250215   2.751   3.960  13.457 -0.3730  0.0299  0.3408
 9575TIP3    H150216   2.846   3.951  13.448 -0.3934 -1.3714  1.3755
 9575TIP3    H250217   2.715   3.887  13.407 -0.8715 -0.1872  1.0105
 9576TIP3   OH250218   3.734   3.328   1.413 -0.2337 -0.0800  0.0545
 9576TIP3    H150219   3.789   3.267   1.364 -0.0607  0.2613 -0.1835
 9576TIP3    H250220   3.797   3.384   1.459 -0.3568  0.7712 -0.7851
 9577TIP3   OH250221   4.202   3.030   3.002  0.5194 -0.5080 -0.5741
 9577TIP3    H150222   4.127   3.087   3.018 -0.2214 -1.7829  0.5992
 9577TIP3    H250223   4.210   3.027   2.907  0.0442  0.8688 -0.6706
 9578TIP3   OH250224   4.442   6.109  10.961  0.0865 -0.5467  0.1414
 9578TIP3    H150225   4.383   6.038  10.935 -0.2193 -0.6894  1.1816
 9578TIP3    H250226   4.530   6.072  10.951 -0.0677 -1.0514  0.6003
 9579TIP3   OH250227   3.052   5.804   1.488  0.1585  0.1935  0.1926
 9579TIP3    H150228   3.023   5.777   1.576  0.1160  0.1987  0.1801
 9579TIP3    H250229   3.122   5.867   1.505 -0.1632  0.5462  0.2283
 9580TIP3   OH250230   2.196   1.672   5.404 -0.1550 -0.5614 -0.1997
 9580TIP3    H150231   2.287   1.651   5.422  0.1519  2.0172  1.5021
 9580TIP3    H250232   2.150   1.588   5.413  1.5881 -1.3146  2.1999
 9581TIP3   OH250233   2.402   3.533  15.859 -0.0623 -0.4332  0.2435
 9581TIP3    H150234   2.415   3.616  15.814 -0.3975 -0.4222  0.1692
 9581TIP3    H250235   2.483   3.484  15.841 -0.2195 -0.4546 -0.4240
 9582TIP3   OH250236   5.948   1.841   3.833  0.1932  0.1462  0.3073
 9582TIP3    H150237   5.905   1.879   3.909  1.4432 -1.1680  1.6955
 9582TIP3    H250238   6.042   1.851   3.851  0.5156 -1.7653 -0.2201
 9583TIP3   OH250239   2.327   1.457  14.082 -0.1243 -0.5862  0.0512
 9583TIP3    H150240   2.409   1.477  14.036  1.4118  1.1816  3.3665
 9583TIP3    H250241   2.315   1.363  14.070  1.7122 -0.6366 -1.5900
 9584TIP3   OH250242   2.466   3.702  14.217  0.0919  0.1929 -0.3893
 9584TIP3    H150243   2.554   3.731  14.241  0.8624 -0.9762 -1.6886
 9584TIP3    H250244   2.474   3.679  14.124 -1.6614  0.3535 -0.5856
 9585TIP3   OH250245   0.584   0.233  11.371 -0.2385 -0.1806 -0.4403
 9585TIP3    H150246   0.502   0.203  11.410  0.4304 -2.1645 -0.5180
 9585TIP3    H250247   0.617   0.158  11.322  0.1696  1.5081 -2.8443
 9586TIP3   OH250248   5.315   0.195  14.437 -0.0552  0.2433  0.0262
 9586TIP3    H150249   5.282   0.192  14.528  0.0899 -0.3671  0.0617
 9586TIP3    H250250   5.270   0.122  14.394 -0.9372  1.1970 -0.6687
 9587TIP3   OH250251   3.532   4.783   2.066  0.1013  0.4428 -0.2736
 9587TIP3    H150252   3.592   4.709   2.075  0.3072  0.1782 -3.4562
 9587TIP3    H250253   3.445   4.745   2.077  0.2854  0.0501 -0.1717
 9588TIP3   OH250254   0.472   3.420  16.246  0.4943  0.3416  0.2407
 9588TIP3    H150255   0.421   3.501  16.252 -1.6592 -0.9646  0.0370
 9588TIP3    H250256   0.562   3.447  16.268 -0.2579  2.6854  0.6290
 9589TIP3   OH250257   1.028   2.669  11.499  0.5698 -0.5538 -0.5844
 9589TIP3    H150258   1.121   2.693  11.500  0.4723 -0.1836  0.9276
 9589TIP3    H250259   0.984   2.746  11.537 -0.2280 -1.2279 -0.1445
 9590TIP3   OH250260   4.413   0.140  14.228 -0.3568  0.8538 -0.6826
 9590TIP3    H150261   4.344   0.172  14.286  0.4598 -1.2553  1.5240
 9590TIP3    H250262   4.381   0.056  14.196  0.4985  0.6060 -0.9071
 9591TIP3   OH250263   4.967   5.854  17.052 -0.0956 -0.4133  0.1940
 9591TIP3    H150264   5.037   5.789  17.050  1.3285  1.1242 -1.2793
 9591TIP3    H250265   4.946   5.870  16.960 -0.8032  0.8077  0.5608
 9592TIP3   OH250266   5.004   5.792  14.904  0.4411 -0.4600 -0.5489
 9592TIP3    H150267   4.949   5.791  14.826  1.9725 -2.3941 -1.6535
 9592TIP3    H250268   5.068   5.861  14.888  0.5149 -0.5961 -0.8348
 9593TIP3   OH250269   4.185   0.326   2.196  0.3333  0.0554  0.2287
 9593TIP3    H150270   4.192   0.401   2.137 -1.7564  1.5039  1.7503
 9593TIP3    H250271   4.254   0.340   2.262  1.7085 -0.8135 -0.9718
 9594TIP3   OH250272   2.720   3.379   4.641  0.8394  0.1222 -0.4147
 9594TIP3    H150273   2.775   3.331   4.579  0.6902 -0.9652  0.2622
 9594TIP3    H250274   2.771   3.380   4.722  0.9416  1.3380 -0.4838
 9595TIP3   OH250275   0.622   6.697   6.805  0.0101  0.3616 -0.0308
 9595TIP3    H150276   0.680   6.624   6.784  0.6390  0.7173  0.4134
 9595TIP3    H250277   0.537   6.657   6.822  0.3367 -0.2596  0.1500
 9596TIP3   OH250278   3.912   3.257   5.686 -0.0038  0.5301 -0.0032
 9596TIP3    H150279   3.997   3.223   5.658  0.2721  0.6624  0.6673
 9596TIP3    H250280   3.883   3.196   5.754 -0.2016  0.7814  0.1368
 9597TIP3   OH250281   4.975   5.162  12.140 -0.8665  0.2655  0.2837
 9597TIP3    H150282   4.963   5.256  12.150  0.1699  0.3309  1.0084
 9597TIP3    H250283   4.933   5.124  12.217 -1.0771  0.1534  0.1124
 9598TIP3   OH250284   5.509   6.408  16.583 -0.3982  0.3419 -0.5252
 9598TIP3    H150285   5.596   6.407  16.544  0.2954  0.3545  0.9668
 9598TIP3    H250286   5.497   6.499  16.612 -0.1102 -0.0851  0.9708
 9599TIP3   OH250287   4.070   3.569  13.545 -0.5198 -0.0046  0.1060
 9599TIP3    H150288   4.022   3.497  13.585 -1.2801  0.9084  0.8437
 9599TIP3    H250289   4.078   3.544  13.452  0.7756 -1.8691  0.6743
 9600TIP3   OH250290   6.092   2.070   2.399  0.4353  0.6716 -0.7973
 9600TIP3    H150291   6.042   2.011   2.342 -1.2321  1.8160 -0.5552
 9600TIP3    H250292   6.038   2.079   2.477  1.5539  1.0703 -0.0691
 9601TIP3   OH250293   5.330   1.547   0.097 -0.3872  0.4759 -0.2738
 9601TIP3    H150294   5.264   1.614   0.082 -0.0397  0.4491 -1.9911
 9601TIP3    H250295   5.383   1.547   0.018 -0.4524 -1.9125 -0.3528
 9602TIP3   OH250296   1.413   3.774  13.992  0.1343  0.0433  0.3933
 9602TIP3    H150297   1.409   3.854  14.044  0.4423  0.2210  0.1474
 9602TIP3    H250298   1.393   3.802  13.903 -1.7727 -0.4794  0.6336
 9603TIP3   OH250299   5.764   0.022  13.932  0.2161 -0.5226 -0.6540
 9603TIP3    H150300   5.737  -0.043  13.997 -1.1038  0.3581 -0.3052
 9603TIP3    H250301   5.855   0.001  13.913  0.6842 -0.6649  1.6560
 9604TIP3   OH250302   1.664   4.736  12.268  0.4172 -0.7844 -0.0795
 9604TIP3    H150303   1.626   4.813  12.310  0.1352 -0.4678 -0.8906
 9604TIP3    H250304   1.758   4.755  12.262  0.3174 -0.4133 -0.4651
 9605TIP3   OH250305   4.746   5.807   2.935  0.2724  0.1390 -0.6912
 9605TIP3    H150306   4.754   5.715   2.960  0.0808  0.3511  0.1493
 9605TIP3    H250307   4.772   5.809   2.843  0.4197 -0.7328 -0.6700
 9606TIP3   OH250308   2.543   3.855  12.933 -0.2662 -0.6360  0.0987
 9606TIP3    H150309   2.555   3.774  12.983 -0.2766 -0.0939  0.9955
 9606TIP3    H250310   2.554   3.925  12.998  0.1689  0.0919 -0.7510
 9607TIP3   OH250311   5.782   1.623   3.845  0.4919  0.0771 -0.3186
 9607TIP3    H150312   5.820   1.566   3.777  0.0543  2.0799 -2.3246
 9607TIP3    H250313   5.834   1.704   3.839 -0.5203  0.8131  0.7226
 9608TIP3   OH250314   0.389   1.669  11.335  0.0425  0.5552  0.4650
 9608TIP3    H150315   0.452   1.735  11.308  2.0333 -0.1212  3.1895
 9608TIP3    H250316   0.432   1.586  11.316 -0.3674  0.0814  1.5555
 9609TIP3   OH250317   5.971   1.244   0.093 -0.0724 -0.5325 -0.0047
 9609TIP3    H150318   5.916   1.261   0.170  1.2753  1.5869  0.5307
 9609TIP3    H250319   6.056   1.220   0.129  1.4916  3.4909 -0.7300
 9610TIP3   OH250320   5.126   5.241   0.622 -0.2271  0.4050 -0.1211
 9610TIP3    H150321   5.040   5.202   0.636  0.1650 -0.3737  0.1496
 9610TIP3    H250322   5.182   5.168   0.595  1.1318  0.2704  2.8555
 9611TIP3   OH250323   6.405   0.673  12.294  0.6819  0.0212  0.1170
 9611TIP3    H150324   6.450   0.629  12.366  0.4524  1.3347  1.0805
 9611TIP3    H250325   6.471   0.732  12.257  1.4620 -2.1897 -2.1649
 9612TIP3   OH250326   1.566   2.562  14.588 -0.3962  0.5000 -0.4246
 9612TIP3    H150327   1.583   2.632  14.651 -0.1497 -0.4134  0.5416
 9612TIP3    H250328   1.471   2.550  14.589 -0.5183  1.3417 -1.1723
 9613TIP3   OH250329   3.703   0.280  15.337  0.3094  0.0409  0.5245
 9613TIP3    H150330   3.703   0.226  15.257  0.3909  0.5413  0.1830
 9613TIP3    H250331   3.612   0.278  15.366  0.3057 -0.2589  0.4965
 9614TIP3   OH250332   6.279   2.403   2.424 -0.6660  0.0732  0.0144
 9614TIP3    H150333   6.202   2.444   2.464 -0.4868  1.6181 -1.1964
 9614TIP3    H250334   6.347   2.470   2.429  0.0764 -0.6253 -0.6250
 9615TIP3   OH250335   2.986   6.464  11.341  0.0514  0.1173  0.1684
 9615TIP3    H150336   2.945   6.500  11.420 -3.0518 -1.0380 -0.8229
 9615TIP3    H250337   3.003   6.541  11.286 -0.6611  0.6395  0.6622
 9616TIP3   OH250338   6.102   0.928  15.365 -0.4206 -1.0012  0.1955
 9616TIP3    H150339   6.132   0.850  15.410 -1.5520 -0.4130  2.0609
 9616TIP3    H250340   6.159   0.998  15.397  0.2117 -0.9508 -1.0176
 9617TIP3   OH250341   1.615   3.999  15.604 -0.3230 -0.0493  0.3624
 9617TIP3    H150342   1.636   3.934  15.538 -0.7664 -0.0287  0.1986
 9617TIP3    H250343   1.557   4.061  15.559 -1.6653 -0.7226  1.1154
 9618TIP3   OH250344   0.284   6.200  11.717  0.3467 -0.4365 -0.2176
 9618TIP3    H150345   0.191   6.178  11.707 -0.1086  1.3951 -0.1268
 9618TIP3    H250346   0.326   6.155  11.644 -0.6905 -0.8339 -0.5873
 9619TIP3   OH250347   2.274   3.486  14.109  0.6066  0.3365  0.3114
 9619TIP3    H150348   2.319   3.526  14.035  1.3689 -3.0280 -1.1380
 9619TIP3    H250349   2.336   3.493  14.182  1.4971  0.0830 -0.4239
 9620TIP3   OH250350   6.270   2.403   4.602  0.6866 -0.2949  0.4406
 9620TIP3    H150351   6.193   2.346   4.603 -0.9906  1.8685  1.5616
 9620TIP3    H250352   6.279   2.431   4.694  2.3563  0.0428  0.1790
 9621TIP3   OH250353   3.382   4.495  14.996  0.0727 -0.2525  0.5277
 9621TIP3    H150354   3.390   4.490  14.900 -0.1816 -0.3443  0.5109
 9621TIP3    H250355   3.373   4.404  15.024 -1.6753 -0.1248  0.4714
 9622TIP3   OH250356   0.086   1.963   2.749  0.0811  0.3949 -0.6030
 9622TIP3    H150357   0.133   1.908   2.686  0.6419  1.9440 -1.5612
 9622TIP3    H250358   0.152   2.022   2.784  0.1976 -1.6926  2.9165
 9623TIP3   OH250359   6.645   5.649   0.011 -0.0845 -0.6126 -0.6532
 9623TIP3    H150360   6.640   5.576   0.073  0.2369 -0.5325 -0.5303
 9623TIP3    H250361   6.728   5.692   0.032 -0.7935  0.4379 -0.0176
 9624TIP3   OH250362   0.147   4.271   3.743  0.2821 -0.3479 -0.4299
 9624TIP3    H150363   0.169   4.183   3.713 -0.4258 -0.3921 -0.8208
 9624TIP3    H250364   0.116   4.316   3.665 -1.7310 -0.5085  0.2440
 9625TIP3   OH250365   1.664   4.707   2.585 -0.0571 -0.1244  0.3099
 9625TIP3    H150366   1.674   4.620   2.546 -0.2723 -0.8319  1.8047
 9625TIP3    H250367   1.570   4.716   2.600 -0.0454  0.4077  0.0635
 9626TIP3   OH250368   3.228   0.055   1.613 -0.5703 -0.8254 -0.2833
 9626TIP3    H150369   3.282   0.075   1.689 -0.8668  3.0172 -1.0090
 9626TIP3    H250370   3.138   0.053   1.646 -0.4782 -1.9778 -0.0612
 9627TIP3   OH250371   6.392   2.273  11.637  0.1385 -0.1139  0.3998
 9627TIP3    H150372   6.411   2.362  11.608 -0.0773 -0.4117 -0.6905
 9627TIP3    H250373   6.339   2.236  11.566 -1.2102 -0.5600  1.6168
 9628TIP3   OH250374   5.494   0.668   3.845 -0.4348 -0.4199 -0.2758
 9628TIP3    H150375   5.532   0.685   3.759  1.0804  1.4765  0.7336
 9628TIP3    H250376   5.509   0.575   3.859 -0.7935 -0.7770 -2.1030
 9629TIP3   OH250377   1.638   2.047  16.680 -0.3998 -0.4189 -0.5100
 9629TIP3    H150378   1.583   2.032  16.757 -0.6842  1.2937 -0.3397
 9629TIP3    H250379   1.726   2.022  16.708 -0.3265  1.1021  0.7350
 9630TIP3   OH250380   6.325   3.248  13.171 -0.5116 -0.0011 -0.2876
 9630TIP3    H150381   6.346   3.340  13.187  1.3762 -0.5507  0.5092
 9630TIP3    H250382   6.233   3.240  13.198 -1.2224  2.0084 -1.9814
 9631TIP3   OH250383   0.448   0.980  12.246 -0.6897  0.0450 -0.0649
 9631TIP3    H150384   0.470   1.007  12.335  1.3351  0.2771 -0.5979
 9631TIP3    H250385   0.505   1.034  12.191 -3.4716  1.5137 -1.6267
 9632TIP3   OH250386   3.045   0.037   6.021 -0.0471 -0.0296  0.5431
 9632TIP3    H150387   3.067   0.011   6.111  1.8834  0.6357  0.2929
 9632TIP3    H250388   3.073   0.129   6.016  1.7122 -0.6412 -1.3215
 9633TIP3   OH250389   1.818   3.825  11.645 -0.7942  0.0200 -0.1939
 9633TIP3    H150390   1.823   3.880  11.723 -0.0787 -1.4764  0.8385
 9633TIP3    H250391   1.771   3.747  11.674  0.4892 -1.0449 -0.9550
 9634TIP3   OH250392   2.155   0.206   1.149 -0.4997 -0.4814 -0.1994
 9634TIP3    H150393   2.207   0.159   1.214 -0.0172 -0.5593 -0.6319
 9634TIP3    H250394   2.220   0.242   1.088 -0.7989  1.7680  0.7926
 9635TIP3   OH250395   3.316   4.084   0.916 -0.1496 -0.0612  0.4975
 9635TIP3    H150396   3.343   4.052   0.830  1.7841  1.5001  0.4741
 9635TIP3    H250397   3.225   4.057   0.925 -0.0548 -1.1701 -1.5818
 9636TIP3   OH250398   0.100   5.803   2.737 -0.0427 -0.0347  0.0591
 9636TIP3    H150399   0.030   5.851   2.781 -0.3069  0.5188 -0.9527
 9636TIP3    H250400   0.091   5.713   2.769 -1.3848 -0.0265 -0.2493
 9637TIP3   OH250401   4.825   5.647   0.400 -0.2815 -0.5358 -0.7581
 9637TIP3    H150402   4.853   5.596   0.476  0.6141 -1.4440 -1.6745
 9637TIP3    H250403   4.736   5.675   0.421 -0.6852 -2.2399 -0.1293
 9638TIP3   OH250404   1.937   4.352   1.382 -0.3458  0.3541  0.1195
 9638TIP3    H150405   1.906   4.295   1.452  0.3451  0.7002  0.7085
 9638TIP3    H250406   2.024   4.318   1.359  0.0411  1.1250  0.4290
 9639TIP3   OH250407   1.272   1.729   1.076  0.9445  0.2156  0.3514
 9639TIP3    H150408   1.305   1.693   1.158  1.0905  1.8984  1.0566
 9639TIP3    H250409   1.326   1.806   1.061  0.3380  0.4071 -0.8782
 9640TIP3   OH250410   2.322   4.408   5.600  0.1528 -0.1330  0.6702
 9640TIP3    H150411   2.383   4.436   5.531 -0.2325 -1.5894 -0.2778
 9640TIP3    H250412   2.236   4.414   5.560  0.0175 -2.0338  0.6647
 9641TIP3   OH250413   5.725   3.348   4.719  0.0721 -0.3281 -0.1360
 9641TIP3    H150414   5.642   3.364   4.763  0.0820 -0.6001 -0.0156
 9641TIP3    H250415   5.706   3.365   4.626  0.1425  0.5702  0.0097
 9642TIP3   OH250416   2.028   6.387   2.327  0.5222  0.0979 -0.2519
 9642TIP3    H150417   2.011   6.407   2.419  1.6091  1.8132 -0.4065
 9642TIP3    H250418   1.970   6.314   2.307  0.9853 -0.9260  2.0610
 9643TIP3   OH250419   0.940   6.108  15.566  0.1941 -0.3388 -0.3542
 9643TIP3    H150420   0.949   6.147  15.479 -1.2513  0.0386 -0.3582
 9643TIP3    H250421   0.959   6.015  15.554 -1.3503 -0.5363 -1.3521
 9644TIP3   OH250422   2.795   0.408  15.165  0.0810 -0.5120 -0.3145
 9644TIP3    H150423   2.878   0.377  15.202  0.0352  0.9028  1.0655
 9644TIP3    H250424   2.766   0.338  15.108  1.9335 -1.2929 -0.3427
 9645TIP3   OH250425   2.337   4.697  16.590 -0.4797  0.4894  0.8234
 9645TIP3    H150426   2.409   4.752  16.621  0.6791 -0.7740  0.4357
 9645TIP3    H250427   2.363   4.608  16.614 -2.0041  0.0212  0.8350
 9646TIP3   OH250428   1.131   1.160  11.270  0.2048 -0.4014 -0.7961
 9646TIP3    H150429   1.091   1.108  11.341 -0.2648  0.3549 -0.5073
 9646TIP3    H250430   1.060   1.173  11.207 -0.0546  1.1082 -0.1908
 9647TIP3   OH250431   4.992   6.138  11.057 -0.1077 -0.3718 -0.5585
 9647TIP3    H150432   5.057   6.150  11.126  0.2251  1.9022 -1.2244
 9647TIP3    H250433   5.012   6.052  11.020  2.0856 -0.0223 -0.2809
 9648TIP3   OH250434   4.216   0.720  11.793 -0.0292  0.0703  0.1043
 9648TIP3    H150435   4.248   0.644  11.841  1.0911  0.2454 -0.3615
 9648TIP3    H250436   4.273   0.727  11.716 -2.5238 -0.8839 -1.8826
 9649TIP3   OH250437   0.635   2.997  16.450  0.1862  0.0640 -0.2664
 9649TIP3    H150438   0.610   3.023  16.539 -0.1708  2.7071 -1.0924
 9649TIP3    H250439   0.582   2.919  16.432  1.9138 -1.8721  2.6322
 9650TIP3   OH250440   0.227   1.441  11.539  0.0960 -0.3624 -0.4848
 9650TIP3    H150441   0.166   1.396  11.597  0.3237  0.4804  0.4374
 9650TIP3    H250442   0.305   1.385  11.538  0.3898  0.0026  0.6789
 9651TIP3   OH250443   6.772   0.620   1.017  0.4102 -0.5944  0.3257
 9651TIP3    H150444   6.836   0.552   1.038  0.7226 -0.9804 -1.7150
 9651TIP3    H250445   6.765   0.672   1.096  2.3364 -1.2832  0.9851
 9652TIP3   OH250446   6.231   2.170  15.400  0.3901 -0.0499 -0.1885
 9652TIP3    H150447   6.306   2.194  15.346 -0.0585  1.4670 -0.1587
 9652TIP3    H250448   6.222   2.075  15.388  1.5161 -0.0424 -1.1893
 9653TIP3   OH250449   3.693   5.540  17.182  0.0277 -0.1153  0.4906
 9653TIP3    H150450   3.718   5.477  17.250  0.9974 -2.0669 -1.6060
 9653TIP3    H250451   3.669   5.485  17.107 -1.2679  1.9886 -0.6836
 9654TIP3   OH250452   5.684   1.305  10.232  0.1731  0.4781 -0.6610
 9654TIP3    H150453   5.720   1.376  10.178 -0.0963  1.6433  0.6526
 9654TIP3    H250454   5.618   1.348  10.286  0.3296 -0.7095  0.4820
 9655TIP3   OH250455   4.227   6.709  14.391  0.0076 -0.3382 -0.0580
 9655TIP3    H150456   4.158   6.643  14.382 -0.1395 -0.1036 -0.6614
 9655TIP3    H250457   4.232   6.751  14.305  0.1727  0.3702  0.2947
 9656TIP3   OH250458   5.500   1.158   5.019  0.0502  0.4414  0.5257
 9656TIP3    H150459   5.442   1.231   4.999  1.0126  1.6605  2.0248
 9656TIP3    H250460   5.576   1.198   5.062  1.6975 -1.1937 -0.7633
 9657TIP3   OH250461   1.692   6.491   6.297  0.1187 -0.1634 -0.1930
 9657TIP3    H150462   1.732   6.470   6.382 -0.7021 -0.3331  0.1572
 9657TIP3    H250463   1.601   6.464   6.307 -0.8103  2.9006  0.0208
 9658TIP3   OH250464   1.132   4.173   1.246  0.0275 -0.7197 -0.4955
 9658TIP3    H150465   1.091   4.146   1.163  0.1755 -0.2089 -0.7370
 9658TIP3    H250466   1.067   4.152   1.313 -0.4501 -0.3297 -0.8308
 9659TIP3   OH250467   2.847   0.696  16.553  0.0645  0.6133 -0.3375
 9659TIP3    H150468   2.925   0.648  16.580 -1.9695 -2.1510  0.8079
 9659TIP3    H250469   2.810   0.729  16.634  0.1961  2.2206 -0.9178
 9660TIP3   OH250470   2.692   6.252  14.414  0.0099 -0.3875 -0.3514
 9660TIP3    H150471   2.705   6.282  14.324  1.6803  0.8716  0.2834
 9660TIP3    H250472   2.604   6.281  14.437  0.1494  0.6263 -1.0665
 9661TIP3   OH250473   0.868   4.604  15.087 -0.2347  0.0128  0.5850
 9661TIP3    H150474   0.953   4.594  15.045  0.3531 -3.0137  2.3411
 9661TIP3    H250475   0.885   4.661  15.162  0.0055  0.2864  0.3224
 9662TIP3   OH250476   2.794   5.499   1.048 -0.3076  0.0747 -0.5789
 9662TIP3    H150477   2.831   5.421   1.091 -2.4284 -1.0520 -0.7334
 9662TIP3    H250478   2.786   5.563   1.119  0.0915 -0.3396 -0.1526
 9663TIP3   OH250479   5.531   4.270  16.267 -0.0611  0.1751  0.3474
 9663TIP3    H150480   5.471   4.292  16.196  0.4824  2.5750  0.5973
 9663TIP3    H250481   5.614   4.249  16.222 -0.5024 -1.1841  0.1327
 9664TIP3   OH250482   3.595   1.138   6.008 -0.2588  0.6132 -0.4956
 9664TIP3    H150483   3.520   1.104   6.058  0.5210  1.2446  1.1324
 9664TIP3    H250484   3.627   1.211   6.060  2.0771 -0.2332 -0.6862
 9665TIP3   OH250485   1.555   3.725   0.459 -1.2590  0.2779  0.4178
 9665TIP3    H150486   1.574   3.635   0.487  0.8171  0.0103 -1.6171
 9665TIP3    H250487   1.637   3.772   0.474 -2.0931  1.6397  0.7322
 9666TIP3   OH250488   6.372   3.696  14.762 -0.4063  0.0236 -0.8149
 9666TIP3    H150489   6.455   3.739  14.785  0.0755 -0.8916 -0.8299
 9666TIP3    H250490   6.310   3.768  14.754  0.2169  0.6599 -0.0653
 9667TIP3   OH250491   2.207   5.313   6.246  0.3575  0.6335 -0.6485
 9667TIP3    H150492   2.241   5.390   6.291  0.5535  0.5016 -0.5750
 9667TIP3    H250493   2.139   5.280   6.304 -0.4959  1.3938 -1.1915
 9668TIP3   OH250494   4.014   5.992   0.812 -0.0877  0.0794 -0.6614
 9668TIP3    H150495   3.998   6.005   0.905 -0.2725 -1.8392 -0.4016
 9668TIP3    H250496   3.928   5.992   0.771  0.0545  1.9415 -0.9896
 9669TIP3   OH250497   4.716   2.749   0.178 -0.3078 -0.7426  0.5856
 9669TIP3    H150498   4.648   2.771   0.242 -0.0738  0.0703  0.5532
 9669TIP3    H250499   4.798   2.777   0.218 -0.0772 -0.9379  0.2560
 9670TIP3   OH250500   3.438   0.245  14.671  0.0048 -0.0302  0.6021
 9670TIP3    H150501   3.400   0.291  14.596  0.9894 -0.7569 -0.3568
 9670TIP3    H250502   3.365   0.197  14.710 -0.1928 -0.9787 -0.8967
 9671TIP3   OH250503   3.182   5.348   5.583  0.5795  0.5277 -0.6371
 9671TIP3    H150504   3.172   5.315   5.673  0.1836 -0.8517 -1.1808
 9671TIP3    H250505   3.116   5.417   5.576  0.4912  0.5257  0.0743
 9672TIP3   OH250506   6.630   0.569   5.940  0.1026  0.4324  0.2972
 9672TIP3    H150507   6.568   0.517   5.991  1.1238  0.5552  1.6673
 9672TIP3    H250508   6.659   0.510   5.870 -0.5031 -0.0719  0.4669
 9673TIP3   OH250509   2.159   3.524   6.067  0.2506  1.1329 -0.4631
 9673TIP3    H150510   2.197   3.448   6.111 -0.3139  0.9563 -0.2713
 9673TIP3    H250511   2.083   3.546   6.121  0.4682  1.8881 -0.4675
 9674TIP3   OH250512   4.203   6.068  12.021  0.0922 -0.3241  0.7086
 9674TIP3    H150513   4.141   6.122  11.973  0.7443 -1.6203 -1.6308
 9674TIP3    H250514   4.284   6.119  12.021  0.3950 -0.8077 -0.5114
 9675TIP3   OH250515   5.015   5.089  14.927 -0.9963 -0.6342 -0.3418
 9675TIP3    H150516   5.031   5.161  14.988  0.1776 -0.5527 -0.7392
 9675TIP3    H250517   5.054   5.117  14.845 -1.7774 -1.1304 -0.8954
 9676TIP3   OH250518   3.300   2.093   3.125 -0.0020  0.2515  0.1544
 9676TIP3    H150519   3.394   2.098   3.105  0.3238 -0.1333  1.5579
 9676TIP3    H250520   3.289   2.007   3.165 -0.6131  1.0868  1.7950
 9677TIP3   OH250521   2.558   2.996   1.437  0.0681  0.0898  0.2664
 9677TIP3    H150522   2.467   2.987   1.467  0.0039 -0.1486  0.0054
 9677TIP3    H250523   2.611   2.985   1.516 -0.1407  0.4282  0.4521
 9678TIP3   OH250524   2.457   3.399  12.732  0.3716  0.2450  0.3637
 9678TIP3    H150525   2.423   3.480  12.769  1.4782  1.1454 -0.5727
 9678TIP3    H250526   2.521   3.369  12.796  0.1824  0.2561  0.5609
 9679TIP3   OH250527   1.067   2.415  16.974  0.0623  0.1601  0.1013
 9679TIP3    H150528   0.991   2.451  16.928  1.1721  1.8487 -0.4294
 9679TIP3    H250529   1.091   2.338  16.923 -1.5688 -0.6971  0.5578
 9680TIP3   OH250530   3.474   1.339   6.222  0.4057  0.3439  0.4922
 9680TIP3    H150531   3.440   1.250   6.233  1.6257 -0.1233  0.6521
 9680TIP3    H250532   3.560   1.326   6.182 -0.8291  1.6352 -2.7765
 9681TIP3   OH250533   1.683   6.210   0.503 -0.7692 -0.6091  0.3400
 9681TIP3    H150534   1.771   6.248   0.511 -0.7301 -0.9159  1.4344
 9681TIP3    H250535   1.624   6.281   0.527 -0.7542 -0.8669  1.1303
 9682TIP3   OH250536   1.755   4.359  15.869  0.2060  0.6970 -0.6377
 9682TIP3    H150537   1.785   4.278  15.829  1.1618  0.3887  0.6511
 9682TIP3    H250538   1.829   4.388  15.923 -0.3262  2.1327 -0.6647
 9683TIP3   OH250539   2.174   4.447  14.372  0.5203  0.2537  0.4024
 9683TIP3    H150540   2.228   4.368  14.376  1.2169  0.7754  1.2987
 9683TIP3    H250541   2.187   4.480  14.282 -0.5293 -1.1666 -0.2884
 9684TIP3   OH250542   2.025   5.700   0.590 -0.3272 -0.0248  0.0195
 9684TIP3    H150543   2.103   5.677   0.641  0.0173 -0.1523 -0.5620
 9684TIP3    H250544   2.056   5.760   0.523 -0.0084 -2.9998 -2.5858
 9685TIP3   OH250545   2.732   1.161  12.860  1.0313  0.3300  0.3105
 9685TIP3    H150546   2.643   1.138  12.833 -0.4170  1.8070  3.5590
 9685TIP3    H250547   2.779   1.078  12.864 -0.2686 -0.5003 -1.0641
 9686TIP3   OH250548   0.443   1.901   5.271 -0.0841 -0.3523  0.1907
 9686TIP3    H150549   0.527   1.870   5.305  0.3466  1.6589  1.0418
 9686TIP3    H250550   0.387   1.824   5.272  1.3680 -1.4194  0.9063
 9687TIP3   OH250551   6.469   2.182  17.049 -0.4225  0.4814 -0.0192
 9687TIP3    H150552   6.500   2.228  16.972  1.0009 -0.3563  0.0372
 9687TIP3    H250553   6.375   2.201  17.052 -0.2367  1.6692 -1.1447
 9688TIP3   OH250554   0.960   4.192  16.471 -0.1338  0.1782 -0.6581
 9688TIP3    H150555   0.974   4.229  16.558 -1.9155 -1.5165  0.3950
 9688TIP3    H250556   1.048   4.168  16.441  0.5078  0.7648  0.6895
 9689TIP3   OH250557   5.739   1.407   6.091 -0.4368  0.0523 -0.7311
 9689TIP3    H150558   5.664   1.387   6.147  0.0705  2.1880  0.7837
 9689TIP3    H250559   5.710   1.482   6.038  0.4457  0.5894 -0.4738
 9690TIP3   OH250560   5.329   4.698  13.306 -0.5786  0.6090  0.0739
 9690TIP3    H150561   5.399   4.635  13.323  0.2662  1.5057 -0.0426
 9690TIP3    H250562   5.256   4.645  13.275  0.0056 -0.3479  0.3083
 9691TIP3   OH250563   5.464   0.037  15.499 -0.5130 -0.2375 -0.3633
 9691TIP3    H150564   5.384  -0.015  15.506  0.0981 -1.1058  0.1837
 9691TIP3    H250565   5.522   0.002  15.566 -0.1358  1.2289  0.1036
 9692TIP3   OH250566   2.007   5.840  16.652 -0.5266  0.2303 -0.2025
 9692TIP3    H150567   2.075   5.793  16.604 -0.6236 -0.4693  0.3451
 9692TIP3    H250568   1.995   5.790  16.733 -0.4307  1.3494  0.5157
 9693TIP3   OH250569   6.640   1.648   1.874  0.4585  0.2525  0.4715
 9693TIP3    H150570   6.671   1.562   1.845  1.3911  0.0148  2.1338
 9693TIP3    H250571   6.660   1.706   1.800  0.9400 -0.7119 -0.1740
 9694TIP3   OH250572   3.981   5.908   4.232 -0.8379  0.2199 -0.1103
 9694TIP3    H150573   3.965   5.814   4.242  0.8394 -0.0150  0.4074
 9694TIP3    H250574   3.993   5.940   4.322  0.6514  0.5533 -0.4184
 9695TIP3   OH250575   5.473   3.591  14.021  0.0897  0.1112  0.0927
 9695TIP3    H150576   5.448   3.552  14.104  1.3244 -1.0456 -0.0705
 9695TIP3    H250577   5.498   3.681  14.043  0.9911 -0.3723  1.0692
 9696TIP3   OH250578   4.382   4.808   2.706  0.6277  0.6533 -0.3056
 9696TIP3    H150579   4.468   4.808   2.749  1.1643  1.7715 -1.3491
 9696TIP3    H250580   4.380   4.891   2.657 -0.6303  0.1529 -1.1142
 9697TIP3   OH250581   0.346   6.191   3.804  0.5681 -0.4328  0.0800
 9697TIP3    H150582   0.412   6.183   3.736 -0.0533  0.2650 -0.6293
 9697TIP3    H250583   0.376   6.264   3.859 -0.0612  0.5031 -0.7877
 9698TIP3   OH250584   4.912   5.613  12.986  0.1750 -0.0718  0.4856
 9698TIP3    H150585   4.955   5.676  12.928 -1.1704 -1.1359 -1.7328
 9698TIP3    H250586   4.824   5.649  13.000 -0.1902 -0.8435  0.1874
 9699TIP3   OH250587   5.800   0.560  14.405 -0.2716 -0.1336 -0.1971
 9699TIP3    H150588   5.761   0.474  14.392 -0.2145 -0.1512 -0.2525
 9699TIP3    H250589   5.735   0.621  14.372 -1.0379 -0.0574  1.4211
 9700TIP3   OH250590   4.407   4.573   2.948  0.5980  0.3006 -0.1206
 9700TIP3    H150591   4.367   4.579   2.861  1.7717  0.5445 -0.6565
 9700TIP3    H250592   4.476   4.639   2.947 -0.1510  1.1301  1.4230
 9701TIP3   OH250593   3.827   3.291  13.214  0.1084 -0.2289  0.4416
 9701TIP3    H150594   3.804   3.305  13.122 -0.9359 -0.5715  0.6460
 9701TIP3    H250595   3.784   3.209  13.237  0.7440 -0.3791  1.1155
 9702TIP3   OH250596   5.139   2.436   0.728  0.2747  0.2050 -0.0908
 9702TIP3    H150597   5.223   2.473   0.755  0.6469 -1.3338  0.9558
 9702TIP3    H250598   5.106   2.392   0.806 -0.5157 -0.9653 -1.0555
 9703TIP3   OH250599   3.985   0.564  16.064 -1.3089  0.2453  0.2608
 9703TIP3    H150600   3.938   0.504  16.122 -0.3123 -1.6717 -0.8785
 9703TIP3    H250601   3.958   0.538  15.976 -0.3506  1.0376 -0.2759
 9704TIP3   OH250602   2.300   3.256   1.160  0.2828  0.0192 -0.1782
 9704TIP3    H150603   2.281   3.330   1.102 -1.9237  0.3568  0.9233
 9704TIP3    H250604   2.287   3.178   1.105 -0.2269  0.3722 -0.5539
 9705TIP3   OH250605   1.894   1.008  14.289  0.3849  0.1711 -0.5034
 9705TIP3    H150606   1.856   0.999  14.202 -1.1904 -2.2111  0.4079
 9705TIP3    H250607   1.847   1.082  14.328 -0.0609  0.1761 -1.0485
 9706TIP3   OH250608   0.480   0.002  10.500  0.2891 -0.2898  0.1871
 9706TIP3    H150609   0.497  -0.069  10.438  1.3164 -0.8209  1.0522
 9706TIP3    H250610   0.532   0.075  10.469 -0.4703 -0.0384 -0.4917
 9707TIP3   OH250611   4.679   3.464   1.694 -1.2292  0.6358  0.5883
 9707TIP3    H150612   4.614   3.437   1.630 -2.1265 -0.6788  1.9976
 9707TIP3    H250613   4.644   3.434   1.778  0.5979  1.0147  1.5273
 9708TIP3   OH250614   5.504   1.207   0.364  0.2274  0.3907 -0.2295
 9708TIP3    H150615   5.597   1.214   0.384  0.2876  2.1515 -0.9923
 9708TIP3    H250616   5.460   1.239   0.443  0.2895  0.0905 -0.0751
 9709TIP3   OH250617   6.731   3.962  16.190  0.0321  0.1694 -1.0017
 9709TIP3    H150618   6.825   3.981  16.198 -0.2277  1.0960 -0.1922
 9709TIP3    H250619   6.689   4.047  16.191 -0.8740 -0.2805 -0.7506
 9710TIP3   OH250620   6.711   3.989   0.706  0.5500 -0.3280 -0.1369
 9710TIP3    H150621   6.733   3.951   0.621 -2.0377  1.5224 -1.6869
 9710TIP3    H250622   6.655   3.923   0.747 -0.8309  0.1243 -1.2451
 9711TIP3   OH250623   4.790   6.644  15.978 -0.2040 -0.1770  0.1980
 9711TIP3    H150624   4.853   6.716  15.986  1.2914 -1.2664 -1.3913
 9711TIP3    H250625   4.798   6.596  16.060  1.2499 -0.4560 -0.0957
 9712TIP3   OH250626   6.533   4.486   3.256 -0.3140 -0.1345  0.5492
 9712TIP3    H150627   6.571   4.523   3.335  0.3384  2.8746 -1.0829
 9712TIP3    H250628   6.439   4.482   3.274 -0.1636  0.4543  1.5084
 9713TIP3   OH250629   6.721   0.352   3.435 -0.7148 -0.3004 -0.7014
 9713TIP3    H150630   6.773   0.272   3.445 -0.9159 -0.7102 -2.7849
 9713TIP3    H250631   6.631   0.321   3.433 -0.9189  0.1975  0.6689
 9714TIP3   OH250632   6.433   6.496   3.081 -0.6057  0.6073  0.0748
 9714TIP3    H150633   6.407   6.578   3.124 -0.0379  0.5044  0.6318
 9714TIP3    H250634   6.350   6.455   3.056 -0.8191  2.8915 -3.2128
 9715TIP3   OH250635   5.111   1.735   3.199 -1.4717  0.1673 -0.1559
 9715TIP3    H150636   5.066   1.732   3.283  0.0149 -0.4065  0.6433
 9715TIP3    H250637   5.190   1.681   3.212 -0.4010  1.3808 -1.4121
 9716TIP3   OH250638   6.756   3.770  10.634 -0.1094  0.0847  0.4886
 9716TIP3    H150639   6.850   3.756  10.628 -0.4408 -1.7026 -0.9094
 9716TIP3    H250640   6.723   3.697  10.685 -0.9343 -0.2519 -0.4863
 9717TIP3   OH250641   3.380   2.126   3.635  0.6229 -0.2282  0.2326
 9717TIP3    H150642   3.433   2.069   3.691 -0.4521 -0.8439  0.6208
 9717TIP3    H250643   3.394   2.214   3.671  2.4339 -0.1858 -0.4848
 9718TIP3   OH250644   4.163   5.799  14.694 -0.4851  0.8469  0.2102
 9718TIP3    H150645   4.177   5.773  14.603 -1.5691  1.0151 -0.0109
 9718TIP3    H250646   4.125   5.721  14.735  2.6282 -0.2098  1.2399
 9719TIP3   OH250647   2.980   2.369   5.301  0.5976 -0.2824 -0.5521
 9719TIP3    H150648   2.997   2.386   5.394 -2.1580 -3.9555  0.7281
 9719TIP3    H250649   3.067   2.368   5.260  2.0665 -1.3939  2.4903
 9720TIP3   OH250650   1.206   1.524  15.942 -0.2344  0.7007 -0.1888
 9720TIP3    H150651   1.118   1.493  15.917 -0.5342  0.5341  1.0149
 9720TIP3    H250652   1.261   1.445  15.937 -0.1376  0.8213 -1.0191
 9721TIP3   OH250653   2.780   6.801   4.562 -0.1505  0.1513 -0.5610
 9721TIP3    H150654   2.860   6.835   4.523 -0.4514  1.6863  0.1254
 9721TIP3    H250655   2.809   6.749   4.637  0.1609  1.7321  0.4356
 9722TIP3   OH250656   4.310   6.559   5.026 -0.0646  0.0330 -0.3473
 9722TIP3    H150657   4.353   6.641   5.004  1.7699 -1.0530 -0.9120
 9722TIP3    H250658   4.248   6.545   4.955  0.4692  0.3279 -0.8752
 9723TIP3   OH250659   1.599   5.404  14.525 -0.0669 -0.5038  0.3665
 9723TIP3    H150660   1.689   5.384  14.551  0.2354  0.9138  0.4418
 9723TIP3    H250661   1.559   5.318  14.508  1.1550 -1.1635  0.7866
 9724TIP3   OH250662   1.340   1.356   1.517 -0.1135 -0.2914  0.6715
 9724TIP3    H150663   1.416   1.300   1.501  0.0797 -0.1100  0.9452
 9724TIP3    H250664   1.377   1.437   1.552 -0.4743 -0.4572  1.4537
 9725TIP3   OH250665   1.250   4.935   4.999  0.0672  0.3035 -0.4243
 9725TIP3    H150666   1.328   4.904   4.955  0.4088  0.3778  0.1209
 9725TIP3    H250667   1.230   5.019   4.957 -0.2621 -0.1495 -1.1905
 9726TIP3   OH250668   4.763   3.882  14.345  0.0988  0.4412  0.0438
 9726TIP3    H150669   4.790   3.865  14.435 -1.7343  1.0768  0.7525
 9726TIP3    H250670   4.687   3.825  14.332 -0.0421  0.8331 -0.8924
 9727TIP3   OH250671   2.698   0.322  15.816  0.2700  0.0337 -0.0830
 9727TIP3    H150672   2.713   0.269  15.738 -2.4733  0.1462 -0.7102
 9727TIP3    H250673   2.684   0.259  15.886  1.0631 -0.0507  0.0125
 9728TIP3   OH250674   3.894   5.603  15.613 -0.3535 -0.4260 -0.2159
 9728TIP3    H150675   3.869   5.537  15.548 -1.2097  0.3653 -0.7234
 9728TIP3    H250676   3.844   5.579  15.691  0.9527 -1.5874  0.2711
 9729TIP3   OH250677   3.334   5.079  11.794  1.0380  0.1869  0.7257
 9729TIP3    H150678   3.331   5.115  11.705 -2.9584  1.6147  1.3355
 9729TIP3    H250679   3.319   4.986  11.783  1.9455  0.1330 -0.1635
 9730TIP3   OH250680   1.352   5.990  14.986  0.3309  0.1859  0.2450
 9730TIP3    H150681   1.270   5.981  15.035  0.0308  0.4025 -0.2126
 9730TIP3    H250682   1.325   6.011  14.897  0.8969  1.1581  0.2899
 9731TIP3   OH250683   0.461   4.551   0.268 -0.5585 -0.0518 -0.6641
 9731TIP3    H150684   0.519   4.620   0.299  0.9117 -0.7238 -1.8298
 9731TIP3    H250685   0.520   4.490   0.222 -1.6583 -2.5455  1.1465
 9732TIP3   OH250686   0.691   3.106  11.713 -0.0305  0.4660  0.2943
 9732TIP3    H150687   0.653   3.079  11.630 -0.5675  0.8263  0.4174
 9732TIP3    H250688   0.734   3.189  11.694 -0.2251  0.5906  0.3916
 9733TIP3   OH250689   6.403   1.378   3.710  0.1338  0.2062  0.0541
 9733TIP3    H150690   6.347   1.380   3.633 -2.0755 -3.1513  1.4631
 9733TIP3    H250691   6.359   1.434   3.773  1.2711  1.9256 -0.6500
 9734TIP3   OH250692   4.850   1.806  11.979  0.4200 -0.3098  0.2648
 9734TIP3    H150693   4.776   1.744  11.980 -0.9880  1.3413  0.2406
 9734TIP3    H250694   4.897   1.785  11.898  0.0174 -1.4133  0.3047
 9735TIP3   OH250695   6.701   2.530   1.709 -0.3120 -0.4175  0.5160
 9735TIP3    H150696   6.748   2.529   1.627  1.5395 -0.6573  1.5562
 9735TIP3    H250697   6.616   2.569   1.688  0.5282  0.4861 -1.2758
 9736TIP3   OH250698   5.761   6.155   5.089 -0.1215 -0.1594  0.1019
 9736TIP3    H150699   5.692   6.162   5.024  0.8774  2.9540 -0.7015
 9736TIP3    H250700   5.747   6.230   5.148  1.4888 -0.5204  0.9739
 9737TIP3   OH250701   3.697   2.982   0.534 -0.0479  0.2736  0.0603
 9737TIP3    H150702   3.751   2.936   0.469 -0.3237 -1.7461  1.2274
 9737TIP3    H250703   3.728   3.073   0.531  0.5993  0.0006 -2.1968
 9738TIP3   OH250704   6.794   0.553  10.971  0.0815 -0.1503 -0.7444
 9738TIP3    H150705   6.762   0.641  10.948  0.9600  0.0229 -1.2960
 9738TIP3    H250706   6.715   0.505  10.996 -0.2954  1.0967  0.5191
 9739TIP3   OH250707   5.668   6.633  16.078 -0.2511  0.9872  0.0201
 9739TIP3    H150708   5.623   6.643  16.162 -1.6441  1.0669 -0.7218
 9739TIP3    H250709   5.723   6.710  16.070  1.4400  0.0087  1.7842
 9740TIP3   OH250710   4.632   1.810   1.461  0.0462  0.2070  0.1727
 9740TIP3    H150711   4.561   1.766   1.413  0.5907  0.8501 -1.2526
 9740TIP3    H250712   4.706   1.750   1.453  0.1861  0.3922  0.0893
 9741TIP3   OH250713   2.462   4.191  16.349  0.4960  0.1045 -0.6725
 9741TIP3    H150714   2.417   4.175  16.432  0.3012  0.6812 -0.6667
 9741TIP3    H250715   2.394   4.223  16.290  0.5673 -0.6098 -1.1584
 9742TIP3   OH250716   5.583   1.044   2.006 -0.3003 -0.0321  0.0289
 9742TIP3    H150717   5.545   0.996   2.080 -0.9563  0.6858  0.1705
 9742TIP3    H250718   5.567   0.988   1.930 -0.8271 -0.1631  0.2324
 9743TIP3   OH250719   2.189   4.814  12.400  0.0587  0.2454 -0.6447
 9743TIP3    H150720   2.277   4.786  12.424  0.6966  2.3361 -0.4103
 9743TIP3    H250721   2.194   4.836  12.307  0.3334  2.2761 -0.1802
 9744TIP3   OH250722   3.249   4.036   2.150 -0.1605 -0.3866 -0.1426
 9744TIP3    H150723   3.196   4.091   2.093  0.6326  0.9422  0.3668
 9744TIP3    H250724   3.196   3.959   2.166 -1.4278  0.3702 -0.6276
 9745TIP3   OH250725   0.180   1.377  12.619  0.2325 -0.1311  0.3145
 9745TIP3    H150726   0.156   1.453  12.672 -0.2747  1.0354 -1.5398
 9745TIP3    H250727   0.273   1.364  12.636  0.3690  1.0526  0.5030
 9746TIP3   OH250728   6.222   5.606  17.050  0.4664  0.2317 -0.5583
 9746TIP3    H150729   6.238   5.577  17.140  1.7131  1.1566 -0.4782
 9746TIP3    H250730   6.185   5.529  17.007 -0.7327 -0.0309  0.9052
 9747TIP3   OH250731   4.416   4.724  13.069 -0.0622 -0.3862  0.0006
 9747TIP3    H150732   4.377   4.640  13.045 -1.0365  0.3595 -1.0746
 9747TIP3    H250733   4.346   4.772  13.113  0.1607  0.2796 -0.3583
 9748TIP3   OH250734   2.042   3.503  13.507 -0.4151  0.2391  1.2606
 9748TIP3    H150735   2.121   3.556  13.493 -1.3226  1.5977  1.0994
 9748TIP3    H250736   2.065   3.416  13.475  1.1037  0.5556  1.4656
 9749TIP3   OH250737   0.205   2.588  16.314  0.7128 -0.2754  0.0400
 9749TIP3    H150738   0.227   2.604  16.406  1.9862  0.3886 -0.3687
 9749TIP3    H250739   0.197   2.493  16.308 -0.4219 -0.2532  1.0576
 9750TIP3   OH250740   0.302   4.126   4.879 -0.2210  0.8041 -0.2756
 9750TIP3    H150741   0.254   4.199   4.919 -0.1149  1.1402 -0.7584
 9750TIP3    H250742   0.317   4.154   4.789  0.7460  0.6367 -0.1765
 9751TIP3   OH250743   3.480   2.048  15.202  1.1308 -0.2586 -0.2874
 9751TIP3    H150744   3.392   2.087  15.194  1.3860  0.7372  1.4505
 9751TIP3    H250745   3.529   2.112  15.254  2.2768 -1.7751  0.5335
 9752TIP3   OH250746   4.213   1.956  13.525 -0.5451 -0.2475 -0.3054
 9752TIP3    H150747   4.162   1.876  13.510 -1.2688  0.0338  0.6086
 9752TIP3    H250748   4.274   1.960  13.451 -0.1338 -1.9391 -0.0767
 9753TIP3   OH250749   1.090   5.069  14.789 -0.4194  0.6160  0.4335
 9753TIP3    H150750   1.001   5.055  14.758 -0.6098  1.3760  0.6395
 9753TIP3    H250751   1.093   5.026  14.874 -0.5268  0.4195  0.3397
 9754TIP3   OH250752   4.690   1.685  13.212 -0.3002  0.0366  0.1972
 9754TIP3    H150753   4.635   1.606  13.214 -0.9850  0.5391  2.2839
 9754TIP3    H250754   4.779   1.653  13.229 -0.1109 -0.6061 -1.8103
 9755TIP3   OH250755   5.855   5.766   1.944 -0.5440 -0.2445  0.0999
 9755TIP3    H150756   5.935   5.812   1.971  1.3982 -3.1211 -0.5409
 9755TIP3    H250757   5.816   5.737   2.027 -0.5902  0.6194  0.3863
 9756TIP3   OH250758   1.160   2.729  16.643  0.0032 -0.7635 -0.1649
 9756TIP3    H150759   1.225   2.707  16.710 -0.3483 -1.3531 -0.0070
 9756TIP3    H250760   1.212   2.758  16.568  0.5400 -2.6900 -0.5875
 9757TIP3   OH250761   2.033   4.223  16.761  0.5625 -0.6038 -0.1025
 9757TIP3    H150762   1.971   4.280  16.807  1.7414  0.4141  0.2318
 9757TIP3    H250763   1.986   4.140  16.751 -1.9159  0.9482 -2.2111
 9758TIP3   OH250764   0.700   4.690   0.049 -0.2637  0.4348 -0.0412
 9758TIP3    H150765   0.739   4.709   0.134 -2.1183  2.2677  0.4477
 9758TIP3    H250766   0.766   4.718  -0.015  1.5742 -1.9425  0.7666
 9759TIP3   OH250767   1.370   4.837   1.956 -0.0620 -0.5438 -0.4846
 9759TIP3    H150768   1.457   4.877   1.962 -0.8401  1.1494  0.0014
 9759TIP3    H250769   1.341   4.857   1.866  0.4664 -2.0051 -0.9838
 9760TIP3   OH250770   4.908   0.284   5.537  0.2200  0.0234  0.7901
 9760TIP3    H150771   4.824   0.317   5.569 -0.9923 -1.7723 -0.4267
 9760TIP3    H250772   4.918   0.199   5.580  0.7680 -0.3644 -0.0849
 9761TIP3   OH250773   5.541   6.474   6.058  0.1097  0.1938 -0.3818
 9761TIP3    H150774   5.548   6.515   6.144 -1.0970 -1.6524  0.6294
 9761TIP3    H250775   5.549   6.380   6.076  0.5242 -0.1702 -2.3643
 9762TIP3   OH250776   5.302   4.997  17.089 -0.3964  0.4171 -0.6743
 9762TIP3    H150777   5.267   5.007  17.001 -0.3365  0.1922 -0.7233
 9762TIP3    H250778   5.225   4.977  17.143 -0.1726 -1.3381 -0.9982
 9763TIP3   OH250779   5.309   0.800   2.915 -0.2922 -0.2495 -0.0656
 9763TIP3    H150780   5.401   0.800   2.943 -0.2312  0.9546 -0.2554
 9763TIP3    H250781   5.270   0.726   2.962  0.4926 -0.0452  0.9299
 9764TIP3   OH250782   0.578   4.266  16.716 -0.0437  0.2937 -0.0672
 9764TIP3    H150783   0.497   4.226  16.748 -0.5113  0.9261 -0.4667
 9764TIP3    H250784   0.625   4.292  16.795  0.3600 -1.2393  0.2113
 9765TIP3   OH250785   1.462   3.185  13.480  0.0114 -0.3727  0.1965
 9765TIP3    H150786   1.509   3.249  13.427 -0.6139  0.0614  0.1653
 9765TIP3    H250787   1.410   3.237  13.541 -2.1666 -0.8006 -1.2601
 9766TIP3   OH250788   5.417   0.580  11.536  0.5536  0.0505 -0.0544
 9766TIP3    H150789   5.504   0.541  11.543  0.8846  0.7342 -0.3901
 9766TIP3    H250790   5.422   0.638  11.461 -0.2655 -0.0912 -0.2275
 9767TIP3   OH250791   1.943   3.801  14.164 -0.3941 -0.2197 -0.1167
 9767TIP3    H150792   1.911   3.747  14.237  0.1722 -1.6212 -0.8836
 9767TIP3    H250793   1.864   3.818  14.111 -0.6607  0.1129  0.3848
 9768TIP3   OH250794   1.090   1.111   2.540  0.4434  0.3968 -0.1258
 9768TIP3    H150795   1.087   1.185   2.600 -0.7648 -0.7770  1.2834
 9768TIP3    H250796   1.144   1.045   2.584  0.9958  0.1821 -1.0932
 9769TIP3   OH250797   6.598   0.980   0.717 -0.2962 -0.4838 -0.0366
 9769TIP3    H150798   6.628   1.065   0.686 -0.1067 -0.6046 -0.1884
 9769TIP3    H250799   6.645   0.966   0.799  1.3622 -1.4299 -1.1275
 9770TIP3   OH250800   6.237   5.687  13.017 -0.4457 -0.3924 -0.1820
 9770TIP3    H150801   6.277   5.649  12.939 -0.1304 -1.0716  0.3054
 9770TIP3    H250802   6.251   5.781  13.007 -1.9188 -0.3120 -1.7760
 9771TIP3   OH250803   5.687   5.437   3.536  0.4662  0.2895  0.0301
 9771TIP3    H150804   5.661   5.528   3.521 -0.7095  0.0527  0.5485
 9771TIP3    H250805   5.746   5.441   3.612 -0.4593  0.4987  0.7450
 9772TIP3   OH250806   0.314   0.592   5.507  0.4259  0.0152  0.2341
 9772TIP3    H150807   0.285   0.604   5.597 -1.3944  2.9201 -0.6699
 9772TIP3    H250808   0.385   0.655   5.496 -0.0993  0.4600 -0.6653
 9773TIP3   OH250809   0.603   6.709  16.494 -0.1198 -0.0754  0.1298
 9773TIP3    H150810   0.602   6.613  16.496  1.0574 -0.0896 -0.0454
 9773TIP3    H250811   0.615   6.732  16.402  3.7842  0.1822  0.6244
 9774TIP3   OH250812   3.412   5.486   5.794  0.2122 -0.1011 -0.4389
 9774TIP3    H150813   3.446   5.497   5.883 -0.7846 -1.4060  0.1342
 9774TIP3    H250814   3.405   5.575   5.760 -1.4247  0.5995  1.5884
 9775TIP3   OH250815   6.124   5.415  11.408 -0.2370 -0.1771  0.0585
 9775TIP3    H150816   6.078   5.491  11.445 -1.5853 -0.3828 -1.1548
 9775TIP3    H250817   6.064   5.342  11.421  0.4193 -0.7506 -0.1239
 9776TIP3   OH250818   4.902   0.824  12.389 -0.4016 -0.5941  0.3337
 9776TIP3    H150819   4.872   0.831  12.299  0.9438 -1.6323 -0.2087
 9776TIP3    H250820   4.846   0.757  12.428  0.9808 -2.3598 -0.6111
 9777TIP3   OH250821   6.677   0.605   3.674 -0.4522  0.4554 -0.0992
 9777TIP3    H150822   6.671   0.699   3.689 -0.7565  0.2897  0.8268
 9777TIP3    H250823   6.590   0.579   3.644 -0.7238  0.2553  0.8594
 9778TIP3   OH250824   2.646   4.821  13.307 -0.6409  0.3161 -0.1035
 9778TIP3    H150825   2.596   4.743  13.330  0.5057 -0.5508 -0.4826
 9778TIP3    H250826   2.651   4.871  13.388 -1.3739 -0.0098  0.1507
 9779TIP3   OH250827   3.037   0.408  16.385 -0.2995  0.2396 -0.3671
 9779TIP3    H150828   2.964   0.470  16.391 -1.9289 -1.6398 -0.3115
 9779TIP3    H250829   3.030   0.372  16.296  0.8519  0.3739 -0.5223
 9780TIP3   OH250830   3.498   0.661  17.149  0.2973 -0.4062  0.0916
 9780TIP3    H150831   3.529   0.750  17.128 -2.3583  0.3896 -0.6545
 9780TIP3    H250832   3.523   0.648  17.240  2.7515  0.1890 -0.4415
 9781TIP3   OH250833   2.673   2.040   3.379 -0.3834  0.2488  0.1130
 9781TIP3    H150834   2.762   2.006   3.381 -0.6355 -0.3946  1.0208
 9781TIP3    H250835   2.669   2.094   3.300  0.6204 -0.2168 -0.2619
 9782TIP3   OH250836   2.771   1.053  17.222  0.3683 -0.1902 -0.2083
 9782TIP3    H150837   2.853   1.086  17.259  0.8847  0.8233 -2.1917
 9782TIP3    H250838   2.798   0.984  17.160 -0.4729 -1.8014  1.1758
 9783TIP3   OH250839   6.714   2.731  13.839  0.4574  0.1996 -0.1637
 9783TIP3    H150840   6.780   2.799  13.828  0.3336  0.0261 -2.2575
 9783TIP3    H250841   6.655   2.744  13.764 -2.3645  0.8823  2.0688
 9784TIP3   OH250842   1.984   4.276  15.016  0.1385  0.1106 -0.1408
 9784TIP3    H150843   1.914   4.337  14.992 -0.5105 -0.9710 -1.0151
 9784TIP3    H250844   2.063   4.312  14.974 -0.2350  0.3377 -0.6499
 9785TIP3   OH250845   4.319   3.223   1.748 -0.2256 -0.7784 -0.5455
 9785TIP3    H150846   4.367   3.166   1.807 -1.6116 -0.2926  1.0932
 9785TIP3    H250847   4.227   3.199   1.762 -0.5903 -0.6173 -2.4759
 9786TIP3   OH250848   5.867   6.617  10.377  0.5374 -0.2437  0.0193
 9786TIP3    H150849   5.955   6.637  10.344 -0.0097 -0.9065 -1.9195
 9786TIP3    H250850   5.878   6.614  10.472  2.0050  2.5034  0.0008
 9787TIP3   OH250851   5.724   0.574   2.873 -0.2539  0.5903  0.0761
 9787TIP3    H150852   5.766   0.608   2.952  0.1592  2.5915 -0.9460
 9787TIP3    H250853   5.791   0.520   2.831  0.4378  1.6449 -0.2084
 9788TIP3   OH250854   6.727   5.078  16.548 -0.4148  0.3522 -0.1053
 9788TIP3    H150855   6.741   5.021  16.473 -1.3196  1.4214 -1.1047
 9788TIP3    H250856   6.636   5.106  16.541 -0.7644 -0.2097  1.8778
 9789TIP3   OH250857   5.032   4.223  14.858  0.0964 -0.3600 -0.3076
 9789TIP3    H150858   4.958   4.283  14.849 -0.3056 -0.6506  0.9815
 9789TIP3    H250859   5.035   4.176  14.774 -1.4624 -0.6769 -0.2045
 9790TIP3   OH250860   3.203   5.468  14.164  0.5551  0.1117 -0.6128
 9790TIP3    H150861   3.151   5.389  14.148  2.1886 -1.1192  0.0812
 9790TIP3    H250862   3.280   5.458  14.107  0.9816  0.9944 -0.1975
 9791TIP3   OH250863   3.652   0.558  14.695 -0.4271 -0.9604 -0.5541
 9791TIP3    H150864   3.672   0.490  14.760  0.6541  0.8599  1.0520
 9791TIP3    H250865   3.574   0.601  14.729  1.8011  1.9060  1.1120
 9792TIP3   OH250866   2.021   6.047   1.301  0.4178 -0.2322  0.2063
 9792TIP3    H150867   1.968   6.106   1.354 -0.5302 -0.3170 -0.6248
 9792TIP3    H250868   2.029   5.968   1.354  0.6380  0.1814  0.7966
 9793TIP3   OH250869   4.302   4.268   2.942  0.0968 -0.0062  0.5458
 9793TIP3    H150870   4.317   4.360   2.920 -0.4162  0.2185  1.1100
 9793TIP3    H250871   4.265   4.271   3.031 -1.1697 -0.6733  0.0507
 9794TIP3   OH250872   1.686   1.974  11.479 -0.4587  0.5210  0.2493
 9794TIP3    H150873   1.687   2.063  11.515 -1.8812  1.6140 -2.3047
 9794TIP3    H250874   1.776   1.959  11.451 -0.5200  1.7286 -0.6359
 9795TIP3   OH250875   4.213   3.098   5.384 -0.3630  0.2279 -0.0517
 9795TIP3    H150876   4.267   3.133   5.312  1.8199 -1.0069  0.9492
 9795TIP3    H250877   4.234   3.154   5.459  0.7374 -1.2349  0.7470
 9796TIP3   OH250878   5.261   5.834   4.286 -0.3658 -0.0678  0.1615
 9796TIP3    H150879   5.171   5.831   4.253 -0.2644  0.1748 -0.1486
 9796TIP3    H250880   5.295   5.745   4.273  0.4351  0.5844 -2.6004
 9797TIP3   OH250881   1.106   3.519  13.709 -0.3186 -0.2157 -0.4971
 9797TIP3    H150882   1.117   3.589  13.774  0.7427 -1.8828  1.1588
 9797TIP3    H250883   1.057   3.560  13.638  0.2874  2.2221  0.4367
 9798TIP3   OH250884   3.857   0.200   0.956 -0.0397 -0.2870  0.1291
 9798TIP3    H150885   3.895   0.143   1.023  1.1909 -0.1861 -0.4623
 9798TIP3    H250886   3.774   0.158   0.933  0.2159 -1.1084  0.6782
 9799TIP3   OH250887   3.503   5.326  16.018 -0.1658 -0.1481 -0.3285
 9799TIP3    H150888   3.527   5.355  16.106 -0.9053  0.8807 -0.4615
 9799TIP3    H250889   3.567   5.257  15.997  1.9765  1.7652 -0.2516
 9800TIP3   OH250890   3.823   6.261  11.669  0.1117 -0.0458  0.3853
 9800TIP3    H150891   3.824   6.212  11.751  2.0129  0.4311  0.6724
 9800TIP3    H250892   3.865   6.344  11.690  1.3606 -0.2297 -1.2590
 9801TIP3   OH250893   3.838   4.453  10.799 -0.6631 -0.0435 -0.2074
 9801TIP3    H150894   3.888   4.532  10.820  0.6822 -0.9522  0.1447
 9801TIP3    H250895   3.816   4.462  10.707 -3.5955  2.3783  0.6595
 9802TIP3   OH250896   2.947   6.684  11.509 -0.0096  0.2278  0.1948
 9802TIP3    H150897   2.955   6.768  11.464  3.1330  0.2897  0.7415
 9802TIP3    H250898   2.869   6.693  11.564 -0.6300  2.1705 -0.9668
 9803TIP3   OH250899   3.428   4.828   5.844 -0.1335  0.7638  0.1335
 9803TIP3    H150900   3.424   4.816   5.938  2.6742  0.5334  0.2707
 9803TIP3    H250901   3.392   4.915   5.829 -1.8323  0.2839  1.2378
 9804TIP3   OH250902   3.822   1.161   3.639  0.5510  0.2688 -0.3036
 9804TIP3    H150903   3.813   1.160   3.734 -0.4108  2.0349 -0.3737
 9804TIP3    H250904   3.734   1.143   3.606  1.2111 -2.0962 -0.8775
 9805TIP3   OH250905   3.757   2.168   2.775  1.3782  0.3779  0.1096
 9805TIP3    H150906   3.825   2.169   2.707  2.1165 -1.7222  0.7877
 9805TIP3    H250907   3.676   2.151   2.727  2.0086 -1.9578 -0.2336
 9806TIP3   OH250908   0.321   5.538  15.088 -0.2497 -0.1314 -0.5565
 9806TIP3    H150909   0.260   5.551  15.161  3.1930  0.8264  2.3100
 9806TIP3    H250910   0.322   5.444  15.074 -2.3631 -0.1653 -0.7043
 9807TIP3   OH250911   6.114   0.815  13.321  0.4285 -0.1779  0.3207
 9807TIP3    H150912   6.028   0.786  13.291 -0.9032  1.0328  2.7708
 9807TIP3    H250913   6.174   0.788  13.252 -1.8261 -1.6035 -1.1581
 9808TIP3   OH250914   6.237   2.565  14.583 -0.2886  0.2398 -0.5328
 9808TIP3    H150915   6.275   2.483  14.553  2.5430  0.9863  0.8183
 9808TIP3    H250916   6.143   2.550  14.581  0.1619 -2.9741 -0.5117
 9809TIP3   OH250917   5.118   2.091  11.665 -0.3933 -0.1731 -0.0297
 9809TIP3    H150918   5.128   2.166  11.606 -0.4372 -0.0058  0.1742
 9809TIP3    H250919   5.161   2.019  11.620  0.5852  0.2228  0.2489
 9810TIP3   OH250920   0.896   5.056  12.466  0.4638  0.3653 -0.1621
 9810TIP3    H150921   0.858   5.070  12.552  0.6796 -0.2614  0.0384
 9810TIP3    H250922   0.861   4.971  12.437 -0.2731  0.9596 -1.0476
 9811TIP3   OH250923   4.596   2.984  13.559  0.0489 -0.0992 -0.5669
 9811TIP3    H150924   4.511   2.976  13.515 -0.2436 -1.5138  0.2094
 9811TIP3    H250925   4.609   2.898  13.601  0.9945  0.7254  0.8684
 9812TIP3   OH250926   2.450   2.260   1.912 -0.2667  0.2095 -0.0414
 9812TIP3    H150927   2.400   2.312   1.849  0.9008  0.3018 -0.8940
 9812TIP3    H250928   2.505   2.323   1.958 -0.4292  0.0162  0.4198
 9813TIP3   OH250929   2.844   0.864   3.751  0.2305 -0.2317 -0.5818
 9813TIP3    H150930   2.879   0.952   3.759  0.9689 -0.5227 -0.5090
 9813TIP3    H250931   2.809   0.860   3.662  0.4057  0.0666 -0.6652
 9814TIP3   OH250932   5.902   4.007  12.165  0.1908  0.1894 -0.1181
 9814TIP3    H150933   5.988   4.027  12.202  1.0710 -0.0748 -1.9504
 9814TIP3    H250934   5.869   3.935  12.218  1.0421  0.3979  0.7093
 9815TIP3   OH250935   1.567   5.645   1.404  0.2917  0.2537  0.4228
 9815TIP3    H150936   1.498   5.705   1.431 -1.3111 -1.8170  1.0358
 9815TIP3    H250937   1.641   5.702   1.382 -1.2945  2.4521  0.6211
 9816TIP3   OH250938   2.943   1.592  14.068 -0.0779 -0.2434  0.1217
 9816TIP3    H150939   2.864   1.542  14.087  0.0531 -0.8409 -0.8581
 9816TIP3    H250940   2.926   1.679  14.104 -1.8791  0.1481 -1.5993
 9817TIP3   OH250941   6.214   5.045  16.401 -0.1661 -0.3179 -0.0339
 9817TIP3    H150942   6.188   5.136  16.385 -2.3803 -1.0507 -0.7317
 9817TIP3    H250943   6.239   5.012  16.315 -2.0902 -1.1742 -0.3003
 9818TIP3   OH250944   2.896   2.768  12.455  0.7570  0.4095  0.5197
 9818TIP3    H150945   2.831   2.804  12.395 -0.1157 -0.0681  1.1701
 9818TIP3    H250946   2.979   2.804  12.425  0.5916 -1.2649 -2.1036
 9819TIP3   OH250947   0.662   5.036   2.617 -0.0100  0.8373 -0.5910
 9819TIP3    H150948   0.688   5.059   2.705 -0.1167 -0.0068 -0.3312
 9819TIP3    H250949   0.710   5.096   2.560  0.8720  0.6872 -0.0143
 9820TIP3   OH250950   5.189   3.734  13.959  0.0387  0.1352  0.4822
 9820TIP3    H150951   5.280   3.760  13.942 -0.9543  3.3523 -0.1721
 9820TIP3    H250952   5.191   3.700  14.049  1.8330  0.3108  0.5397
 9821TIP3   OH250953   3.301   3.900  16.479 -0.6973  0.4607  0.4742
 9821TIP3    H150954   3.236   3.939  16.537 -1.6715  0.5862 -0.6737
 9821TIP3    H250955   3.271   3.811  16.465 -1.9278  1.1840 -1.8798
 9822TIP3   OH250956   2.528   1.045  15.527 -0.6432 -0.3090  0.0515
 9822TIP3    H150957   2.562   0.963  15.492 -0.4447  0.0914 -0.7171
 9822TIP3    H250958   2.578   1.059  15.608  0.6838  0.0233 -0.8120
 9823TIP3   OH250959   3.916   3.382  13.727 -0.3531 -0.7800  0.9956
 9823TIP3    H150960   3.846   3.446  13.720  1.6182  1.1158 -2.7511
 9823TIP3    H250961   3.895   3.316  13.660  2.8694  1.3930 -2.3293
 9824TIP3   OH250962   3.907   2.948   2.555  0.1815  0.1781  0.4436
 9824TIP3    H150963   3.878   2.862   2.523 -1.1959  0.5756  0.6127
 9824TIP3    H250964   3.846   3.010   2.516  1.9746  1.2365 -0.7468
 9825TIP3   OH250965   2.462   6.381  14.446 -0.0403 -0.2030 -0.8407
 9825TIP3    H150966   2.416   6.373  14.362 -0.0722  3.2251 -1.2272
 9825TIP3    H250967   2.392   6.400  14.509  0.4621  1.7278 -0.8501
 9826TIP3   OH250968   1.178   1.036  15.320  0.7661  0.0332  0.1489
 9826TIP3    H150969   1.204   0.980  15.393  0.3756  0.0203  0.2770
 9826TIP3    H250970   1.158   0.975  15.249  1.4973  0.0624 -0.0814
 9827TIP3   OH250971   5.834   2.618  14.922 -0.2933 -0.2916 -0.7346
 9827TIP3    H150972   5.902   2.683  14.902  2.0661 -3.3135 -2.7909
 9827TIP3    H250973   5.879   2.553  14.977 -2.2038 -1.0209 -0.0154
 9828TIP3   OH250974   6.593   3.294   4.358 -0.1729 -0.3876 -0.0796
 9828TIP3    H150975   6.655   3.354   4.317  0.7124 -1.3928 -0.2201
 9828TIP3    H250976   6.622   3.289   4.449 -0.6217 -0.1278  0.0800
 9829TIP3   OH250977   2.868   2.646  13.093  0.0095 -0.5020  0.4501
 9829TIP3    H150978   2.797   2.627  13.031  1.3171 -0.9092 -0.9583
 9829TIP3    H250979   2.869   2.571  13.152  0.8551 -1.6993 -1.0477
 9830TIP3   OH250980   4.855   0.716   4.243 -0.4198 -0.4193  0.2150
 9830TIP3    H150981   4.883   0.647   4.183 -2.4697 -0.0842 -1.1557
 9830TIP3    H250982   4.784   0.676   4.294  0.4246 -0.2779  1.5195
 9831TIP3   OH250983   0.488   1.495   5.295 -0.2886 -0.4954 -0.2295
 9831TIP3    H150984   0.454   1.412   5.260 -1.5137 -0.2197  0.3015
 9831TIP3    H250985   0.438   1.562   5.250  2.7573  0.0936 -2.8938
 9832TIP3   OH250986   0.561   2.126   0.101  0.3997 -0.5284 -0.5033
 9832TIP3    H150987   0.562   2.049   0.043  0.2664 -1.3653  0.5731
 9832TIP3    H250988   0.496   2.104   0.168  0.5440  0.4185 -0.0486
 9833TIP3   OH250989   5.582   1.931  13.136 -0.5299  0.1441 -0.0411
 9833TIP3    H150990   5.660   1.906  13.186  0.6199  2.4441 -0.5841
 9833TIP3    H250991   5.522   1.968  13.202 -0.3500  0.1803  0.1038
 9834TIP3   OH250992   2.261   5.284   0.284 -0.2365 -0.0573  0.1606
 9834TIP3    H150993   2.226   5.199   0.311  0.1584  0.0879  1.1302
 9834TIP3    H250994   2.202   5.312   0.214  0.4548 -1.7793 -1.1615
 9835TIP3   OH250995   5.624   2.618  15.908  0.4772 -0.2242 -0.3570
 9835TIP3    H150996   5.688   2.638  15.977 -0.1769  1.0862 -0.1214
 9835TIP3    H250997   5.552   2.678  15.924 -0.6590 -1.4326 -0.8647
 9836TIP3   OH250998   5.467   5.897   3.966 -0.0818 -0.7982 -0.0655
 9836TIP3    H150999   5.463   5.984   4.006 -0.8994 -0.7910 -0.1533
 9836TIP3    H251000   5.519   5.845   4.028  1.8251  0.1602 -0.8191
 9837TIP3   OH251001   0.212   0.636  15.196 -0.4542  0.0002 -0.4417
 9837TIP3    H151002   0.208   0.583  15.276 -0.6794  1.7324  0.7228
 9837TIP3    H251003   0.260   0.715  15.222 -0.8944  0.7729 -1.9243
 9838TIP3   OH251004   3.961   0.886   0.619  0.1026 -0.0481  0.2541
 9838TIP3    H151005   3.895   0.861   0.683 -1.2846 -1.7884 -1.7899
 9838TIP3    H251006   4.040   0.838   0.644 -0.5163 -0.9335  0.4989
 9839TIP3   OH251007   5.617   0.964  13.597 -0.1445 -0.5597 -0.1047
 9839TIP3    H151008   5.692   0.912  13.624 -0.5003 -0.6866  0.6539
 9839TIP3    H251009   5.556   0.901  13.558 -1.0165 -0.8856  1.7464
 9840TIP3   OH251010   5.217   0.947  12.484  0.5677 -0.4513 -0.3404
 9840TIP3    H151011   5.279   0.876  12.500 -0.0655 -1.3779 -1.8604
 9840TIP3    H251012   5.132   0.911  12.510  0.3029 -0.0872 -0.6913
 9841TIP3   OH251013   3.784   0.946   1.842  0.6949 -0.5589  0.8084
 9841TIP3    H151014   3.776   1.039   1.823  1.3513 -0.1706  2.3895
 9841TIP3    H251015   3.846   0.913   1.776  1.1008  0.2893  0.7664
 9842TIP3   OH251016   1.237   3.310   3.394 -0.2916 -0.4354  0.1491
 9842TIP3    H151017   1.327   3.343   3.392 -0.3043 -0.5032 -3.4350
 9842TIP3    H251018   1.246   3.215   3.404  0.0132 -0.4476 -0.2589
 9843TIP3   OH251019   3.697   0.783   2.919 -0.6755  0.5567 -0.1636
 9843TIP3    H151020   3.762   0.834   2.967  2.1095 -0.4995 -2.6922
 9843TIP3    H251021   3.620   0.840   2.915  0.3123  2.1490  2.1898
 9844TIP3   OH251022   3.269   4.607   2.360  0.4991  0.3441 -0.0431
 9844TIP3    H151023   3.265   4.514   2.380  0.3636  0.0851 -1.2269
 9844TIP3    H251024   3.303   4.647   2.440  0.3998 -0.6938  0.5334
 9845TIP3   OH251025   3.761   1.272   5.343  0.5522 -0.4688 -0.3028
 9845TIP3    H151026   3.721   1.314   5.420 -0.6399 -1.3433 -0.4330
 9845TIP3    H251027   3.812   1.200   5.379  0.9828 -0.1420 -0.2461
 9846TIP3   OH251028   4.775   5.577   5.020  0.8444  0.0980 -0.4209
 9846TIP3    H151029   4.718   5.610   4.950  0.4843  1.3891  0.4658
 9846TIP3    H251030   4.858   5.558   4.976 -0.3194 -2.0818 -1.7894
 9847TIP3   OH251031   2.923   6.542  14.460 -0.9770  0.4652  0.2388
 9847TIP3    H151032   2.941   6.636  14.455  0.9040  0.0738 -0.8709
 9847TIP3    H251033   2.958   6.506  14.379 -0.3163 -1.3910  1.3048
 9848TIP3   OH251034   3.858   0.936  15.859  0.3819 -0.5421 -0.6129
 9848TIP3    H151035   3.801   1.011  15.843  1.1934  0.3543  0.6638
 9848TIP3    H251036   3.812   0.885  15.926  0.8318 -0.0932  0.0357
 9849TIP3   OH251037   3.976   2.769   5.362 -0.2195 -0.2982  0.4102
 9849TIP3    H151038   3.961   2.819   5.443 -0.1246 -1.8557  1.4179
 9849TIP3    H251039   3.908   2.800   5.302 -1.1415 -0.0744  1.5407
 9850TIP3   OH251040   2.406   3.989  14.095  0.4000  0.1784 -0.2968
 9850TIP3    H151041   2.392   4.072  14.048  0.5718  1.1871  1.3783
 9850TIP3    H251042   2.329   3.937  14.075  0.8394  0.2660 -2.3400
 9851TIP3   OH251043   0.065   3.237   4.442 -0.0673 -0.4675  0.2074
 9851TIP3    H151044   0.068   3.144   4.422  1.2038 -0.2547 -0.6558
 9851TIP3    H251045   0.029   3.242   4.530  0.2632 -1.8036  0.4237
 9852TIP3   OH251046   5.414   1.469  12.344  0.2387 -0.5268  0.0037
 9852TIP3    H151047   5.363   1.435  12.417  3.2975  1.4669  3.1983
 9852TIP3    H251048   5.353   1.527  12.298 -1.6356 -1.5718  1.0980
 9853TIP3   OH251049   5.763   3.607   3.673 -0.3558  0.8506  0.4475
 9853TIP3    H151050   5.796   3.621   3.584  2.1732  0.7560  1.3136
 9853TIP3    H251051   5.718   3.688   3.695 -1.2476  0.7740 -0.9953
 9854TIP3   OH251052   6.158   6.645   5.875 -0.3088  0.0952  0.2777
 9854TIP3    H151053   6.167   6.737   5.900  1.3549  0.0443 -0.0971
 9854TIP3    H251054   6.063   6.632   5.866 -0.5878  1.6340  0.8047
 9855TIP3   OH251055   1.114   2.107  14.855 -0.7456 -0.3487 -0.3594
 9855TIP3    H151056   1.089   2.170  14.923  1.3828  0.8244 -0.6172
 9855TIP3    H251057   1.134   2.027  14.903  0.9159  0.5207  0.4612
 9856TIP3   OH251058   0.585   2.255  16.225 -0.2592 -0.6747  1.2120
 9856TIP3    H151059   0.661   2.206  16.193  0.2165 -0.0306  1.3529
 9856TIP3    H251060   0.591   2.340  16.182 -2.3674 -1.5195 -0.8456
 9857TIP3   OH251061   3.238   5.806   0.137  0.2341 -0.3095  0.4100
 9857TIP3    H151062   3.274   5.752   0.208  1.3489 -0.0821  0.0302
 9857TIP3    H251063   3.271   5.765   0.057  0.1131  0.2440  0.0763
 9858TIP3   OH251064   3.374   6.643  14.599  0.3206 -0.2575 -0.0037
 9858TIP3    H151065   3.379   6.549  14.584 -0.6501  0.1086 -3.0306
 9858TIP3    H251066   3.463   6.675  14.584  0.5066 -0.5882  0.3808
 9859TIP3   OH251067   4.255   2.950  16.155 -0.0015 -0.2460 -0.6152
 9859TIP3    H151068   4.330   2.948  16.096  0.8778  0.5411  0.4505
 9859TIP3    H251069   4.189   2.897  16.111  1.4895 -1.7329 -1.1273
 9860TIP3   OH251070   2.775   4.678  12.487  0.1029  0.1470 -0.6553
 9860TIP3    H151071   2.817   4.746  12.436  0.1427 -0.5157 -1.5168
 9860TIP3    H251072   2.736   4.619  12.422  0.9769 -1.2322  0.0448
 9861TIP3   OH251073   2.181   1.176  15.213  0.0693  0.3034 -0.3971
 9861TIP3    H151074   2.197   1.168  15.307 -1.8591  2.4982  0.1502
 9861TIP3    H251075   2.267   1.163  15.173  0.6304 -2.3446  1.5258
 9862TIP3   OH251076   2.269   4.783  14.800 -0.3390  0.2330 -0.0423
 9862TIP3    H151077   2.249   4.836  14.877  1.3335  1.5755 -0.5059
 9862TIP3    H251078   2.360   4.757  14.812 -0.9528 -2.0360 -0.1367
 9863TIP3   OH251079   4.118   4.835   3.548  0.0585 -0.0990  0.0359
 9863TIP3    H151080   4.131   4.927   3.571 -1.6640  0.3361 -0.6889
 9863TIP3    H251081   4.037   4.811   3.593  0.2985 -1.1585 -0.0954
 9864TIP3   OH251082   0.183   4.658  14.152 -0.0147  0.3141  0.3582
 9864TIP3    H151083   0.237   4.669  14.074 -1.1163  0.2054 -0.4300
 9864TIP3    H251084   0.166   4.563  14.156 -0.3643  0.3776  0.4441
 9865TIP3   OH251085   3.664   2.118   3.746 -0.2433 -0.8230  0.3536
 9865TIP3    H151086   3.707   2.039   3.714 -2.2902 -1.6842 -0.3258
 9865TIP3    H251087   3.682   2.184   3.679  0.7380 -0.9371  0.4986
 9866TIP3   OH251088   5.025   4.375  16.890  0.8450  0.4024  0.2486
 9866TIP3    H151089   5.096   4.380  16.826  0.3754  1.6378 -0.1963
 9866TIP3    H251090   4.950   4.345  16.840  0.7413  0.3140  0.4570
 9867TIP3   OH251091   5.086   3.269   4.888  0.2832 -0.3533 -0.5134
 9867TIP3    H151092   5.050   3.342   4.838  1.4870  0.9795  0.5313
 9867TIP3    H251093   5.179   3.269   4.867 -0.2417 -3.9788 -3.4559
 9868TIP3   OH251094   3.973   5.428   5.692 -0.1253  0.1666  0.2990
 9868TIP3    H151095   3.996   5.411   5.601  0.2390 -0.0040  0.4190
 9868TIP3    H251096   3.893   5.480   5.688 -1.1930 -1.4882 -0.0840
 9869TIP3   OH251097   6.194   6.397  13.065  0.2992  0.2889 -0.1213
 9869TIP3    H151098   6.135   6.438  13.002  2.3845  0.7706 -1.8132
 9869TIP3    H251099   6.136   6.353  13.127 -1.8347  1.0977 -1.4904
 9870TIP3   OH251100   1.254   3.948  14.715 -0.0382  0.4303  0.2301
 9870TIP3    H151101   1.167   3.921  14.742 -0.1251  1.1424  0.6776
 9870TIP3    H251102   1.240   4.007  14.641  0.3092 -3.7429 -3.4022
 9871TIP3   OH251103   4.492   1.674   3.764 -0.0414 -0.0251 -0.0006
 9871TIP3    H151104   4.407   1.712   3.784  0.5177  1.1782  0.1469
 9871TIP3    H251105   4.477   1.620   3.686 -0.7478  0.8903 -0.5001
 9872TIP3   OH251106   0.976   1.374   6.388 -0.0021 -0.3352  0.1662
 9872TIP3    H151107   1.024   1.305   6.435  0.7197 -1.7489 -2.5345
 9872TIP3    H251108   0.924   1.327   6.323 -0.3804  1.6018 -0.9805
 9873TIP3   OH251109   6.713   4.259  12.597 -0.2677  0.7954  0.3714
 9873TIP3    H151110   6.736   4.351  12.609  0.0605  0.8587 -0.7001
 9873TIP3    H251111   6.741   4.217  12.679  1.2393  1.3361  0.1530
 9874TIP3   OH251112   6.634   4.235  13.799 -0.5936 -0.1530  0.0412
 9874TIP3    H151113   6.666   4.318  13.835 -0.4038  0.6787 -1.9696
 9874TIP3    H251114   6.677   4.168  13.852  1.2295  0.9950  0.0670
 9875TIP3   OH251115   0.176   5.045   6.459  0.5476  0.5536 -0.1669
 9875TIP3    H151116   0.153   4.962   6.418 -1.4768 -0.2849  2.4966
 9875TIP3    H251117   0.256   5.025   6.509  0.3590  0.3233  0.0465
 9876TIP3   OH251118   2.071   2.194  15.184 -1.1097 -0.5526 -0.4084
 9876TIP3    H151119   2.116   2.125  15.135 -1.3262 -0.4597 -0.7433
 9876TIP3    H251120   2.063   2.266  15.122 -1.3905 -0.4359 -0.2388
 9877TIP3   OH251121   5.344   4.922  15.904 -0.2735  0.2794 -0.6573
 9877TIP3    H151122   5.315   4.994  15.848  0.8377 -0.2472 -1.9314
 9877TIP3    H251123   5.273   4.858  15.899  0.3270 -0.2907 -2.4653
 9878TIP3   OH251124   1.779   0.106  16.897  0.5402 -0.0888  0.1271
 9878TIP3    H151125   1.709   0.063  16.848 -0.1023 -0.6518  1.4985
 9878TIP3    H251126   1.836   0.035  16.927  0.9194  0.2397  0.1988
 9879TIP3   OH251127   3.146   5.484  15.098 -0.1122  0.2426  0.2485
 9879TIP3    H151128   3.200   5.561  15.111  0.7790 -0.0678 -1.4345
 9879TIP3    H251129   3.200   5.424  15.046 -2.3899  0.3515 -2.4037
 9880TIP3   OH251130   6.497   5.930  14.414  0.1766 -0.6272  0.5084
 9880TIP3    H151131   6.442   5.932  14.492 -1.7173  2.6802 -0.8260
 9880TIP3    H251132   6.467   5.854  14.365 -1.3086 -0.4611  1.1432
 9881TIP3   OH251133   5.702   6.390   2.011 -0.2757  0.5427 -0.5670
 9881TIP3    H151134   5.705   6.457   2.079 -1.2863  1.4530 -1.3935
 9881TIP3    H251135   5.613   6.354   2.017  0.3378 -0.8977  0.0259
 9882TIP3   OH251136   0.615   1.952  16.409  0.4482  0.0079  0.0367
 9882TIP3    H151137   0.661   2.015  16.464  1.1619 -0.8460  0.4254
 9882TIP3    H251138   0.684   1.898  16.371 -0.2514 -1.5257  0.9148
 9883TIP3   OH251139   2.474   3.505   2.137  0.0469 -0.4700 -0.4463
 9883TIP3    H151140   2.483   3.410   2.127 -0.3770 -0.3890 -1.6061
 9883TIP3    H251141   2.381   3.522   2.122 -0.5343 -0.2472  3.0043
 9884TIP3   OH251142   4.705   1.941  13.179 -0.0228  0.2277 -0.0756
 9884TIP3    H151143   4.700   1.848  13.201 -1.5793  0.6828  1.6507
 9884TIP3    H251144   4.734   1.984  13.260  1.5361  1.1640 -1.1060
 9885TIP3   OH251145   1.914   6.051   3.840  0.4951 -0.0136  0.2256
 9885TIP3    H151146   1.875   5.997   3.908 -0.8008 -0.1050 -0.5737
 9885TIP3    H251147   1.966   6.116   3.887 -0.0077 -0.3706  1.2780
 9886TIP3   OH251148   1.508   2.482   4.737  0.0985  0.3129  0.2600
 9886TIP3    H151149   1.550   2.489   4.823  0.5423  1.1570 -0.0213
 9886TIP3    H251150   1.438   2.547   4.739  0.7307  1.0370 -0.3576
 9887TIP3   OH251151   5.687   3.626  11.428  0.1311  0.3949 -0.2835
 9887TIP3    H151152   5.659   3.652  11.516  0.6775  0.1480 -0.0356
 9887TIP3    H251153   5.612   3.647  11.372  0.7498  3.0072 -0.1932
 9888TIP3   OH251154   6.161   5.022   0.299  0.0877 -0.1463 -0.1895
 9888TIP3    H151155   6.127   4.958   0.236 -1.2412  0.1403  0.2356
 9888TIP3    H251156   6.199   5.091   0.245 -0.8105 -0.0293 -0.6784
 9889TIP3   OH251157   5.767   0.894   0.816  0.2657 -0.3322 -0.0564
 9889TIP3    H151158   5.754   0.988   0.821  0.9668 -0.1969 -0.6290
 9889TIP3    H251159   5.778   0.866   0.907 -2.6934 -0.2913  0.3538
 9890TIP3   OH251160   3.338   0.841   3.161  0.2205  0.3451  0.2230
 9890TIP3    H151161   3.332   0.798   3.246 -1.0247  2.0221  1.0119
 9890TIP3    H251162   3.250   0.876   3.146  0.3559 -0.1598 -1.8806
 9891TIP3   OH251163   4.805   3.077  16.697  0.3344  0.3134  0.0049
 9891TIP3    H151164   4.829   3.005  16.755  1.9174  0.6152 -0.2612
 9891TIP3    H251165   4.803   3.154  16.754 -0.9981  0.1481  0.2180
 9892TIP3   OH251166   3.575   4.842   4.336 -0.5329 -0.3257 -0.4347
 9892TIP3    H151167   3.566   4.795   4.419  0.2567  0.1213 -0.0958
 9892TIP3    H251168   3.669   4.855   4.325 -0.5922 -0.8530 -1.6696
 9893TIP3   OH251169   3.357   0.170  15.711  0.2828  0.2998  0.2453
 9893TIP3    H151170   3.398   0.142  15.629  2.0183  1.8804  0.5482
 9893TIP3    H251171   3.412   0.242  15.742 -0.2928 -0.3409  2.8674
 9894TIP3   OH251172   2.621   3.032  13.978  0.2064  0.3299  0.4346
 9894TIP3    H151173   2.639   2.954  14.031 -0.0460 -1.0604 -1.4574
 9894TIP3    H251174   2.570   3.089  14.035  1.5824 -0.2720  2.3229
 9895TIP3   OH251175   2.007   2.633  11.906 -0.1739  0.4089  0.0657
 9895TIP3    H151176   2.101   2.621  11.920  0.1535  2.1930 -0.4323
 9895TIP3    H251177   1.976   2.677  11.985 -0.8797 -1.4965  0.8569
 9896TIP3   OH251178   3.256   2.915   0.668 -0.1524 -0.3350 -0.1876
 9896TIP3    H151179   3.215   2.870   0.742 -0.5226 -0.4455 -0.4621
 9896TIP3    H251180   3.188   2.918   0.601  0.3380 -0.6523 -0.6943
 9897TIP3   OH251181   2.223   1.561  17.163 -0.2213  0.0195  0.1731
 9897TIP3    H151182   2.168   1.636  17.142 -0.3286 -0.3074 -0.7556
 9897TIP3    H251183   2.162   1.487  17.170 -0.0130 -0.1602  0.1244
 9898TIP3   OH251184   0.041   5.967  17.253  0.0915  0.8679  0.4510
 9898TIP3    H151185  -0.032   5.980  17.192 -0.4039  0.8541  1.0223
 9898TIP3    H251186   0.015   5.891  17.305  1.3990 -0.3070 -0.5981
 9899TIP3   OH251187   1.187   5.482   2.992  0.1721 -0.4259  0.4285
 9899TIP3    H151188   1.192   5.468   2.898 -0.2445 -1.3190  0.5390
 9899TIP3    H251189   1.093   5.483   3.012  0.2528 -0.1347  0.8185
 9900TIP3   OH251190   5.651   3.384   2.635  0.3073  0.0052  0.1173
 9900TIP3    H151191   5.558   3.405   2.623  0.5009  0.5916 -0.4093
 9900TIP3    H251192   5.690   3.465   2.668  0.9117  0.2582 -1.1567
 9901TIP3   OH251193   1.576   1.293   6.320 -0.2173 -0.0374  0.2903
 9901TIP3    H151194   1.635   1.329   6.253  0.8369 -2.1356  0.0525
 9901TIP3    H251195   1.626   1.223   6.361 -1.9969 -0.8452  1.1418
 9902TIP3   OH251196   3.176   3.776   3.884 -0.1361  0.5249 -0.2316
 9902TIP3    H151197   3.243   3.837   3.852  0.3632 -0.4380 -1.0719
 9902TIP3    H251198   3.141   3.736   3.804  1.2349 -2.0428  0.4141
 9903TIP3   OH251199   4.275   3.776   3.162 -0.2389  0.2047 -0.3884
 9903TIP3    H151200   4.186   3.741   3.157 -0.5603  0.9454  0.0624
 9903TIP3    H251201   4.277   3.848   3.100 -0.5027  1.3442  0.8924
 9904TIP3   OH251202   4.636   2.532  13.838 -0.6829 -0.6766  0.0954
 9904TIP3    H151203   4.613   2.537  13.931 -1.8067  1.9587 -0.2781
 9904TIP3    H251204   4.589   2.456  13.805 -1.0805 -1.0370  1.4894
 9905TIP3   OH251205   1.380   1.328   1.924 -0.3350 -0.6937  0.1579
 9905TIP3    H151206   1.467   1.351   1.891 -0.1250  0.2830  1.3215
 9905TIP3    H251207   1.373   1.234   1.911  0.8149 -0.7426 -0.1631
 9906TIP3   OH251208   0.305   6.590  11.325  0.1518 -0.1464 -0.1588
 9906TIP3    H151209   0.290   6.499  11.300 -1.3735 -0.1937  0.8528
 9906TIP3    H251210   0.375   6.586  11.390  1.1090 -0.4431 -1.2044
 9907TIP3   OH251211   2.037   4.916   0.563  0.1153  0.0864 -0.1913
 9907TIP3    H151212   2.072   4.922   0.474  0.2231  0.8486 -0.1006
 9907TIP3    H251213   2.104   4.867   0.611  1.7326  2.6719  0.2995
 9908TIP3   OH251214   0.341   1.759   5.564 -0.3739 -0.0133 -0.2039
 9908TIP3    H151215   0.277   1.703   5.521  1.2614 -0.2377 -2.4291
 9908TIP3    H251216   0.397   1.699   5.613  0.0580 -0.1178 -0.8261
 9909TIP3   OH251217   0.410   6.410   3.932 -0.3347 -0.3781 -1.0195
 9909TIP3    H151218   0.474   6.467   3.973  0.4423 -0.6919 -1.7752
 9909TIP3    H251219   0.329   6.462   3.931  0.0069  0.1756 -0.4440
 9910TIP3   OH251220   0.821   0.903  14.196  0.1210  0.2137 -0.3282
 9910TIP3    H151221   0.749   0.845  14.171  0.4250 -1.6590  2.8682
 9910TIP3    H251222   0.778   0.986  14.215 -0.8190 -0.0611 -1.1631
 9911TIP3   OH251223   1.751   5.855   4.573  0.4209 -0.6303  0.3343
 9911TIP3    H151224   1.819   5.922   4.577 -0.6766  0.6628 -1.7689
 9911TIP3    H251225   1.787   5.786   4.517  0.6223 -0.6917  0.5398
 9912TIP3   OH251226   4.278   1.519  16.274 -0.7597  0.1084  1.0355
 9912TIP3    H151227   4.187   1.491  16.286 -0.8128 -0.3996 -0.4127
 9912TIP3    H251228   4.286   1.532  16.180  0.5006  0.7643  1.2337
 9913TIP3   OH251229   0.396   0.293  14.857  0.5300 -0.0609 -0.0221
 9913TIP3    H151230   0.384   0.281  14.763  1.6535  2.2043 -0.4674
 9913TIP3    H251231   0.484   0.327  14.866 -0.1433  1.2892  1.7212
 9914TIP3   OH251232   3.136   5.504  11.181 -0.2354 -0.6653  0.0471
 9914TIP3    H151233   3.173   5.592  11.176  0.7461 -1.1035 -0.4953
 9914TIP3    H251234   3.055   5.515  11.231  0.8362  0.2365  1.6111
 9915TIP3   OH251235   2.770   4.805  14.014 -0.1208 -0.2359  0.7343
 9915TIP3    H151236   2.795   4.835  13.927 -0.8531  1.1589  0.9982
 9915TIP3    H251237   2.830   4.733  14.032  2.2164  1.5655  0.4093
 9916TIP3   OH251238   4.545   1.267  11.633 -0.2959 -0.0932  0.4169
 9916TIP3    H151239   4.609   1.277  11.703 -1.2714 -0.6999  1.4060
 9916TIP3    H251240   4.488   1.196  11.662 -1.8575  0.8993 -0.1087
 9917TIP3   OH251241   0.193   5.825  14.932  0.0323  0.2438  0.4802
 9917TIP3    H151242   0.126   5.849  14.995  0.2579 -0.0001  0.8118
 9917TIP3    H251243   0.270   5.805  14.984 -0.5568 -2.6463  0.3370
 9918TIP3   OH251244   4.448   6.649   3.880 -0.5387  0.2871 -0.1826
 9918TIP3    H151245   4.526   6.600   3.856 -1.2868 -0.4670 -1.1123
 9918TIP3    H251246   4.449   6.651   3.976  0.4206 -0.0289 -0.1820
 9919TIP3   OH251247   2.313   6.419   3.911 -0.0791  0.0011  0.1572
 9919TIP3    H151248   2.325   6.446   4.002 -1.3883 -1.4102  0.7691
 9919TIP3    H251249   2.384   6.356   3.896  0.4255  0.5919  0.0451
 9920TIP3   OH251250   2.201   3.107   3.699 -0.5616  0.5430 -0.3126
 9920TIP3    H151251   2.256   3.038   3.737  0.4196  0.4978 -1.8005
 9920TIP3    H251252   2.126   3.061   3.662 -0.2182  0.3345 -0.7487
 9921TIP3   OH251253   1.447   1.230  15.103 -0.2343  0.9887  0.1076
 9921TIP3    H151254   1.445   1.319  15.140 -1.5574  1.3497 -0.7755
 9921TIP3    H251255   1.361   1.220  15.063  0.0911 -0.5276 -0.2199
 9922TIP3   OH251256   1.601   4.671   4.942 -0.3109  0.3751 -0.3201
 9922TIP3    H151257   1.592   4.576   4.935  0.2051  0.3596 -0.8955
 9922TIP3    H251258   1.570   4.693   5.030  0.0760 -0.3942  0.0080
 9923TIP3   OH251259   4.225   2.783   5.839 -0.0774 -0.3598  0.0266
 9923TIP3    H151260   4.221   2.828   5.923 -2.5628 -0.7622  0.1781
 9923TIP3    H251261   4.301   2.725   5.845  0.7484  0.8379  1.3437
 9924TIP3   OH251262   3.674   2.501   5.152 -0.4536  0.0587  0.1254
 9924TIP3    H151263   3.750   2.530   5.203 -0.3912 -0.1363  0.1453
 9924TIP3    H251264   3.612   2.470   5.217 -1.1181  1.5099  0.2037
 9925TIP3   OH251265   4.582   4.095  17.091 -0.0517  0.2087 -0.3490
 9925TIP3    H151266   4.625   4.027  17.040 -1.7907 -0.2208 -1.2759
 9925TIP3    H251267   4.654   4.142  17.134  1.4050  0.3084 -2.8348
 9926TIP3   OH251268   6.271   3.527  12.661 -0.3273  0.1774 -0.3883
 9926TIP3    H151269   6.204   3.537  12.729 -1.4690 -0.5051 -1.3753
 9926TIP3    H251270   6.350   3.563  12.699 -1.0024  0.0036  1.2200
 9927TIP3   OH251271   4.608   0.356  13.890  0.7023 -0.5478 -0.2533
 9927TIP3    H151272   4.685   0.313  13.853  2.7127  3.7412 -1.3534
 9927TIP3    H251273   4.539   0.343  13.824  1.3685 -1.7033 -0.7280
 9928TIP3   OH251274   5.475   3.736  12.657 -0.6176 -0.2545 -0.0516
 9928TIP3    H151275   5.538   3.780  12.600 -0.7914  1.8376  1.3270
 9928TIP3    H251276   5.529   3.687  12.720 -0.3713  0.9632  0.6910
 9929TIP3   OH251277   5.580   5.854   0.868  0.2890 -0.7872  0.3575
 9929TIP3    H151278   5.636   5.913   0.918 -1.3153 -0.7573  2.1595
 9929TIP3    H251279   5.587   5.770   0.912 -0.9095 -0.8339  0.4796
 9930TIP3   OH251280   1.000   1.516  13.759  0.0685  0.3111 -0.5555
 9930TIP3    H151281   0.954   1.432  13.761 -0.2333  0.4671 -0.9661
 9930TIP3    H251282   1.036   1.521  13.670  1.6120 -0.2120  0.0256
 9931TIP3   OH251283   1.944   1.841   4.843  0.0987 -0.0672 -0.0153
 9931TIP3    H151284   1.925   1.777   4.774  0.9046 -0.0219 -0.2862
 9931TIP3    H251285   2.034   1.821   4.869  0.4913  1.2079 -0.3773
 9932TIP3   OH251286   3.679   0.845   5.589 -0.2284  1.3384 -0.3792
 9932TIP3    H151287   3.633   0.898   5.654 -1.2554 -0.0482  0.0542
 9932TIP3    H251288   3.736   0.788   5.641  1.1161  2.2469 -0.8563
 9933TIP3   OH251289   1.957   4.561  12.834 -0.4186  0.4233  0.4451
 9933TIP3    H151290   1.978   4.625  12.767 -3.1373  0.7190 -0.1699
 9933TIP3    H251291   1.865   4.577  12.855 -1.3637 -3.6859 -0.1813
 9934TIP3   OH251292   0.585   3.239   5.608 -0.2192 -0.4991  0.2068
 9934TIP3    H151293   0.617   3.322   5.574 -0.1514  0.0835  1.6355
 9934TIP3    H251294   0.519   3.264   5.673  0.3983 -1.5282  1.2390
 9935TIP3   OH251295   3.477   1.589  14.286  0.5347  0.3491  0.0376
 9935TIP3    H151296   3.545   1.554  14.343 -0.4560 -1.3118  0.2370
 9935TIP3    H251297   3.522   1.613  14.205  1.3061 -1.1224  0.0107
 9936TIP3   OH251298   3.144   5.284   1.679 -0.5434 -0.0944  0.2256
 9936TIP3    H151299   3.125   5.221   1.609 -1.0779  1.6087 -1.1924
 9936TIP3    H251300   3.210   5.241   1.733 -0.0032 -1.3621 -1.4209
 9937TIP3   OH251301   1.580   3.370   3.175  0.8078 -0.4280 -0.1110
 9937TIP3    H151302   1.581   3.429   3.100  0.3449  0.5986  0.6772
 9937TIP3    H251303   1.633   3.414   3.241 -0.7753 -0.1542  1.0173
 9938TIP3   OH251304   5.984   1.881   3.413 -0.0633 -0.8989 -0.1728
 9938TIP3    H151305   6.053   1.891   3.348  1.2053 -1.2049  1.1025
 9938TIP3    H251306   5.903   1.880   3.362  0.8766 -0.6769 -1.6980
 9939TIP3   OH251307   0.760   5.686  14.014 -0.0735 -0.5052  0.3384
 9939TIP3    H151308   0.724   5.760  14.063  3.7772  0.9884  1.0626
 9939TIP3    H251309   0.773   5.618  14.081 -0.0349 -0.4865  0.3493
 9940TIP3   OH251310   2.663   4.046  16.549 -0.0796  0.1275  0.2390
 9940TIP3    H151311   2.664   4.059  16.644  0.6327 -0.3851  0.3108
 9940TIP3    H251312   2.752   4.016  16.528 -0.7200 -1.4242 -0.3409
 9941TIP3   OH251313   6.171   0.634   0.273 -0.8201  0.3007 -0.0767
 9941TIP3    H151314   6.090   0.597   0.239 -0.3928  0.2420 -1.0419
 9941TIP3    H251315   6.184   0.715   0.223  0.1720 -0.1368 -0.5482
 9942TIP3   OH251316   3.437   5.696  10.642  0.2674 -0.4539  0.0859
 9942TIP3    H151317   3.405   5.784  10.661  2.4728 -0.0944  2.3728
 9942TIP3    H251318   3.360   5.640  10.651 -0.3841  0.7660  2.4212
 9943TIP3   OH251319   4.787   5.625  16.047  0.2728 -0.0967 -0.0811
 9943TIP3    H151320   4.696   5.642  16.070 -0.0623 -0.2043 -1.2805
 9943TIP3    H251321   4.791   5.639  15.952  1.9980  2.0972  0.2517
 9944TIP3   OH251322   6.643   0.192  13.637 -0.3987 -0.4088 -0.2286
 9944TIP3    H151323   6.645   0.281  13.602  1.2473 -0.9156 -1.5054
 9944TIP3    H251324   6.648   0.203  13.732  1.9042  0.8203 -0.4470
 9945TIP3   OH251325   0.190   6.330  12.363  0.7467  0.1133 -0.6468
 9945TIP3    H151326   0.258   6.266  12.384  0.8299 -0.5380 -2.7495
 9945TIP3    H251327   0.160   6.305  12.275 -0.5860  1.7893 -0.6950
 9946TIP3   OH251328   2.256   0.528   3.035  0.1157  0.6508 -0.8073
 9946TIP3    H151329   2.284   0.437   3.023 -0.3578  0.4196 -0.1792
 9946TIP3    H251330   2.163   0.528   3.013  0.1841  1.0521 -1.1143
 9947TIP3   OH251331   3.811   6.012  11.521 -0.2084 -0.0533 -0.7268
 9947TIP3    H151332   3.848   5.953  11.587 -2.2693 -1.4408 -0.7606
 9947TIP3    H251333   3.808   6.097  11.565 -1.3205 -0.9141  0.9340
 9948TIP3   OH251334   6.794   5.984  15.895 -0.3538 -0.0892  0.2696
 9948TIP3    H151335   6.733   5.924  15.937 -0.8543  0.2869  0.0865
 9948TIP3    H251336   6.876   5.935  15.888 -1.3121 -1.4513 -1.6559
 9949TIP3   OH251337   3.943   0.933   6.043 -0.1498 -0.1900 -0.4108
 9949TIP3    H151338   3.856   0.907   6.073 -0.7982  0.2939 -1.8451
 9949TIP3    H251339   4.003   0.876   6.091 -1.3583 -1.8554 -0.8288
 9950TIP3   OH251340   1.953   2.140  10.871  0.1853  0.5210  0.3885
 9950TIP3    H151341   2.035   2.092  10.859  0.3840  0.6427  1.2155
 9950TIP3    H251342   1.919   2.109  10.955 -1.3479 -0.5788 -0.6258
 9951TIP3   OH251343   4.069   2.289   3.945  0.1342  0.0584 -0.1141
 9951TIP3    H151344   4.025   2.204   3.939  0.1523  0.0685 -0.4483
 9951TIP3    H251345   4.107   2.301   3.858  0.2381  0.3519 -0.0277
 9952TIP3   OH251346   3.092   0.499  11.460 -0.2837 -0.6386 -0.0424
 9952TIP3    H151347   3.100   0.453  11.377 -1.5510 -0.7127 -0.1292
 9952TIP3    H251348   2.999   0.521  11.467 -0.0947 -0.1546  1.0956
 9953TIP3   OH251349   4.746   2.212  15.074 -0.1135 -0.1770 -0.0757
 9953TIP3    H151350   4.749   2.307  15.086  2.0910 -0.3743  1.2088
 9953TIP3    H251351   4.786   2.198  14.988 -1.0196  0.0872 -0.5476
 9954TIP3   OH251352   4.942   2.684  10.829 -0.0055 -0.1126 -0.0786
 9954TIP3    H151353   4.939   2.748  10.901  1.0024 -0.5844  0.3964
 9954TIP3    H251354   4.852   2.651  10.823 -0.3059  0.6196  0.3448
 9955TIP3   OH251355   5.530   6.116   5.272  0.2597 -0.4938 -0.7845
 9955TIP3    H151356   5.465   6.156   5.214 -1.1884 -0.7404  0.6496
 9955TIP3    H251357   5.580   6.057   5.215 -0.1008  0.4582 -2.1093
 9956TIP3   OH251358   0.173   0.949  12.687  0.1672 -0.4003 -0.1172
 9956TIP3    H151359   0.110   1.014  12.656  0.9732  0.7196  0.5186
 9956TIP3    H251360   0.139   0.920  12.771  0.2484 -0.1499  0.0018
 9957TIP3   OH251361   6.658   3.952  15.884  0.1820 -0.1527  0.8109
 9957TIP3    H151362   6.578   4.001  15.866  0.3845  0.7989  2.3686
 9957TIP3    H251363   6.659   3.942  15.979  0.9693 -1.8110  0.6537
 9958TIP3   OH251364   1.897   1.041   3.273  0.0029 -0.0064  0.6061
 9958TIP3    H151365   1.939   1.110   3.221 -2.6401  1.7630  0.7619
 9958TIP3    H251366   1.936   0.960   3.239  0.2153  1.2675 -2.4222
 9959TIP3   OH251367   0.041   0.568   0.219 -0.0950  0.1264  0.6480
 9959TIP3    H151368  -0.053   0.571   0.199  0.1420  1.5206 -0.3526
 9959TIP3    H251369   0.079   0.520   0.145  0.2211  1.4014 -0.0472
 9960TIP3   OH251370   0.537   4.566   6.321  0.2404  0.2545 -0.3202
 9960TIP3    H151371   0.568   4.634   6.262 -1.9129  0.2154 -1.5582
 9960TIP3    H251372   0.487   4.613   6.388  1.0909  0.1306  0.4055
 9961TIP3   OH251373   0.473   5.809  13.799  0.2047  0.1058  0.8301
 9961TIP3    H151374   0.551   5.783  13.750 -1.7748 -0.4703 -2.1446
 9961TIP3    H251375   0.488   5.901  13.822  1.0014  0.5334 -1.3170
 9962TIP3   OH251376   1.780   4.790  14.585  0.0593  0.0357  0.6358
 9962TIP3    H151377   1.850   4.756  14.529 -1.2539  1.0746 -1.7040
 9962TIP3    H251378   1.703   4.739  14.560 -0.9370  1.7401  0.2042
 9963TIP3   OH251379   1.472   4.467   1.008  0.8585  0.7752  0.7202
 9963TIP3    H151380   1.456   4.475   0.914  2.0867 -1.8382  0.2327
 9963TIP3    H251381   1.567   4.477   1.017  1.2417 -2.4754  1.1671
 9964TIP3   OH251382   4.669   6.366  13.596 -0.0648  0.2821 -0.1657
 9964TIP3    H151383   4.655   6.448  13.549 -0.3726  0.3122 -0.0210
 9964TIP3    H251384   4.744   6.383  13.654 -1.1169  0.9570  1.0245
 9965TIP3   OH251385   5.439   1.007   4.811 -0.3556 -0.3809  0.6499
 9965TIP3    H151386   5.473   1.068   4.877  0.5109 -0.2414  0.0725
 9965TIP3    H251387   5.348   1.034   4.798 -0.1201  0.4659  0.7705
 9966TIP3   OH251388   6.654   0.774   5.119 -0.1125  0.7030 -0.0920
 9966TIP3    H151389   6.638   0.680   5.114 -1.3769  0.9317 -0.5658
 9966TIP3    H251390   6.725   0.783   5.183 -1.6977 -0.4235  1.9122
 9967TIP3   OH251391   6.124   4.847  17.114 -0.1138  0.2259 -0.0837
 9967TIP3    H151392   6.046   4.899  17.096  0.1466  0.2674 -1.1029
 9967TIP3    H251393   6.096   4.757  17.099 -0.3158  0.1271  0.8199
 9968TIP3   OH251394   3.163   5.089   2.004 -0.0902  0.0686  0.8022
 9968TIP3    H151395   3.084   5.072   1.952  0.3735 -0.0728  0.1351
 9968TIP3    H251396   3.218   5.012   1.990  1.1166  1.1384 -0.5266
 9969TIP3   OH251397   3.459   1.594   4.779 -0.6141  0.4687 -0.4318
 9969TIP3    H151398   3.421   1.522   4.830 -0.0965  0.0858 -0.5735
 9969TIP3    H251399   3.515   1.640   4.842 -2.0280  1.5869  0.0102
 9970TIP3   OH251400   1.561   3.269  16.795  0.3355  0.1589  0.4659
 9970TIP3    H151401   1.606   3.210  16.855 -0.1372  0.7722  1.4397
 9970TIP3    H251402   1.469   3.241  16.797  0.1149  0.8841  0.9009
 9971TIP3   OH251403   0.434   0.338   2.335  0.5909  0.4757 -0.2350
 9971TIP3    H151404   0.345   0.309   2.315  1.4303 -1.1814 -1.7767
 9971TIP3    H251405   0.449   0.308   2.425 -0.7319  1.6423  0.3915
 9972TIP3   OH251406   5.943   2.169   1.946  0.0126 -0.4939  0.2477
 9972TIP3    H151407   6.022   2.176   2.000 -0.8733  0.7406  1.4349
 9972TIP3    H251408   5.912   2.260   1.937 -0.4850 -0.8107 -1.4017
 9973TIP3   OH251409   3.081   6.743  13.021 -0.9662  0.3724 -0.2177
 9973TIP3    H151410   3.145   6.705  13.081 -1.3667  0.4259  0.2500
 9973TIP3    H251411   3.050   6.668  12.969 -0.4317  0.3688 -0.5317
 9974TIP3   OH251412   1.977   5.808  13.057  0.1645 -0.2220  0.0355
 9974TIP3    H151413   2.016   5.890  13.086 -0.8300 -0.2390  1.4957
 9974TIP3    H251414   1.989   5.748  13.131 -0.4960 -0.9233 -0.4183
 9975TIP3   OH251415   4.173   4.710  13.476  0.4252  0.1857 -0.2225
 9975TIP3    H151416   4.151   4.687  13.566  1.6435  0.4454  0.1564
 9975TIP3    H251417   4.105   4.668  13.423 -0.2051 -0.1057  0.8029
 9976TIP3   OH251418   2.704   3.401  15.104  0.4237 -0.2873 -0.3187
 9976TIP3    H151419   2.726   3.308  15.102  0.5443 -0.2825  0.4338
 9976TIP3    H251420   2.619   3.404  15.148  0.3769 -0.0499 -0.4283
 9977TIP3   OH251421   0.729   6.046   0.689  0.3421 -0.2625 -0.3798
 9977TIP3    H151422   0.794   5.992   0.735 -0.6398 -1.5187 -0.4446
 9977TIP3    H251423   0.700   6.109   0.754  0.7246 -0.4955  0.0227
 9978TIP3   OH251424   3.567   5.521   6.255 -0.4269  0.6478 -0.0946
 9978TIP3    H151425   3.534   5.453   6.314 -0.4544 -1.4373 -2.4105
 9978TIP3    H251426   3.647   5.552   6.296 -0.2500 -1.0120  0.8636
 9979TIP3   OH251427   2.224   5.933   0.106 -0.0727  0.6171 -0.1039
 9979TIP3    H151428   2.224   6.029   0.105 -1.0399  0.6344  0.7753
 9979TIP3    H251429   2.275   5.908   0.029 -1.7750  1.8258 -1.6589
 9980TIP3   OH251430   2.387   0.290   4.937 -0.2581 -0.3220  0.0015
 9980TIP3    H151431   2.369   0.233   5.012  3.4818  0.6896  1.7869
 9980TIP3    H251432   2.450   0.242   4.885  1.2474  1.2067  0.3642
 9981TIP3   OH251433   0.100   3.391   3.220 -0.4914  0.1951  0.2597
 9981TIP3    H151434   0.124   3.416   3.130 -0.8694  0.1079  0.1324
 9981TIP3    H251435   0.181   3.396   3.269  0.0398 -1.2370 -0.4194
 9982TIP3   OH251436   6.324   5.879   5.023 -0.6242 -0.1303  0.2135
 9982TIP3    H151437   6.326   5.971   5.049  0.4340 -0.6941  2.1921
 9982TIP3    H251438   6.231   5.860   5.011 -1.0067  0.6567  1.8010
 9983TIP3   OH251439   3.084   4.709  11.341  0.1125  0.2848 -0.3452
 9983TIP3    H151440   3.037   4.666  11.270 -1.3243  2.5614 -0.8298
 9983TIP3    H251441   3.173   4.721  11.307 -0.2368  0.2667 -1.2778
 9984TIP3   OH251442   2.303   5.024  15.513  0.6329  0.4613 -0.3893
 9984TIP3    H151443   2.284   5.039  15.605  0.0221  3.4842 -0.9567
 9984TIP3    H251444   2.392   4.988  15.512  0.9878  1.2495  1.3414
 9985TIP3   OH251445   6.189   1.155   0.199 -0.0143 -0.2952  0.5232
 9985TIP3    H151446   6.256   1.179   0.134 -0.7251 -0.1130 -0.1466
 9985TIP3    H251447   6.207   1.213   0.273  0.0484  0.3454  0.0157
 9986TIP3   OH251448   4.585   5.981   0.088 -0.5335 -0.1733 -0.1710
 9986TIP3    H151449   4.556   5.970   0.178  2.0087 -1.5228  0.5285
 9986TIP3    H251450   4.510   5.953   0.035 -1.9274  0.3079  1.5199
 9987TIP3   OH251451   1.302   0.527   2.911  0.5054 -0.0049  0.2930
 9987TIP3    H151452   1.275   0.618   2.921 -0.8863 -0.4764  1.0227
 9987TIP3    H251453   1.328   0.519   2.819 -1.9659  0.4919 -0.5021
 9988TIP3   OH251454   3.581   0.977   1.630  0.2532  0.3242  0.2476
 9988TIP3    H151455   3.617   1.064   1.648 -1.4771  0.9075  1.0758
 9988TIP3    H251456   3.547   0.948   1.714 -0.8652 -0.3425 -0.4289
 9989TIP3   OH251457   6.215   1.407   3.498  0.7303 -0.0337 -0.3185
 9989TIP3    H151458   6.173   1.491   3.483  1.7723  0.6604  0.6495
 9989TIP3    H251459   6.143   1.343   3.490 -0.1987  0.9885 -0.2760
 9990TIP3   OH251460   0.406   0.742   6.313 -1.0552  0.0145 -0.4497
 9990TIP3    H151461   0.409   0.828   6.270 -0.8259  0.0443 -0.3785
 9990TIP3    H251462   0.497   0.725   6.337 -1.0251 -0.4893 -0.9340
 9991TIP3   OH251463   3.563   4.156  16.709  0.2875  0.3123 -0.5100
 9991TIP3    H151464   3.647   4.139  16.666  0.7075  0.6423  0.1620
 9991TIP3    H251465   3.521   4.071  16.716  1.0671 -0.0245  0.1598
 9992TIP3   OH251466   2.102   4.538   0.748  0.6451 -0.1933 -0.2908
 9992TIP3    H151467   2.163   4.519   0.820  0.1401  2.5204  0.9051
 9992TIP3    H251468   2.147   4.603   0.695 -0.0046 -0.3692 -1.0585
 9993TIP3   OH251469   5.460   6.625   0.928  0.0307 -0.0987  0.0643
 9993TIP3    H151470   5.415   6.697   0.972 -1.2027  0.0581 -1.4015
 9993TIP3    H251471   5.553   6.649   0.930 -0.5495  2.5062 -2.1082
 9994TIP3   OH251472   3.403   4.245   2.287 -0.2308  0.2905 -0.3437
 9994TIP3    H151473   3.319   4.204   2.307  0.7903 -1.2805  0.9032
 9994TIP3    H251474   3.386   4.299   2.210 -2.0391 -1.2106 -1.0460
 9995TIP3   OH251475   5.586   4.022  12.840 -0.2292 -0.3275  0.3915
 9995TIP3    H151476   5.546   4.001  12.924  2.7693 -3.8496  1.0411
 9995TIP3    H251477   5.549   3.958  12.779  0.4650 -0.2091 -0.1618
 9996TIP3   OH251478   4.261   4.904  16.521  0.2117 -0.3406 -0.0911
 9996TIP3    H151479   4.194   4.970  16.538  0.4084 -0.1210 -0.1701
 9996TIP3    H251480   4.297   4.927  16.435 -0.0981 -0.8667 -0.3662
 9997TIP3   OH251481   2.580   5.238  16.963  0.4683 -0.3153 -0.1915
 9997TIP3    H151482   2.509   5.261  16.903 -0.7243 -2.6213  0.2783
 9997TIP3    H251483   2.549   5.266  17.049  0.1719 -1.2009 -0.0043
 9998TIP3   OH251484   6.691   1.730   0.327 -0.0049 -0.1684 -0.4038
 9998TIP3    H151485   6.754   1.780   0.273 -0.6780  2.2265  0.9625
 9998TIP3    H251486   6.611   1.728   0.275  0.4498 -1.1250 -1.0907
 9999TIP3   OH251487   1.243   3.323  10.979 -0.5867 -0.1508 -0.0235
 9999TIP3    H151488   1.323   3.361  11.015  0.0570 -1.2527 -0.2609
 9999TIP3    H251489   1.273   3.247  10.929 -1.5434  0.7869 -2.1068
10000TIP3   OH251490   0.428   1.442   4.968  0.1335 -0.8998  0.4835
10000TIP3    H151491   0.391   1.356   4.948 -1.5237  0.2200 -1.4035
10000TIP3    H251492   0.516   1.422   5.001 -0.6618 -3.3739  1.2654
10001TIP3   OH251493   1.702   3.746  13.950  0.4996  0.8349  0.1814
10001TIP3    H151494   1.609   3.771  13.955  0.5064  0.7398  0.7893
10001TIP3    H251495   1.745   3.822  13.911  0.2284  1.0375  0.2735
10002TIP3   OH251496   6.743   3.082   1.843  0.3718 -0.4548 -0.6309
10002TIP3    H151497   6.695   3.000   1.831 -0.0198 -0.2645 -0.3886
10002TIP3    H251498   6.707   3.139   1.775  0.4780 -0.4120 -0.6498
10003TIP3   OH251499   5.240   4.564   3.784  0.3615 -0.0153  0.1124
10003TIP3    H151500   5.331   4.536   3.794  1.0711  2.0135 -0.4459
10003TIP3    H251501   5.232   4.586   3.691 -0.3067  1.0672  0.4180
10004TIP3   OH251502   1.362   4.228   0.394 -0.3170  0.3479  0.2340
10004TIP3    H151503   1.342   4.136   0.377 -1.2679  0.2449  1.8654
10004TIP3    H251504   1.285   4.262   0.440 -0.4172  2.2336 -1.2442
10005TIP3   OH251505   3.551   6.220   6.240  0.2488  0.7534  0.2815
10005TIP3    H151506   3.607   6.227   6.317  0.9933 -2.5778  0.1365
10005TIP3    H251507   3.469   6.184   6.274  0.5700 -0.7085 -0.4351
10006TIP3   OH251508   5.860   3.406   3.829 -0.1565 -0.2108  0.4921
10006TIP3    H151509   5.822   3.476   3.777  1.5435  0.3683  0.0026
10006TIP3    H251510   5.851   3.436   3.920 -0.8814 -0.0979  0.3849
10007TIP3   OH251511   5.817   1.374  16.069 -0.1912 -0.4066  0.1363
10007TIP3    H151512   5.752   1.304  16.067 -0.0854 -0.5097  0.2666
10007TIP3    H251513   5.898   1.333  16.038  0.1523 -0.6452  1.3048
10008TIP3   OH251514   2.887   2.478   5.645  0.0221  0.0405 -0.1234
10008TIP3    H151515   2.867   2.537   5.718  1.0891  0.2968 -0.0305
10008TIP3    H251516   2.813   2.489   5.585 -0.3740  0.5790  0.4516
10009TIP3   OH251517   5.638   1.829  12.877 -0.1274 -0.4867 -0.5365
10009TIP3    H151518   5.635   1.828  12.973 -0.7429 -0.5774 -0.5596
10009TIP3    H251519   5.720   1.784  12.856  0.9435  1.1568 -0.0103
10010TIP3   OH251520   5.619   3.170   2.483 -0.5862 -0.5161  0.0372
10010TIP3    H151521   5.633   3.241   2.547 -0.4818 -0.8982  0.4398
10010TIP3    H251522   5.524   3.163   2.476 -0.5981 -0.5025  0.1840
10011TIP3   OH251523   2.398   3.908   2.282 -0.4230  0.0855  0.1273
10011TIP3    H151524   2.384   3.825   2.328  0.1354 -0.2784 -0.3468
10011TIP3    H251525   2.439   3.965   2.347  1.0660 -0.6670 -0.1207
10012TIP3   OH251526   1.492   0.261  11.417  0.1499  0.4900 -0.1657
10012TIP3    H151527   1.402   0.292  11.409  0.5813  2.2206  1.5299
10012TIP3    H251528   1.493   0.179  11.367 -2.1706  0.8012 -0.7900
10013TIP3   OH251529   5.416   5.022   0.795 -0.2163  0.4052  0.3327
10013TIP3    H151530   5.472   4.946   0.813 -0.3421  0.5676  1.5088
10013TIP3    H251531   5.468   5.097   0.826 -1.4945  0.4583  2.4276
10014TIP3   OH251532   3.266   6.322  14.961 -0.0617 -0.2853 -0.4341
10014TIP3    H151533   3.219   6.384  15.016 -0.8154 -0.7429 -0.5540
10014TIP3    H251534   3.340   6.371  14.927  0.0436  0.1887  0.4697
10015TIP3   OH251535   3.819   3.017  11.419  0.7191 -0.6209  0.4472
10015TIP3    H151536   3.894   3.013  11.360 -0.1282 -1.3295 -0.6054
10015TIP3    H251537   3.781   3.104  11.403  0.2222 -0.9845 -0.4132
10016TIP3   OH251538   5.101   3.603   3.612 -0.2826  0.8376 -0.0895
10016TIP3    H151539   5.076   3.683   3.566 -0.2328  2.3416  2.3784
10016TIP3    H251540   5.039   3.597   3.684  0.6027 -0.5721  0.5774
10017TIP3   OH251541   5.216   4.841   2.034  0.0515  0.3851 -0.2034
10017TIP3    H151542   5.245   4.750   2.034 -0.7321  0.1077  1.6349
10017TIP3    H251543   5.234   4.873   1.945  1.7809 -1.0858 -0.3950
10018TIP3   OH251544   3.151   5.182  13.519  0.0143 -0.0126 -0.0144
10018TIP3    H151545   3.128   5.251  13.457 -0.5421  0.3832  0.6141
10018TIP3    H251546   3.247   5.176  13.514  0.0008  0.2640 -0.6422
10019TIP3   OH251547   4.676   2.387   2.420  0.9157 -0.2454  0.0035
10019TIP3    H151548   4.690   2.375   2.514 -1.0594 -0.7998  0.2475
10019TIP3    H251549   4.610   2.457   2.414  1.8851  0.6091 -1.0200
10020TIP3   OH251550   3.408   1.984   4.738 -0.0214 -0.4016  0.1794
10020TIP3    H151551   3.383   1.905   4.691 -0.4414 -0.4463  0.4744
10020TIP3    H251552   3.328   2.011   4.784 -0.3410  1.1471 -1.2549
10021TIP3   OH251553   1.269   1.853  13.090  0.1359  0.2950 -0.0918
10021TIP3    H151554   1.341   1.882  13.145  0.5807  0.9956 -1.0301
10021TIP3    H251555   1.301   1.863  13.000 -0.0945 -2.0895 -0.4757
10022TIP3   OH251556   0.649   4.056  13.225 -0.4171  0.1621  0.0079
10022TIP3    H151557   0.710   4.106  13.171 -1.7193  0.6393 -1.0647
10022TIP3    H251558   0.621   4.117  13.293  1.2831 -0.4622  1.3087
10023TIP3   OH251559   3.856   4.833   2.602  0.5449  0.2303  0.4746
10023TIP3    H151560   3.784   4.860   2.659  0.9605 -0.1524  1.1808
10023TIP3    H251561   3.935   4.865   2.645  0.7260  1.8884 -1.0078
10024TIP3   OH251562   5.158   3.059   1.443  0.0169  0.3033  0.3624
10024TIP3    H151563   5.190   3.089   1.358 -2.0356 -1.4659 -1.0673
10024TIP3    H251564   5.065   3.080   1.443 -0.1661 -0.4185  1.8778
10025TIP3   OH251565   5.091   0.370  10.301  0.2947  0.7069  0.0147
10025TIP3    H151566   5.047   0.301  10.251  1.6443  0.1712 -0.4447
10025TIP3    H251567   5.020   0.413  10.349 -0.9335  0.7550 -1.7632
10026TIP3   OH251568   5.323   6.464   3.293 -0.0091 -0.6574  0.2505
10026TIP3    H151569   5.306   6.496   3.382  0.3992 -0.5225  0.2788
10026TIP3    H251570   5.235   6.455   3.254 -0.0916  3.9069 -0.9501
10027TIP3   OH251571   4.659   5.079   3.420  0.1551 -0.1537 -0.3200
10027TIP3    H151572   4.610   5.013   3.469 -0.2501 -0.0127 -0.5351
10027TIP3    H251573   4.708   5.127   3.487  0.4814 -0.6943 -0.1681
10028TIP3   OH251574   6.533   4.188   4.776 -0.2620 -0.2622 -0.1809
10028TIP3    H151575   6.466   4.153   4.835 -1.5130  0.9022 -0.8938
10028TIP3    H251576   6.547   4.118   4.712 -0.2602 -0.7978  0.4013
10029TIP3   OH251577   6.704   2.741  11.857  0.0657 -0.4468 -0.0925
10029TIP3    H151578   6.661   2.697  11.930 -1.6235  0.1162 -0.7306
10029TIP3    H251579   6.761   2.675  11.819 -1.2002 -1.5920 -0.0297
10030TIP3   OH251580   0.146   1.109   2.379 -0.1198  0.2533 -0.3255
10030TIP3    H151581   0.112   1.021   2.394 -1.1020  0.6227 -0.3914
10030TIP3    H251582   0.240   1.101   2.395 -0.1670 -0.8636 -0.5765
10031TIP3   OH251583   2.550   2.613  12.550 -0.2536  0.0716 -0.3238
10031TIP3    H151584   2.465   2.642  12.583 -0.3940  0.9662 -1.4025
10031TIP3    H251585   2.536   2.602  12.456  0.8570  0.3462 -0.5272
10032TIP3   OH251586   0.896   4.315   1.142  0.0086 -0.2789 -0.5411
10032TIP3    H151587   0.916   4.349   1.230 -0.6941 -1.7968  0.2263
10032TIP3    H251588   0.802   4.295   1.146  0.2509 -1.5640 -1.2380
10033TIP3   OH251589   0.873   2.508   1.527  0.5664  0.0708 -0.2422
10033TIP3    H151590   0.964   2.510   1.559  0.6041 -1.0361 -0.2416
10033TIP3    H251591   0.851   2.415   1.526  0.4994  0.0928 -3.2399
10034TIP3   OH251592   4.602   1.840   1.115  0.6566 -0.3540  0.0563
10034TIP3    H151593   4.579   1.770   1.176 -1.6265 -2.4251 -3.0170
10034TIP3    H251594   4.530   1.902   1.121  1.2397  0.2750  0.6361
10035TIP3   OH251595   6.704   2.159  10.575 -0.4950  0.1954  0.2204
10035TIP3    H151596   6.763   2.150  10.649  0.3766  2.0360 -0.2131
10035TIP3    H251597   6.675   2.070  10.555  1.9486 -0.6990  0.5830
10036TIP3   OH251598   4.984   3.710  11.432  0.3734 -0.0233 -0.1485
10036TIP3    H151599   4.927   3.695  11.357 -0.8991  0.6135  0.6791
10036TIP3    H251600   4.926   3.706  11.508  1.2212  1.7803  0.6187
10037TIP3   OH251601   3.001   0.128  17.217  0.3586 -0.4507  0.5355
10037TIP3    H151602   3.048   0.050  17.187 -2.6848 -2.2687  0.3050
10037TIP3    H251603   3.035   0.199  17.162  0.9556 -2.1785 -1.4032
10038TIP3   OH251604   5.166   3.387  11.231  0.1019 -0.5600 -0.0987
10038TIP3    H151605   5.145   3.392  11.324 -2.0094  1.1156 -0.6273
10038TIP3    H251606   5.174   3.294  11.213  1.4967 -0.8659  1.9504
10039TIP3   OH251607   1.489   5.772   4.135 -0.1471  0.2098 -0.1000
10039TIP3    H151608   1.575   5.813   4.142  0.2384 -0.5478 -0.4449
10039TIP3    H251609   1.446   5.821   4.065 -0.2352  0.9959  0.4879
10040TIP3   OH251610   3.376   2.731   5.794  0.3781  0.2440  0.5379
10040TIP3    H151611   3.417   2.812   5.763  0.2907 -0.2234 -0.8188
10040TIP3    H251612   3.418   2.714   5.878 -0.8627  2.6341  1.6796
10041TIP3   OH251613   0.609   5.544  12.837  0.8082  0.2246 -0.0550
10041TIP3    H151614   0.528   5.591  12.819  0.4258  0.7808  2.9097
10041TIP3    H251615   0.581   5.452  12.846  0.7614  0.1884 -0.5122
10042TIP3   OH251616   5.211   0.508   2.542  0.0698  0.1774  0.4153
10042TIP3    H151617   5.246   0.459   2.467 -0.7051  1.0302 -0.5205
10042TIP3    H251618   5.274   0.492   2.613  0.6145 -0.9458 -0.3055
10043TIP3   OH251619   2.269   1.465   3.762  0.1131 -0.0394 -0.2725
10043TIP3    H151620   2.231   1.378   3.752  0.3492 -0.5202  2.6370
10043TIP3    H251621   2.195   1.525   3.754 -0.6747 -0.7562  1.4173
10044TIP3   OH251622   1.198   4.182  14.579  0.2499  0.0662 -0.5129
10044TIP3    H151623   1.248   4.225  14.648 -0.4038  1.6857 -1.0263
10044TIP3    H251624   1.114   4.229  14.577 -1.4198 -2.7637  0.5170
10045TIP3   OH251625   0.777   0.487  11.754  0.2595 -0.5098  0.0617
10045TIP3    H151626   0.767   0.486  11.659 -0.2525 -1.6226  0.1192
10045TIP3    H251627   0.703   0.436  11.786  0.5435 -0.3039  1.0523
10046TIP3   OH251628   6.139   4.836   1.789  0.6473  0.1090 -0.0525
10046TIP3    H151629   6.152   4.865   1.699  0.1443 -0.4499 -0.3071
10046TIP3    H251630   6.057   4.786   1.787  0.5309  0.2496  0.7494
10047TIP3   OH251631   0.860   5.289   2.438 -0.3161  0.6040  0.2189
10047TIP3    H151632   0.905   5.270   2.520 -0.4339  0.1260  0.1742
10047TIP3    H251633   0.928   5.325   2.381 -0.0753  0.2641  0.2884
10048TIP3   OH251634   3.822   0.773  14.129  0.1019 -0.8177 -0.3267
10048TIP3    H151635   3.855   0.857  14.162  1.6770 -1.9208  1.0042
10048TIP3    H251636   3.729   0.773  14.151  0.7992 -0.8912  2.8797
10049TIP3   OH251637   6.563   0.386   4.253  0.2199 -0.2448  0.0751
10049TIP3    H151638   6.598   0.375   4.165  1.0538 -0.0523  0.3790
10049TIP3    H251639   6.483   0.334   4.253  0.6754 -0.9587 -0.5288
10050TIP3   OH251640   6.678   3.521  16.641  0.9361 -0.6714  0.2257
10050TIP3    H151641   6.772   3.527  16.653  1.4054 -0.6902 -2.9461
10050TIP3    H251642   6.649   3.612  16.628  0.8258 -0.8154 -0.5998
10051TIP3   OH251643   1.194   0.179   1.579  0.0511  0.5897  0.7720
10051TIP3    H151644   1.179   0.221   1.494  0.0546 -0.9395  0.0032
10051TIP3    H251645   1.121   0.118   1.589  1.1257 -0.6854  0.9372
10052TIP3   OH251646   6.350   5.249   0.943 -0.3319 -0.2520  0.1283
10052TIP3    H151647   6.413   5.179   0.960 -0.1970 -0.3595 -0.7856
10052TIP3    H251648   6.401   5.330   0.952 -0.4310 -0.2766  0.9396
10053TIP3   OH251649   5.288   0.433  14.247  0.1379 -0.1183 -0.4085
10053TIP3    H151650   5.271   0.343  14.220  1.7656  0.0660 -2.1184
10053TIP3    H251651   5.382   0.436  14.264 -0.0244  1.0731  0.4095
10054TIP3   OH251652   1.268   6.344  17.052  0.0855  0.4484  0.2636
10054TIP3    H151653   1.358   6.312  17.047 -0.0167  0.0292  1.1031
10054TIP3    H251654   1.277   6.439  17.049  0.5445  0.4061  0.1623
10055TIP3   OH251655   1.060   3.020  16.460  0.6402 -0.3510  0.0246
10055TIP3    H151656   1.151   3.030  16.487  0.6208 -0.4523  0.1315
10055TIP3    H251657   1.026   2.949  16.515  0.6148 -0.6015 -0.3087
10056TIP3   OH251658   0.440   6.507  11.573 -0.0847 -0.0612  0.2946
10056TIP3    H151659   0.500   6.522  11.646  0.2772  0.4134 -0.0955
10056TIP3    H251660   0.355   6.495  11.614  0.4081 -1.5693  0.8960
10057TIP3   OH251661   4.173   4.972   0.700  0.2369  0.1996 -0.2240
10057TIP3    H151662   4.153   5.065   0.690  0.4035  0.0950 -1.6037
10057TIP3    H251663   4.104   4.938   0.757 -0.2233  1.0164 -0.2951
10058TIP3   OH251664   3.428   0.246   5.121  0.0980 -0.0914  0.0706
10058TIP3    H151665   3.522   0.241   5.101 -0.5619  0.0859 -3.1875
10058TIP3    H251666   3.422   0.316   5.186  2.1422  0.3355 -0.1462
10059TIP3   OH251667   3.551   5.709  14.783 -0.0012 -0.1612 -0.2845
10059TIP3    H151668   3.607   5.704  14.860  1.3675 -0.9936 -1.3181
10059TIP3    H251669   3.467   5.742  14.816  1.0231  0.9030  1.3098
10060TIP3   OH251670   6.512   2.298  13.882  0.1564 -0.3241 -0.2611
10060TIP3    H151671   6.446   2.317  13.949 -1.4298  2.1399 -2.4193
10060TIP3    H251672   6.468   2.237  13.822  1.2839 -1.8815  0.4644
10061TIP3   OH251673   6.184   0.874  12.281  0.5739  0.0803  0.1600
10061TIP3    H151674   6.203   0.928  12.204  1.6940  1.9688  1.7106
10061TIP3    H251675   6.261   0.817  12.288  0.9665  0.6480  0.4977
10062TIP3   OH251676   3.673   6.407  14.055  0.6139 -0.6263  0.1814
10062TIP3    H151677   3.648   6.336  13.995  1.3378 -0.5344 -0.2353
10062TIP3    H251678   3.618   6.481  14.028 -0.2134 -1.0538  0.6803
10063TIP3   OH251679   4.906   6.542  13.205  0.1294 -0.0636  0.5165
10063TIP3    H151680   4.916   6.561  13.298 -0.9654  0.7637  0.4733
10063TIP3    H251681   4.946   6.456  13.193 -0.4526 -0.5327  1.9152
10064TIP3   OH251682   1.228   6.024  16.109  0.3586  0.0469  0.8108
10064TIP3    H151683   1.216   6.020  16.204 -0.2832 -0.0614  0.7260
10064TIP3    H251684   1.183   5.947  16.075 -0.9000  0.9743  0.2840
10065TIP3   OH251685   2.196   4.297   1.315  0.2204  0.1746  0.0210
10065TIP3    H151686   2.230   4.375   1.360  0.4391 -0.5958  1.2214
10065TIP3    H251687   2.232   4.303   1.227 -0.9392  2.1955 -0.3680
10066TIP3   OH251688   2.624   3.024   4.829 -0.1633 -0.4910 -0.6831
10066TIP3    H151689   2.698   2.979   4.870 -0.1729 -1.2075 -1.4460
10066TIP3    H251690   2.621   3.109   4.873  0.4234 -0.8774  0.1237
10067TIP3   OH251691   4.852   5.272  16.729 -0.4085 -0.1132 -0.1093
10067TIP3    H151692   4.924   5.278  16.666 -0.6375  1.5486 -0.2399
10067TIP3    H251693   4.853   5.181  16.758 -0.4946 -0.9837 -2.7378
10068TIP3   OH251694   5.624   0.600  15.057 -0.1341  0.1251  0.4358
10068TIP3    H151695   5.623   0.643  14.972  0.1015  0.8773  0.8149
10068TIP3    H251696   5.626   0.671  15.121 -1.8133 -0.3913  1.1026
10069TIP3   OH251697   5.137   4.886   2.855 -0.3192 -0.2225  1.1141
10069TIP3    H151698   5.128   4.829   2.932 -0.3166 -1.7241  0.0207
10069TIP3    H251699   5.232   4.898   2.846 -0.3363  0.3095  1.5870
10070TIP3   OH251700   3.954   5.894  17.149 -0.1921 -0.1812  0.5579
10070TIP3    H151701   3.935   5.894  17.056 -1.6915 -0.8248  0.8393
10070TIP3    H251702   3.874   5.859  17.190  1.1273 -1.7501  1.9112
10071TIP3   OH251703   0.023   0.108   4.946 -0.0021  0.0682  0.0579
10071TIP3    H151704  -0.007   0.196   4.966 -2.4547 -0.9945  1.3528
10071TIP3    H251705   0.055   0.113   4.856  0.1024  2.3238  0.2103
10072TIP3   OH251706   2.293   6.679   6.010 -0.8958  0.1598  0.1397
10072TIP3    H151707   2.229   6.722   6.066  0.5843  0.0415  1.9612
10072TIP3    H251708   2.370   6.669   6.065 -0.0142 -1.6106 -1.3628
10073TIP3   OH251709   1.888   4.577   1.512 -0.1451 -0.5994 -0.2170
10073TIP3    H151710   1.912   4.504   1.455  0.3645  0.1119 -0.9292
10073TIP3    H251711   1.937   4.563   1.592 -0.7680 -1.5397  0.0045
10074TIP3   OH251712   1.899   3.587  13.707  0.0091  0.1886 -0.1621
10074TIP3    H151713   1.933   3.547  13.627  0.3181 -0.7302  0.4306
10074TIP3    H251714   1.806   3.598  13.690 -0.2439 -1.5757 -0.0011
10075TIP3   OH251715   1.749   1.048   6.116  0.3745 -0.3011 -0.2873
10075TIP3    H151716   1.670   1.055   6.170 -0.0731 -0.5325 -0.9074
10075TIP3    H251717   1.755   1.132   6.070  0.6398 -0.1835 -0.0419
10076TIP3   OH251718   3.501   1.920   1.455 -0.5551 -0.1969 -0.2098
10076TIP3    H151719   3.514   1.868   1.376 -0.5022  0.7996 -0.8689
10076TIP3    H251720   3.520   2.010   1.428  1.1620 -0.0666  1.3631
10077TIP3   OH251721   5.897   4.124   3.451 -0.3838 -0.0880 -0.1048
10077TIP3    H151722   5.899   4.194   3.385  0.0908  0.6800  0.7267
10077TIP3    H251723   5.940   4.050   3.408 -2.7454 -0.5604 -1.7572
10078TIP3   OH251724   3.566   2.933   4.813  0.1890 -0.1987  0.4126
10078TIP3    H151725   3.478   2.954   4.847 -0.2562 -0.5618 -0.4901
10078TIP3    H251726   3.602   2.871   4.877  0.1922  0.7253  1.3253
10079TIP3   OH251727   6.731   2.670  14.613  0.2585  0.1604 -0.1061
10079TIP3    H151728   6.721   2.684  14.519  0.3626  3.3158  0.2842
10079TIP3    H251729   6.818   2.705  14.634  0.2497 -0.5257  1.1497
10080TIP3   OH251730   1.656   5.334  17.182 -0.0078 -0.2887  0.5238
10080TIP3    H151731   1.574   5.336  17.133  0.5755  0.9848 -0.4567
10080TIP3    H251732   1.645   5.265  17.247 -2.1923  0.4649  0.9904
10081TIP3   OH251733   6.206   5.650  16.388 -0.1435  0.7130  0.4047
10081TIP3    H151734   6.292   5.621  16.418 -1.1077 -1.9400  0.7476
10081TIP3    H251735   6.177   5.712  16.455  0.2936 -0.5850  1.8326
10082TIP3   OH251736   4.660   1.481  12.144  0.2707  0.4299  0.0666
10082TIP3    H151737   4.646   1.528  12.226  0.4027  2.7802 -1.2061
10082TIP3    H251738   4.756   1.478  12.135  0.2576  2.2035 -1.0632
10083TIP3   OH251739   0.047   2.144   1.737  0.6397 -0.8042  0.0851
10083TIP3    H151740   0.130   2.179   1.705  0.0285  0.6529  0.0862
10083TIP3    H251741   0.022   2.203   1.808 -0.0865 -1.6154  0.5126
10084TIP3   OH251742   1.336   5.583  17.191 -0.8108  0.5804  0.4568
10084TIP3    H151743   1.415   5.604  17.240 -0.8485  1.1465  0.2900
10084TIP3    H251744   1.332   5.488  17.189 -0.2210  0.5528  0.6030
10085TIP3   OH251745   5.120   4.445  11.808 -0.1316 -0.2481 -0.4325
10085TIP3    H151746   5.192   4.477  11.754 -0.5371 -0.1178 -0.8912
10085TIP3    H251747   5.100   4.358  11.774  0.1719 -0.5039  0.0431
10086TIP3   OH251748   6.004   6.520  11.447  0.2455  0.0552  0.1205
10086TIP3    H151749   5.992   6.450  11.510 -2.2754  0.3230  0.0108
10086TIP3    H251750   5.945   6.590  11.476  2.2638  1.9284 -0.0946
10087TIP3   OH251751   0.942   2.629  14.329  0.4992  0.2723  0.7407
10087TIP3    H151752   0.950   2.723  14.312 -0.3726  0.4938  1.5083
10087TIP3    H251753   0.969   2.619  14.421 -1.4860  0.0786  1.3175
10088TIP3   OH251754   2.119   0.148  16.623  0.1336  0.0215 -0.4217
10088TIP3    H151755   2.116   0.054  16.603  2.5053 -0.1257 -0.2114
10088TIP3    H251756   2.108   0.190  16.538 -0.1283 -0.4508 -0.6270
10089TIP3   OH251757   3.723   5.392   5.496  0.0462  0.7540  0.0882
10089TIP3    H151758   3.810   5.383   5.456  0.0501  0.6943  0.1095
10089TIP3    H251759   3.683   5.466   5.451 -0.1936  0.2886 -0.4796
10090TIP3   OH251760   6.377   5.118   5.314  0.2650 -0.2535  0.4470
10090TIP3    H151761   6.430   5.101   5.392  1.2143  0.5070 -0.0068
10090TIP3    H251762   6.306   5.054   5.318  0.6390 -0.6108  1.6202
10091TIP3   OH251763   3.068   1.762  17.226 -0.0555  0.0053 -0.0064
10091TIP3    H151764   3.032   1.712  17.152 -0.2091  1.1840 -0.7463
10091TIP3    H251765   3.162   1.767  17.208 -0.2115  1.0428 -0.6021
10092TIP3   OH251766   5.349   2.446   0.323  0.3711 -0.2053 -0.4429
10092TIP3    H151767   5.356   2.362   0.368  0.4436  0.0085 -0.0569
10092TIP3    H251768   5.340   2.423   0.231  1.3914 -0.6101 -0.4432
10093TIP3   OH251769   0.134   0.031   4.697  0.9041 -0.1302  0.6305
10093TIP3    H151770   0.203  -0.025   4.732  1.6057  0.8853  0.9100
10093TIP3    H251771   0.177   0.082   4.628  0.1639 -0.2696  0.0610
10094TIP3   OH251772   5.454   0.994   0.965 -0.5353 -0.3697 -0.7363
10094TIP3    H151773   5.514   1.030   0.900 -1.1545  0.7312 -0.7125
10094TIP3    H251774   5.367   1.011   0.929 -0.8700 -0.2281  0.1425
10095TIP3   OH251775   1.345   0.118  13.530  0.3036  0.4867  0.2881
10095TIP3    H151776   1.409   0.141  13.463  1.5979 -2.9802  0.2251
10095TIP3    H251777   1.398   0.086  13.603 -1.2657 -2.0344  0.4056
10096TIP3   OH251778   0.527   2.385  16.486 -0.1929 -0.4413 -0.3051
10096TIP3    H151779   0.474   2.433  16.550  1.4706  0.2741  0.5525
10096TIP3    H251780   0.463   2.350  16.424 -1.5685  1.6687 -0.1374
10097TIP3   OH251781   2.941   6.147   2.302  0.2392  0.0116  0.2080
10097TIP3    H151782   2.852   6.177   2.320  0.6424  0.1892  1.9536
10097TIP3    H251783   2.993   6.227   2.297  0.7511 -0.2119  1.7532
10098TIP3   OH251784   5.289   1.396  11.782  0.4254 -0.0235  0.3270
10098TIP3    H151785   5.307   1.448  11.703 -0.4508 -0.5721 -0.2456
10098TIP3    H251786   5.375   1.379  11.820  0.8880 -0.1282 -0.7575
10099TIP3   OH251787   2.998   4.132  16.352  0.1370 -0.6612 -0.6160
10099TIP3    H151788   2.999   4.131  16.256  0.5448 -0.1396 -0.6251
10099TIP3    H251789   3.017   4.223  16.375 -1.9440 -0.3419 -0.0529
10100TIP3   OH251790   1.877   3.782  12.077  0.5895 -0.3146 -0.1286
10100TIP3    H151791   1.868   3.752  12.167  0.2651 -0.0316 -0.0648
10100TIP3    H251792   1.971   3.777  12.059  0.6746 -0.2031  0.2822
10101TIP3   OH251793   5.946   3.200  12.038 -0.0323 -0.3952  0.0137
10101TIP3    H151794   5.963   3.284  11.995  2.1837 -1.6357 -1.6983
10101TIP3    H251795   6.011   3.195  12.108  1.0975 -1.4746 -1.0910
10102TIP3   OH251796   6.009   1.523  13.160 -0.5133 -0.0151  0.3161
10102TIP3    H151797   5.949   1.595  13.178 -2.8070 -1.6749 -0.3718
10102TIP3    H251798   5.981   1.489  13.074  1.1613 -1.0832  0.1550
10103TIP3   OH251799   2.501   6.379   0.412  0.1244 -0.2217  0.2571
10103TIP3    H151800   2.562   6.359   0.483  0.1153 -0.6536  0.1446
10103TIP3    H251801   2.415   6.368   0.452  0.0702  2.8037  1.1216
10104TIP3   OH251802   2.926   5.870  16.030  0.4802 -0.2233 -0.1928
10104TIP3    H151803   2.849   5.813  16.037 -1.1912  2.0224  0.1934
10104TIP3    H251804   2.916   5.932  16.102  2.5836  0.2091 -0.2473
10105TIP3   OH251805   1.690   2.888   2.861  0.5787 -0.2479 -0.2629
10105TIP3    H151806   1.619   2.940   2.899 -0.4049 -2.0083  0.3361
10105TIP3    H251807   1.753   2.879   2.932  0.0001 -1.2376  0.1271
10106TIP3   OH251808   4.683   2.876  11.978  0.1717  0.6272 -0.1318
10106TIP3    H151809   4.741   2.821  11.927 -0.6054 -0.1102 -0.2253
10106TIP3    H251810   4.632   2.815  12.032 -0.7639  1.2370 -0.3117
10107TIP3   OH251811   6.795   3.931  17.081  0.3116 -0.3383 -0.3218
10107TIP3    H151812   6.786   3.843  17.044 -0.1239 -0.9808  1.2575
10107TIP3    H251813   6.750   3.926  17.166 -0.2289  1.5731 -0.4664
10108TIP3   OH251814   2.870   6.481   1.626 -0.3208  0.9613 -0.0712
10108TIP3    H151815   2.830   6.559   1.665 -0.5876 -0.3169  2.2852
10108TIP3    H251816   2.893   6.425   1.700 -0.1690 -1.2421 -1.7079
10109TIP3   OH251817   3.100   3.887   6.253 -0.4883 -0.2679  0.3801
10109TIP3    H151818   3.085   3.872   6.160  0.8093 -1.5415  0.3601
10109TIP3    H251819   3.154   3.813   6.281 -0.8615  0.1082  2.1410
10110TIP3   OH251820   1.120   1.510   3.007  0.0092  0.1033 -0.2793
10110TIP3    H151821   1.088   1.511   2.918 -0.7932  2.2428  0.0111
10110TIP3    H251822   1.076   1.435   3.048  0.2192 -0.7512 -1.5805
10111TIP3   OH251823   1.691   6.778  17.230 -0.7383 -0.0547  0.0129
10111TIP3    H151824   1.728   6.695  17.260  0.8466  0.5862 -0.1469
10111TIP3    H251825   1.644   6.756  17.149 -2.4762 -1.2378  1.3040
10112TIP3   OH251826   0.916   0.660   6.021  0.0433  0.2801  0.3525
10112TIP3    H151827   0.998   0.651   6.069 -0.1085 -0.9065  0.4067
10112TIP3    H251828   0.849   0.668   6.089  0.0862  1.0218  0.3104
10113TIP3   OH251829   3.917   3.653  12.165 -0.1132 -0.4916 -0.1247
10113TIP3    H151830   3.886   3.632  12.077  1.9978 -3.0377 -0.3291
10113TIP3    H251831   3.841   3.642  12.221 -0.9496 -1.0276 -1.3401
10114TIP3   OH251832   2.593   5.467  17.275  0.2210  0.1335 -0.3713
10114TIP3    H151833   2.639   5.384  17.263  0.0763  0.2122 -1.5462
10114TIP3    H251834   2.564   5.466  17.366  2.1051 -0.1423  0.2452
10115TIP3   OH251835   0.254   5.846  16.228 -0.2494  0.7620  0.2645
10115TIP3    H151836   0.334   5.793  16.234 -0.3262  0.7019  0.8278
10115TIP3    H251837   0.285   5.936  16.231 -0.0041  0.7808 -2.1947
10116TIP3   OH251838   1.543   1.224  15.880  0.4112  0.3602  0.2600
10116TIP3    H151839   1.568   1.313  15.904  0.1719  0.6452 -0.5427
10116TIP3    H251840   1.483   1.235  15.806 -0.0627 -0.4360  0.5234
10117TIP3   OH251841   4.630   3.946   2.835  0.6755  0.3480 -0.3097
10117TIP3    H151842   4.579   3.952   2.754  0.0785  4.2976  0.2731
10117TIP3    H251843   4.716   3.980   2.812  1.4319 -1.2971  0.0275
10118TIP3   OH251844   5.939   4.339  14.531  0.1290  0.4595 -0.4620
10118TIP3    H151845   5.998   4.303  14.597 -2.6837 -1.7414  0.9768
10118TIP3    H251846   5.871   4.384  14.582 -2.0136 -1.1535 -1.8192
10119TIP3   OH251847   6.115   1.259  13.008 -0.1716 -0.0177  0.5948
10119TIP3    H151848   6.138   1.277  13.099 -2.4528  0.9687  1.0176
10119TIP3    H251849   6.028   1.298  12.997 -0.4581 -1.1930 -1.6565
10120TIP3   OH251850   6.057   3.683   0.896  0.1826 -0.0195 -0.6958
10120TIP3    H151851   6.046   3.773   0.927 -0.8935 -0.1110 -0.7779
10120TIP3    H251852   6.151   3.668   0.900  0.1432  0.1838  1.9865
10121TIP3   OH251853   3.376   5.215  11.527 -0.1178  0.2787  0.0139
10121TIP3    H151854   3.356   5.161  11.451 -0.2128 -1.6800  1.4035
10121TIP3    H251855   3.469   5.199  11.543 -0.5359 -0.7875  1.4340
10122TIP3   OH251856   1.912   4.159  14.283 -0.1877 -0.5350  0.8637
10122TIP3    H151857   1.954   4.074  14.275  0.0962 -0.3240 -0.0341
10122TIP3    H251858   1.819   4.141  14.264 -0.1238 -0.6411  0.6494
10123TIP3   OH251859   2.653   6.641  14.040  0.3993  0.3774 -0.5301
10123TIP3    H151860   2.600   6.658  13.962  0.0612  0.2884 -0.3222
10123TIP3    H251861   2.644   6.547  14.055 -2.0823  0.8766  1.4295
10124TIP3   OH251862   5.159   4.636  16.174 -0.4365  0.1395  0.0049
10124TIP3    H151863   5.152   4.731  16.187 -0.7090  0.1229 -0.0034
10124TIP3    H251864   5.193   4.603  16.257  1.3068  0.4265 -0.5750
10125TIP3   OH251865   3.640   0.028   1.069  0.3788  0.1303  0.4468
10125TIP3    H151866   3.612   0.103   1.016  1.4129  0.1079 -0.1438
10125TIP3    H251867   3.628   0.057   1.159 -0.1258  0.6618  0.2147
10126TIP3   OH251868   3.104   3.343   4.127  0.2856 -0.1659  0.5845
10126TIP3    H151869   3.131   3.255   4.101  0.2245 -0.3444  1.1066
10126TIP3    H251870   3.163   3.402   4.081  0.4487 -0.4884  0.3809
10127TIP3   OH251871   4.457   4.904  12.211  0.9949 -0.6021 -0.5868
10127TIP3    H151872   4.530   4.949  12.251  0.3128 -1.4788  1.7140
10127TIP3    H251873   4.488   4.814  12.198  0.7584 -0.6565 -0.7822
10128TIP3   OH251874   5.354   3.854   4.718  0.0833  0.0437 -0.1268
10128TIP3    H151875   5.342   3.947   4.736  1.2630  0.1928 -0.0871
10128TIP3    H251876   5.417   3.825   4.784 -0.9785 -0.9851  0.4325
10129TIP3   OH251877   5.622   2.158  13.602  0.9807 -0.3809  0.6370
10129TIP3    H151878   5.661   2.237  13.567  0.1920  0.6409  2.0304
10129TIP3    H251879   5.669   2.087  13.559  0.7864  0.8202 -1.6381
10130TIP3   OH251880   3.003   4.407   3.153 -0.0361 -0.0147  0.1632
10130TIP3    H151881   3.098   4.408   3.145 -0.0847  1.9531 -0.4478
10130TIP3    H251882   2.987   4.427   3.245  0.1537 -2.7225  0.8292
10131TIP3   OH251883   3.256   4.163  13.515  0.4808  0.0575 -1.0177
10131TIP3    H151884   3.240   4.104  13.589  0.8805 -0.6573 -1.4964
10131TIP3    H251885   3.242   4.108  13.438 -1.2429  1.1423 -1.4926
10132TIP3   OH251886   2.191   2.859   0.515 -0.6014  0.4260 -0.4265
10132TIP3    H151887   2.219   2.830   0.602  1.3613  1.2883 -0.7462
10132TIP3    H251888   2.157   2.948   0.529 -0.1992  0.6004 -0.5496
10133TIP3   OH251889   2.184   1.757   4.910 -0.0329  0.4732  0.2454
10133TIP3    H151890   2.156   1.746   5.001 -0.0441  1.4877  0.3751
10133TIP3    H251891   2.267   1.805   4.916 -0.1492  0.7465 -0.2799
10134TIP3   OH251892   4.543   1.366  10.423  0.5670  0.4352 -0.1238
10134TIP3    H151893   4.501   1.346  10.506 -0.0792 -0.6949 -0.7219
10134TIP3    H251894   4.471   1.382  10.362  0.9891 -1.0521 -1.0392
10135TIP3   OH251895   4.371   4.119  11.245 -0.3099  0.1919  0.3521
10135TIP3    H151896   4.447   4.147  11.296 -0.6744  0.1810  0.9038
10135TIP3    H251897   4.383   4.024  11.235 -1.1857 -0.1118  2.0148
10136TIP3   OH251898   1.848   1.086   4.359  0.3667 -0.0478 -0.2852
10136TIP3    H151899   1.804   1.034   4.426  0.7471 -0.2862 -0.2214
10136TIP3    H251900   1.843   1.032   4.280  2.2207 -0.9256  0.1644
10137TIP3   OH251901   3.649   0.319   0.558 -0.1261  0.2917  0.0069
10137TIP3    H151902   3.739   0.348   0.547 -0.1311 -0.1817 -1.2789
10137TIP3    H251903   3.596   0.397   0.541 -0.0061  0.3498 -0.0933
10138TIP3   OH251904   5.070   2.270  11.241  0.2398  0.5686  0.1823
10138TIP3    H151905   4.992   2.252  11.293  0.5506  2.4419  1.3468
10138TIP3    H251906   5.043   2.339  11.180  1.0084  1.3181  0.6776
10139TIP3   OH251907   3.377   5.439   5.342  0.6712 -0.0890 -0.2294
10139TIP3    H151908   3.320   5.423   5.418 -1.0487  1.1116 -1.2340
10139TIP3    H251909   3.381   5.534   5.335  0.0569 -0.1999 -2.2014
10140TIP3   OH251910   0.815   0.141  10.698  0.0078 -0.3692 -0.2123
10140TIP3    H151911   0.743   0.157  10.638 -0.1755 -0.2533  0.0348
10140TIP3    H251912   0.783   0.072  10.756  0.1656 -0.4481 -0.2172
10141TIP3   OH251913   0.336   6.134  16.248 -0.1162  0.0401  0.1264
10141TIP3    H151914   0.408   6.188  16.214  0.0118  0.3663  0.9056
10141TIP3    H251915   0.262   6.156  16.192  0.8455 -1.6717 -1.8660
10142TIP3   OH251916   2.869   2.157   0.548  0.6611 -0.3191  0.0411
10142TIP3    H151917   2.959   2.187   0.553  0.7336 -0.6876  1.1133
10142TIP3    H251918   2.868   2.074   0.597 -0.1512 -0.5521 -0.3569
10143TIP3   OH251919   5.835   1.611   0.411  0.8527 -0.0488 -0.1341
10143TIP3    H151920   5.887   1.687   0.383  0.7183  0.2688  0.4651
10143TIP3    H251921   5.899   1.542   0.427  1.0177  0.0772 -0.2528
10144TIP3   OH251922   3.188   5.107   0.273 -0.3447 -0.4351 -0.1533
10144TIP3    H151923   3.175   5.036   0.211 -1.9315 -0.2767 -0.0217
10144TIP3    H251924   3.105   5.155   0.273  0.1131  0.4002  1.0350
10145TIP3   OH251925   1.049   2.830  16.033 -0.0263 -0.2505 -0.6095
10145TIP3    H151926   0.990   2.874  16.095  0.4942 -1.0029  0.4349
10145TIP3    H251927   1.099   2.901  15.993 -1.5409  0.3935 -1.4235
10146TIP3   OH251928   2.720   0.848  12.085  0.6841 -0.5136  0.1968
10146TIP3    H151929   2.653   0.840  12.018  1.3975 -0.6134 -0.5208
10146TIP3    H251930   2.672   0.846  12.168 -0.2331 -0.0077 -0.3178
10147TIP3   OH251931   4.473   6.118   4.721 -0.3115  0.9421  0.0599
10147TIP3    H151932   4.505   6.107   4.811  0.0674 -0.7221 -0.2644
10147TIP3    H251933   4.552   6.116   4.667 -0.4626  2.7358 -0.2711
10148TIP3   OH251934   3.381   5.767  17.128  0.1670 -0.9225  0.0930
10148TIP3    H151935   3.411   5.728  17.045  3.3423  0.9607  0.2713
10148TIP3    H251936   3.297   5.807  17.106  0.0139 -2.1544 -1.7231
10149TIP3   OH251937   4.967   1.442  11.217 -0.4251 -0.0096 -0.2867
10149TIP3    H151938   4.948   1.494  11.139 -0.8366  0.3039  0.0245
10149TIP3    H251939   5.056   1.409  11.202  0.5720  2.2551  0.3100
10150TIP3   OH251940   0.707   1.540  15.049  0.0667 -0.0010 -0.1313
10150TIP3    H151941   0.677   1.467  14.995  0.4212  1.7735 -2.7888
10150TIP3    H251942   0.636   1.555  15.111  0.2059 -2.9115  0.8136
10151TIP3   OH251943   1.656   4.262   6.062  0.6455  0.0750  0.1850
10151TIP3    H151944   1.704   4.280   6.142  0.7392  0.4108  0.0543
10151TIP3    H251945   1.724   4.250   5.995  0.5992 -1.0938  0.3341
10152TIP3   OH251946   1.887   1.143   2.103  0.3088  0.0859 -0.1916
10152TIP3    H151947   1.916   1.230   2.078 -0.2388  0.6219  0.9890
10152TIP3    H251948   1.954   1.112   2.164 -0.9044  0.8298  1.5776
10153TIP3   OH251949   5.435   6.519   4.089 -0.2812  0.0721 -0.1842
10153TIP3    H151950   5.440   6.440   4.142 -0.8208  1.1331  1.4760
10153TIP3    H251951   5.341   6.537   4.080 -0.1360  1.5080  0.9594
10154TIP3   OH251952   4.031   6.439   6.480 -0.2207 -0.3611  0.2371
10154TIP3    H151953   3.950   6.454   6.528 -0.2182 -0.4873  0.2792
10154TIP3    H251954   4.007   6.452   6.388 -0.5152 -1.3642  0.1670
10155TIP3   OH251955   2.454   4.744  16.989 -0.1213 -0.6667  0.1832
10155TIP3    H151956   2.374   4.696  17.011 -0.3330  0.2152  1.4117
10155TIP3    H251957   2.525   4.686  17.015 -0.3700 -1.0236  0.0609
10156TIP3   OH251958   4.516   1.518   6.663  0.1943 -0.4163 -0.8828
10156TIP3    H151959   4.464   1.480   6.734  0.7416 -0.6449 -0.5980
10156TIP3    H251960   4.463   1.508   6.585 -0.7801  0.5775 -0.3708
10157TIP3   OH251961   2.110   2.842  15.289  0.2089 -0.4234  0.4874
10157TIP3    H151962   2.055   2.773  15.250  3.0375 -2.3809 -0.2211
10157TIP3    H251963   2.134   2.807  15.375  1.8317 -0.4039  0.0435
10158TIP3   OH251964   3.497   6.264  15.818  0.0437 -0.2369 -0.2719
10158TIP3    H151965   3.589   6.261  15.844  0.4105  0.5961 -1.4122
10158TIP3    H251966   3.476   6.358  15.817 -0.4658 -0.3526 -1.1833
10159TIP3   OH251967   1.584   4.800   5.166 -0.3608  0.3139 -0.2932
10159TIP3    H151968   1.677   4.816   5.153  0.1641 -1.0739  1.5480
10159TIP3    H251969   1.543   4.887   5.158  1.1853  1.0618 -0.2011
10160TIP3   OH251970   2.084   1.875   5.601 -0.2501  0.3004  0.6042
10160TIP3    H151971   2.130   1.802   5.643  0.4771  0.4350  0.0469
10160TIP3    H251972   2.033   1.834   5.530  1.5319  0.5302 -0.8403
10161TIP3   OH251973   6.230   0.451  14.540 -0.2160 -0.6464 -0.1659
10161TIP3    H151974   6.298   0.495  14.591 -0.4297 -0.9010  0.3364
10161TIP3    H251975   6.205   0.376  14.593 -1.0397 -0.4354 -0.2570
10162TIP3   OH251976   1.910   0.044   4.741 -0.1559  0.1875  0.0978
10162TIP3    H151977   1.814   0.045   4.745 -0.1276 -0.6327  0.9643
10162TIP3    H251978   1.937   0.096   4.817  0.0678  1.8023 -1.0692
10163TIP3   OH251979   6.193   1.102   4.697 -0.4352 -0.3719 -0.3804
10163TIP3    H151980   6.253   1.171   4.726 -1.6626  0.7338 -0.4721
10163TIP3    H251981   6.108   1.145   4.690 -1.2903 -1.9860 -0.0434
10164TIP3   OH251982   2.219   3.961  14.521  0.0591 -0.3800  0.2887
10164TIP3    H151983   2.228   3.907  14.442 -0.4186 -0.5707  0.3655
10164TIP3    H251984   2.145   3.923  14.568 -0.0272  0.1005  0.5431
10165TIP3   OH251985   6.218   5.599   3.997  0.2626 -0.5155  0.4322
10165TIP3    H151986   6.220   5.694   3.990  1.3386 -0.4687  1.1138
10165TIP3    H251987   6.193   5.582   4.088  1.5146 -0.8584  0.7219
10166TIP3   OH251988   4.842   2.808  15.619  0.6350  0.4588 -0.0126
10166TIP3    H151989   4.898   2.885  15.618  0.9727  0.2083 -2.6114
10166TIP3    H251990   4.814   2.796  15.528  0.0906 -2.1015  0.4326
10167TIP3   OH251991   1.373   1.592  11.492 -0.2074 -0.1888  0.1114
10167TIP3    H151992   1.402   1.681  11.474  0.4397 -0.3531  0.3487
10167TIP3    H251993   1.320   1.568  11.416 -0.6192  0.4989  0.1726
10168TIP3   OH251994   1.262   0.061  14.021 -0.5322  0.3344  0.7504
10168TIP3    H151995   1.240   0.007  13.945  0.8588  1.8506 -0.7688
10168TIP3    H251996   1.302  -0.001  14.083 -2.2960 -1.0426  0.5612
10169TIP3   OH251997   2.575   3.746   5.510  0.1341 -0.4301  0.1141
10169TIP3    H151998   2.662   3.778   5.488 -0.0350  0.4815  0.7544
10169TIP3    H251999   2.516   3.815   5.482 -0.1482  0.4191  2.6302
10170TIP3   OH252000   0.764   2.496  10.681  0.1169  0.4523  0.5987
10170TIP3    H152001   0.685   2.521  10.727  0.0383  2.0927 -0.4032
10170TIP3    H252002   0.735   2.472  10.593  0.6234  0.1280  0.5116
10171TIP3   OH252003   3.603   4.625  16.940  0.0748  0.7749  0.9202
10171TIP3    H152004   3.534   4.626  16.874 -1.4763 -0.0265  2.5062
10171TIP3    H252005   3.653   4.705  16.923 -1.6257  1.7083  0.1484
10172TIP3   OH252006   4.809   5.272   3.018 -0.4016  0.0530 -0.3207
10172TIP3    H152007   4.848   5.278   3.105  1.6669  0.2237 -1.2153
10172TIP3    H252008   4.715   5.260   3.034 -0.4069  2.5939  1.8776
10173TIP3   OH252009   6.473   0.323  13.158  0.0345 -0.3160  0.1810
10173TIP3    H152010   6.395   0.357  13.203 -0.6000 -0.4893 -0.7658
10173TIP3    H252011   6.439   0.256  13.099  0.9023 -0.3747 -0.2621
10174TIP3   OH252012   1.910   4.005   5.015 -0.7489  0.3971  0.1347
10174TIP3    H152013   1.996   4.027   5.050 -0.1166 -0.5152 -0.8048
10174TIP3    H252014   1.898   3.913   5.039 -0.5058 -0.1004 -1.5998
10175TIP3   OH252015   3.242   4.770  16.031  0.0370 -0.0930  0.2055
10175TIP3    H152016   3.260   4.715  15.955 -2.1419 -2.0928  1.0784
10175TIP3    H252017   3.246   4.710  16.105  0.6266  1.5417  1.5322
10176TIP3   OH252018   6.412   0.214   1.172  0.5185  0.3142 -0.4713
10176TIP3    H152019   6.351   0.288   1.173 -0.9179 -0.8461  0.6368
10176TIP3    H252020   6.440   0.207   1.081 -1.2533  0.6785 -1.0639
10177TIP3   OH252021   6.142   0.891   0.139  0.2693  0.2555 -0.0084
10177TIP3    H152022   6.047   0.891   0.155  0.0145  0.2507 -1.5042
10177TIP3    H252023   6.169   0.981   0.156  0.0365  0.2078  0.6359
10178TIP3   OH252024   3.572   1.819   3.015 -0.8205  0.1826 -0.3193
10178TIP3    H152025   3.628   1.866   2.953 -1.0101  2.7649  1.3804
10178TIP3    H252026   3.495   1.794   2.964 -1.0079  2.3076 -1.1324
10179TIP3   OH252027   5.156   4.266  15.078 -0.1312 -0.4567  0.2311
10179TIP3    H152028   5.110   4.236  15.000 -1.0405 -0.9117  0.9283
10179TIP3    H252029   5.131   4.358  15.087  0.2624 -0.3067 -0.2180
10180TIP3   OH252030   4.952   1.970   1.461 -0.2508 -0.1111 -0.5290
10180TIP3    H152031   4.959   1.999   1.370  2.5988 -1.1949 -0.7105
10180TIP3    H252032   4.890   1.897   1.458 -1.1568  0.6751 -1.3713
10181TIP3   OH252033   2.875   5.541   3.618 -0.0420  0.1281 -0.3806
10181TIP3    H152034   2.808   5.503   3.675  1.3697 -0.4564  0.9150
10181TIP3    H252035   2.886   5.477   3.548 -1.3699  0.5830 -1.0233
10182TIP3   OH252036   2.613   1.910  12.804  0.3463 -0.1772  0.3486
10182TIP3    H152037   2.535   1.963  12.787  0.4171 -0.4577 -0.9078
10182TIP3    H252038   2.682   1.974  12.823 -0.0872  0.0900  1.0400
10183TIP3   OH252039   5.438   6.708   0.212  0.5235 -0.0874 -0.0642
10183TIP3    H152040   5.358   6.754   0.189  0.1848  0.0663  1.3793
10183TIP3    H252041   5.487   6.703   0.130 -0.3126  1.0906 -0.6506
10184TIP3   OH252042   6.566   2.559   5.667  0.0601  0.8242 -0.6315
10184TIP3    H152043   6.471   2.551   5.681  0.0604 -0.1930 -1.1487
10184TIP3    H252044   6.597   2.608   5.743 -0.7461  0.3289  0.0290
10185TIP3   OH252045   5.078   0.100   1.842  0.6091 -0.5709  0.1153
10185TIP3    H152046   5.164   0.082   1.877  0.2341 -1.4439  0.5947
10185TIP3    H252047   5.028   0.020   1.856 -0.4726  0.1290  0.4251
10186TIP3   OH252048   5.174   0.687   1.767  0.2552  0.6119 -0.3148
10186TIP3    H152049   5.168   0.662   1.859 -0.0379  0.0487 -0.4869
10186TIP3    H252050   5.267   0.674   1.745  0.4634  1.4058  0.0859
10187TIP3   OH252051   5.979   0.961   4.328 -0.1235  0.1411 -0.8905
10187TIP3    H152052   6.035   0.933   4.255  0.5970  1.7452 -0.9676
10187TIP3    H252053   5.901   0.907   4.320  0.9272 -1.3463 -1.4613
10188TIP3   OH252054   0.986   0.967   0.563  0.2742 -0.2109  0.2124
10188TIP3    H152055   0.964   1.036   0.501  0.0152  0.4811  1.0583
10188TIP3    H252056   0.996   0.888   0.510 -1.1245  0.1250 -0.5572
10189TIP3   OH252057   0.951   5.762   5.493  0.0364 -0.2085 -0.0245
10189TIP3    H152058   0.864   5.724   5.484 -0.2227  0.3955 -0.0208
10189TIP3    H252059   0.943   5.828   5.561  0.7166 -0.8048  0.6504
10190TIP3   OH252060   5.983   0.121   4.905 -0.1752 -0.5450  0.6383
10190TIP3    H152061   5.948   0.178   4.974 -0.7341  0.9337 -0.8119
10190TIP3    H252062   5.905   0.083   4.863  0.0393  0.4512 -0.7020
10191TIP3   OH252063   2.904   1.969  11.688  0.1632  0.6185  0.0470
10191TIP3    H152064   2.994   1.995  11.666  0.4982  0.2863  1.0033
10191TIP3    H252065   2.904   1.962  11.783 -0.4687 -0.8856 -0.0590
10192TIP3   OH252066   3.845   5.208  12.258  0.6907 -0.6225 -1.0499
10192TIP3    H152067   3.856   5.303  12.257  0.7162 -0.5658  1.5763
10192TIP3    H252068   3.931   5.173  12.234  1.7010  0.0198  1.4701
10193TIP3   OH252069   3.172   0.798  11.202  0.1278 -0.4846  0.0309
10193TIP3    H152070   3.180   0.717  11.152  0.1501 -0.8529  0.6310
10193TIP3    H252071   3.107   0.850  11.154  0.3819 -0.7030 -0.5524
10194TIP3   OH252072   2.903   4.791  16.032 -0.0828 -0.4982  0.9568
10194TIP3    H152073   2.867   4.725  16.091 -1.9079 -0.1409  0.2960
10194TIP3    H252074   2.995   4.768  16.023 -0.3078 -1.9131  2.1252
10195TIP3   OH252075   4.898   0.004  13.760  0.4545 -0.1219  0.1150
10195TIP3    H152076   4.962   0.051  13.707 -1.3483  3.2988  0.7998
10195TIP3    H252077   4.817   0.008  13.709 -0.5236  0.4052  1.6807
10196TIP3   OH252078   5.452   4.890   2.950 -0.1625 -0.0394 -0.2888
10196TIP3    H152079   5.489   4.917   3.034  1.6732 -2.1016 -0.4038
10196TIP3    H252080   5.419   4.972   2.912  1.5962  1.3930  1.1535
10197TIP3   OH252081   5.097   0.206  16.889  0.5399 -0.3343  0.3827
10197TIP3    H152082   5.129   0.283  16.936  1.1236 -0.9542  1.0219
10197TIP3    H252083   5.145   0.205  16.807 -0.2075  0.5467 -0.0662
10198TIP3   OH252084   5.221   2.245   2.220  0.2504  0.0157 -0.3321
10198TIP3    H152085   5.241   2.183   2.149 -0.4252  0.1165 -0.6122
10198TIP3    H252086   5.141   2.210   2.260 -1.0848  1.5905 -1.5407
10199TIP3   OH252087   5.853   4.897   5.676 -0.4932 -0.3535  0.3475
10199TIP3    H152088   5.831   4.836   5.746 -1.3785  2.6911  2.8704
10199TIP3    H252089   5.827   4.983   5.710 -1.0169  1.2529 -3.7519
10200TIP3   OH252090   2.834   1.344   0.367 -0.3939 -0.7108 -0.6974
10200TIP3    H152091   2.770   1.394   0.317 -1.3414 -1.6975 -0.5041
10200TIP3    H252092   2.915   1.394   0.360 -1.0384  0.2457 -1.4502
10201TIP3   OH252093   2.545   5.943  14.256  0.3338  0.2969 -0.0239
10201TIP3    H152094   2.633   5.911  14.276  0.4892 -0.9740 -2.6091
10201TIP3    H252095   2.555   6.038  14.254  1.0199  0.3254  2.4021
10202TIP3   OH252096   2.220   6.236   4.818  0.0715  0.4837 -0.2201
10202TIP3    H152097   2.274   6.205   4.746 -2.3165  0.4892 -2.0850
10202TIP3    H252098   2.153   6.291   4.776 -2.2388 -0.6523  1.8174
10203TIP3   OH252099   4.097   0.286  16.582  0.6479  0.8807  1.2534
10203TIP3    H152100   4.063   0.217  16.637  2.7069 -2.3618 -1.3215
10203TIP3    H252101   4.043   0.284  16.503  1.3699  1.4947  0.7226
10204TIP3   OH252102   3.304   0.220  14.205  0.3168 -0.0502  0.4521
10204TIP3    H152103   3.302   0.268  14.287  1.1603  0.6456  0.0721
10204TIP3    H252104   3.220   0.239  14.163 -0.9996 -2.0871  2.0880
10205TIP3   OH252105   3.984   0.092   3.882 -0.2446  0.5849  0.4426
10205TIP3    H152106   4.023   0.055   3.961 -0.1357  0.5403  0.3685
10205TIP3    H252107   3.959   0.181   3.907 -0.3958  0.5017  0.5848
10206TIP3   OH252108   0.682   6.312  16.710  0.2507 -1.0213 -0.4661
10206TIP3    H152109   0.681   6.327  16.615  0.7389  0.4776 -0.2443
10206TIP3    H252110   0.689   6.399  16.748 -2.2672 -1.4107  1.0334
10207TIP3   OH252111   0.255   1.720   3.289 -0.0029 -0.1148  0.6007
10207TIP3    H152112   0.323   1.782   3.315 -1.2205  0.6221  2.1605
10207TIP3    H252113   0.222   1.753   3.206  0.4619  0.4186  0.6253
10208TIP3   OH252114   3.718   5.301   1.066  0.3304 -0.6657  0.2122
10208TIP3    H152115   3.733   5.338   1.153  0.6144 -0.9399  0.2795
10208TIP3    H252116   3.755   5.366   1.005 -0.5579 -0.1057  0.2571
10209TIP3   OH252117   5.655   4.962   2.623  0.1179  0.6615  0.3438
10209TIP3    H152118   5.611   5.029   2.676  0.6527  0.7757  0.6518
10209TIP3    H252119   5.620   4.879   2.654 -0.9542  0.8175 -0.4134
10210TIP3   OH252120   4.216   4.823  15.962  0.5200  0.5397 -0.5153
10210TIP3    H152121   4.189   4.853  16.049  0.1674  0.5764 -0.6388
10210TIP3    H252122   4.168   4.741  15.949 -0.6911  1.3637 -1.3491
10211TIP3   OH252123   5.088   5.468   4.107 -0.0513 -0.4046 -0.3359
10211TIP3    H152124   5.182   5.446   4.108  0.5807  2.1673  0.0577
10211TIP3    H252125   5.070   5.502   4.194 -0.9711  0.5471 -0.8811
10212TIP3   OH252126   2.273   2.655   1.358  0.2575 -0.1304  0.4602
10212TIP3    H152127   2.323   2.593   1.412  1.2566  0.7753  0.5958
10212TIP3    H252128   2.198   2.679   1.412 -0.3148 -1.4578  0.2820
10213TIP3   OH252129   3.578   2.087   0.154 -0.2162  0.4511  0.0048
10213TIP3    H152130   3.523   2.023   0.108 -1.6894  1.5788  0.1818
10213TIP3    H252131   3.613   2.143   0.085 -2.9619  2.5613  0.2524
10214TIP3   OH252132   3.772   3.292   6.016  0.1105  0.8748  0.0332
10214TIP3    H152133   3.822   3.221   6.057 -0.1017  0.4834 -0.3732
10214TIP3    H252134   3.788   3.368   6.071  1.2390  0.7786 -0.1398
10215TIP3   OH252135   3.823   0.370   5.657  0.4320  0.6741  0.0317
10215TIP3    H152136   3.832   0.456   5.616 -1.6266  0.6131 -0.5996
10215TIP3    H252137   3.737   0.373   5.699 -0.5499 -1.7896 -1.7496
10216TIP3   OH252138   5.012   6.645  16.923  0.7618 -0.5250  0.3962
10216TIP3    H152139   5.098   6.608  16.941  1.1982  1.0843  1.8552
10216TIP3    H252140   4.960   6.625  17.001 -0.7080 -2.8456 -1.1087
10217TIP3   OH252141   4.538   4.218  13.401 -0.1641  0.1601 -0.9975
10217TIP3    H152142   4.474   4.242  13.334 -0.4489  0.1838 -0.7199
10217TIP3    H252143   4.502   4.139  13.441 -0.4805  0.6820 -0.2280
10218TIP3   OH252144   1.187   3.266   0.327  0.3928 -1.0002 -0.5681
10218TIP3    H152145   1.273   3.309   0.329 -0.0416 -0.0852 -1.3360
10218TIP3    H252146   1.133   3.324   0.274 -0.4222 -2.0952 -0.9355
10219TIP3   OH252147   6.300   3.696  16.456 -0.0737 -0.2467  0.4587
10219TIP3    H152148   6.238   3.720  16.525 -0.9914  0.8038 -0.7199
10219TIP3    H252149   6.281   3.756  16.385  1.4397 -0.7775 -0.4038
10220TIP3   OH252150   4.539   5.264   5.808  0.1673  0.3594 -0.1310
10220TIP3    H152151   4.598   5.294   5.877  0.1979  0.8172 -0.3579
10220TIP3    H252152   4.596   5.217   5.746 -0.1013 -1.4919  0.9837
10221TIP3   OH252153   6.483   0.167   4.860 -0.0050  0.0499  0.1917
10221TIP3    H152154   6.558   0.218   4.892 -1.1884  0.1141  2.9659
10221TIP3    H252155   6.499   0.078   4.891 -0.2698 -0.2922 -0.6388
10222TIP3   OH252156   3.201   3.290   5.107 -0.2401  0.3915 -0.0050
10222TIP3    H152157   3.193   3.211   5.161  0.3099  0.6317  0.4351
10222TIP3    H252158   3.244   3.260   5.027 -0.2745  0.1938  0.0509
10223TIP3   OH252159   4.068   6.399   2.431 -0.2320 -0.4714  0.5902
10223TIP3    H152160   4.060   6.326   2.493  0.9609  0.7917  2.2489
10223TIP3    H252161   4.158   6.429   2.441 -1.0435  1.9690  0.7395
10224TIP3   OH252162   2.725   1.818   2.184 -0.3202  0.5362 -0.1419
10224TIP3    H152163   2.731   1.883   2.254 -0.4552  0.1371  0.2414
10224TIP3    H252164   2.781   1.746   2.212 -1.5932 -0.3072  0.3054
10225TIP3   OH252165   5.624   2.784  12.588  0.1685  0.1577 -0.0505
10225TIP3    H152166   5.533   2.757  12.597  0.2775 -0.2462 -0.1644
10225TIP3    H252167   5.669   2.744  12.663  0.2234  0.4963  0.1022
10226TIP3   OH252168   2.852   1.114   2.393 -0.1139  0.1140 -0.3114
10226TIP3    H152169   2.888   1.042   2.445 -1.2011  0.5165  1.0382
10226TIP3    H252170   2.768   1.080   2.362 -0.0493  0.3496 -0.7444
10227TIP3   OH252171   2.338   5.586   5.746  0.0132  0.4873 -0.1109
10227TIP3    H152172   2.277   5.630   5.687 -2.5554 -0.0437  2.0448
10227TIP3    H252173   2.347   5.498   5.709 -2.2389 -0.1175  0.6691
10228TIP3   OH252174   6.477   6.578   4.651  0.6228  0.6477  0.2990
10228TIP3    H152175   6.445   6.544   4.735  2.6392  0.2907  0.9701
10228TIP3    H252176   6.507   6.667   4.671  1.1302  0.5543 -0.0247
10229TIP3   OH252177   0.359   0.571  13.992  0.0949  0.1987 -0.0956
10229TIP3    H152178   0.353   0.666  13.995 -0.0225  0.2131 -0.7728
10229TIP3    H252179   0.303   0.545  13.919  2.4214 -0.1808 -1.8050
10230TIP3   OH252180   1.660   5.516   2.670 -0.0506 -0.1552  0.6015
10230TIP3    H152181   1.577   5.470   2.678  0.4105 -1.1554 -0.1152
10230TIP3    H252182   1.672   5.560   2.754 -0.4112 -1.5288  1.3904
10231TIP3   OH252183   3.464   0.845  16.331 -0.7402 -0.2813 -0.0016
10231TIP3    H152184   3.447   0.935  16.303 -0.4059 -0.1272  0.2882
10231TIP3    H252185   3.559   0.835  16.323 -0.9702 -1.2626 -2.0178
10232TIP3   OH252186   0.324   5.279  14.379 -0.5178 -0.1697 -0.2501
10232TIP3    H152187   0.343   5.327  14.298  1.5760  1.4174  1.1388
10232TIP3    H252188   0.265   5.337  14.428  2.5099  1.3575  1.7079
10233TIP3   OH252189   3.895   4.427  13.111 -0.9066 -0.3434 -0.1126
10233TIP3    H152190   3.899   4.369  13.035 -1.0171  0.3697 -0.6754
10233TIP3    H252191   3.953   4.387  13.176 -1.1898 -1.2081 -0.3996
10234TIP3   OH252192   5.254   5.565   3.602  0.2071 -0.3994  0.6263
10234TIP3    H152193   5.304   5.612   3.669 -1.5299  3.0401 -0.3781
10234TIP3    H252194   5.303   5.581   3.521 -0.2724 -0.5402  0.3119
10235TIP3   OH252195   6.614   1.236   2.091 -0.5075 -0.4077 -0.0918
10235TIP3    H152196   6.578   1.222   2.179 -0.0956  2.6533  0.6154
10235TIP3    H252197   6.549   1.291   2.047  0.7514  0.7082 -0.6123
10236TIP3   OH252198   3.794   2.004   2.383  1.2989  0.2727 -0.1387
10236TIP3    H152199   3.787   1.941   2.311  1.4105 -0.9171  0.8757
10236TIP3    H252200   3.732   2.073   2.360  1.1844 -0.2011 -1.2841
10237TIP3   OH252201   3.021   3.633   1.267  0.6303 -0.3323  0.6394
10237TIP3    H152202   3.066   3.689   1.203  0.8280  1.2906  2.1469
10237TIP3    H252203   3.075   3.554   1.272  0.9408 -0.2269 -0.7268
10238TIP3   OH252204   0.485   3.193  13.249  0.1131 -0.6129  0.1179
10238TIP3    H152205   0.498   3.103  13.221 -1.1194  0.1577 -3.1920
10238TIP3    H252206   0.402   3.219  13.209  0.1931  1.8196  1.4264
10239TIP3   OH252207   5.276   1.504  14.762 -0.3706  0.0630  0.2356
10239TIP3    H152208   5.212   1.480  14.829 -1.1489  1.5326  0.0271
10239TIP3    H252209   5.343   1.553  14.809  0.0444 -0.5103  0.2528
10240TIP3   OH252210   3.597   1.095  16.672 -0.2876  0.3726 -0.0779
10240TIP3    H152211   3.526   1.041  16.706 -0.7788  2.3151  2.1459
10240TIP3    H252212   3.668   1.084  16.734 -0.4729  2.4062  0.5441
10241TIP3   OH252213   2.889   3.296   5.885 -0.1966 -0.1814  0.5028
10241TIP3    H152214   2.831   3.258   5.950 -0.9516  0.2379  0.0831
10241TIP3    H252215   2.879   3.239   5.808 -0.5368  0.2597  0.2201
10242TIP3   OH252216   0.794   3.710  11.995  0.5098  0.3559 -0.1237
10242TIP3    H152217   0.789   3.722  11.900  1.0073 -0.4248 -0.2508
10242TIP3    H252218   0.824   3.794  12.029 -0.6808  0.9762 -0.5570
10243TIP3   OH252219   6.239   6.229  13.972  0.3768 -0.1695 -0.3048
10243TIP3    H152220   6.324   6.198  14.002 -0.2273 -2.0799 -0.4693
10243TIP3    H252221   6.212   6.164  13.907 -0.5941  1.1638 -1.2629
10244TIP3   OH252222   5.327   1.995   2.961 -0.0612 -0.1668  0.5494
10244TIP3    H152223   5.399   1.990   3.023 -0.6591 -0.9611  1.1886
10244TIP3    H252224   5.368   2.018   2.878  1.2239 -2.9866  0.3596
10245TIP3   OH252225   4.743   0.465   1.367 -0.1478  0.2293 -0.1016
10245TIP3    H152226   4.669   0.405   1.355 -0.8837  1.1806 -0.4950
10245TIP3    H252227   4.804   0.418   1.424 -1.2571 -0.4031  0.5868
10246TIP3   OH252228   5.265   0.060  11.515 -0.3886  0.5375  0.0158
10246TIP3    H152229   5.280  -0.026  11.475 -1.5837  0.5670 -0.4942
10246TIP3    H252230   5.277   0.045  11.608 -1.0613 -0.2838 -0.0269
10247TIP3   OH252231   2.183   4.852   4.372 -0.2696 -0.0654 -0.4343
10247TIP3    H152232   2.184   4.938   4.331 -0.5896 -0.0771 -0.4650
10247TIP3    H252233   2.212   4.792   4.303  0.8619  0.1348 -0.1472
10248TIP3   OH252234   3.600   0.452   3.847 -0.7866 -0.2163  0.3119
10248TIP3    H152235   3.530   0.516   3.861 -1.5353 -1.1479  0.9064
10248TIP3    H252236   3.670   0.501   3.805 -1.7972  0.7292 -0.2688
10249TIP3   OH252237   1.455   2.590  13.936 -0.0191 -0.5113 -0.0226
10249TIP3    H152238   1.493   2.671  13.969 -0.9887  0.4060 -1.1011
10249TIP3    H252239   1.508   2.568  13.859 -1.1798  0.3862 -1.1085
10250TIP3   OH252240   4.808   3.315  11.718 -0.2464  0.0626  0.1677
10250TIP3    H152241   4.718   3.346  11.717 -0.3701 -0.3120 -0.9421
10250TIP3    H252242   4.809   3.246  11.784 -0.3517  1.2582  1.4506
10251TIP3   OH252243   0.447   2.542  11.519  0.4116  0.5182  0.1549
10251TIP3    H152244   0.455   2.603  11.445  0.7529  0.4455  0.1290
10251TIP3    H252245   0.451   2.598  11.596 -0.2058  0.6209  0.1146
10252TIP3   OH252246   6.345   0.079   0.855 -0.2271  0.4949  0.4587
10252TIP3    H152247   6.418   0.028   0.820  0.5491  0.2489  2.3701
10252TIP3    H252248   6.271   0.057   0.798  1.1971  0.8730 -1.6090
10253TIP3   OH252249   4.098   6.766  15.754  0.1517  0.1727 -0.3565
10253TIP3    H152250   4.007   6.764  15.722 -0.7057  1.1734  1.9138
10253TIP3    H252251   4.141   6.694  15.708 -1.8422 -0.4257 -1.3385
10254TIP3   OH252252   0.299   5.074  17.147 -0.7021 -0.4088 -0.5504
10254TIP3    H152253   0.244   5.132  17.199 -2.3865 -2.0542 -0.4443
10254TIP3    H252254   0.257   5.073  17.061  1.3387  1.2936 -1.6102
10255TIP3   OH252255   4.384   4.100  14.649 -0.3529  0.4566 -0.3820
10255TIP3    H152256   4.459   4.084  14.706 -0.2659  1.8397 -0.1049
10255TIP3    H252257   4.363   4.192  14.663 -2.0511  0.0972 -0.5152
10256TIP3   OH252258   2.170   1.410  15.444 -0.2465 -0.9665  0.1578
10256TIP3    H152259   2.174   1.347  15.373 -1.6736 -1.2615  0.3321
10256TIP3    H252260   2.090   1.389  15.491 -0.3175  0.4580  0.7027
10257TIP3   OH252261   5.445   4.659  15.964 -0.1863 -0.2127 -0.1620
10257TIP3    H152262   5.427   4.707  15.884 -0.4068  1.1224  0.6771
10257TIP3    H252263   5.363   4.615  15.985 -0.4412  0.3076 -0.0785
10258TIP3   OH252264   6.420   2.302  12.924 -0.3786  0.3879  0.0238
10258TIP3    H152265   6.371   2.277  12.845 -0.3451  0.1760  0.0696
10258TIP3    H252266   6.502   2.253  12.918  0.2039  1.3962 -0.4933
10259TIP3   OH252267   0.953   6.180  15.826 -0.4363  0.2582 -0.3597
10259TIP3    H152268   0.870   6.225  15.845  0.2760  2.2206 -1.7172
10259TIP3    H252269   0.938   6.137  15.742 -0.0036  0.8225 -0.7278
10260TIP3   OH252270   6.059   2.377  15.959 -0.5565  0.2292 -0.5945
10260TIP3    H152271   5.977   2.392  16.007  1.3615 -2.2980  3.7894
10260TIP3    H252272   6.060   2.283  15.944  1.0269  0.4039 -1.5952
10261TIP3   OH252273   1.159   4.046   5.872 -0.0874 -0.2690  0.2491
10261TIP3    H152274   1.187   4.040   5.964 -0.3538  0.9467  0.4144
10261TIP3    H252275   1.217   4.112   5.834 -0.0561 -0.6854 -0.4401
10262TIP3   OH252276   5.165   5.793   2.903  0.1541 -0.2907 -0.8819
10262TIP3    H152277   5.103   5.790   2.976 -1.3872 -1.3086 -2.2008
10262TIP3    H252278   5.251   5.793   2.945 -0.7200  0.1001  0.9554
10263TIP3   OH252279   5.816   5.539  11.487 -0.2851 -0.0184 -0.2943
10263TIP3    H152280   5.803   5.600  11.560 -1.6154 -0.3646 -0.2391
10263TIP3    H252281   5.831   5.454  11.529 -2.3662 -0.4703 -0.4324
10264TIP3   OH252282   3.301   6.101   2.953  0.8659 -0.1770  0.1437
10264TIP3    H152283   3.360   6.072   2.883  0.3846 -0.2057 -0.2528
10264TIP3    H252284   3.280   6.191   2.931 -0.4302 -0.6351 -0.5371
10265TIP3   OH252285   2.046   6.275  17.198  0.8663  0.0986 -0.4938
10265TIP3    H152286   1.987   6.295  17.270  2.0669 -0.2451  0.6024
10265TIP3    H252287   2.130   6.256  17.240  1.2635 -1.3619 -1.8863
10266TIP3   OH252288   3.592   6.703  10.422  0.2971 -0.3781 -0.0549
10266TIP3    H152289   3.675   6.744  10.445  0.4145 -1.1667  0.9226
10266TIP3    H252290   3.614   6.612  10.403 -0.6062 -1.0377  1.9930
10267TIP3   OH252291   6.529   1.661   3.048  0.2517  0.0357 -0.2619
10267TIP3    H152292   6.608   1.714   3.058 -0.4699  0.6589  2.5291
10267TIP3    H252293   6.458   1.725   3.038 -0.1740 -0.4691 -0.5057
10268TIP3   OH252294   4.256   6.208  13.393  0.2814  0.0154 -0.1284
10268TIP3    H152295   4.168   6.225  13.359  0.4784 -1.4261 -1.4267
10268TIP3    H252296   4.315   6.240  13.325  0.6792 -3.3660 -1.4725
10269TIP3   OH252297   5.867   5.607  16.230  0.0948 -0.2826  0.6360
10269TIP3    H152298   5.784   5.611  16.182 -0.4256  0.1566  1.5614
10269TIP3    H252299   5.931   5.646  16.170 -0.8262  1.6295  0.8510
10270TIP3   OH252300   0.071   2.294  14.780 -0.2111 -0.1064  0.3937
10270TIP3    H152301   0.078   2.342  14.698  0.4424  1.0769  1.1305
10270TIP3    H252302   0.081   2.202  14.755  0.1688  0.2601 -0.8231
10271TIP3   OH252303   0.911   0.658   1.730 -0.2439  0.0152  0.0570
10271TIP3    H152304   0.943   0.747   1.745 -1.5119  0.4671  0.1431
10271TIP3    H252305   0.853   0.666   1.655  0.1233 -0.8538 -0.3185
10272TIP3   OH252306   2.935   5.266  15.605 -0.2348 -0.1110 -0.1691
10272TIP3    H152307   2.995   5.313  15.663 -0.2879  0.6531 -0.7197
10272TIP3    H252308   2.887   5.336  15.560  0.0943 -0.6833 -1.4201
10273TIP3   OH252309   1.833   3.394   1.081 -0.3151 -0.2708  0.6828
10273TIP3    H152310   1.901   3.455   1.110 -0.0960 -0.7339  1.1560
10273TIP3    H252311   1.854   3.312   1.125 -0.1393 -0.9212 -0.5872
10274TIP3   OH252312   1.886   3.011   3.427  0.0746 -0.0157 -0.5145
10274TIP3    H152313   1.909   2.957   3.503  0.0897 -0.9875 -1.2074
10274TIP3    H252314   1.898   3.101   3.458  1.4526 -0.4251  0.2093
10275TIP3   OH252315   0.079   0.483   2.315 -0.9333  0.1555 -1.0651
10275TIP3    H152316   0.132   0.549   2.360 -0.3993 -0.6508 -0.4891
10275TIP3    H252317  -0.001   0.478   2.366 -1.5802  1.3719 -1.9323
10276TIP3   OH252318   4.535   1.767   4.758  0.0592 -0.8496  0.7361
10276TIP3    H152319   4.622   1.804   4.742  0.2337 -2.2370 -1.8606
10276TIP3    H252320   4.541   1.728   4.845  0.9654  1.9929  1.9856
10277TIP3   OH252321   3.744   4.124   4.679  0.2541  0.2841  0.2231
10277TIP3    H152322   3.674   4.111   4.742 -0.1539 -0.5684 -0.4064
10277TIP3    H252323   3.817   4.158   4.731 -0.2086 -0.0327  1.0828
10278TIP3   OH252324   4.019   1.482  16.081 -0.0267  0.1756 -0.0919
10278TIP3    H152325   3.941   1.481  16.026  0.0747  2.1343 -0.3376
10278TIP3    H252326   4.092   1.471  16.019 -0.0597 -0.6265  0.0139
10279TIP3   OH252327   3.786   2.584  16.437 -0.2884 -0.1700 -0.3543
10279TIP3    H152328   3.799   2.491  16.457 -0.1410 -0.6947 -2.8066
10279TIP3    H252329   3.707   2.586  16.383 -0.7714  1.2441  0.3722
10280TIP3   OH252330   1.509   6.350   1.004  0.3695 -0.0491 -0.1687
10280TIP3    H152331   1.597   6.316   0.990  0.8545 -0.3554  3.3140
10280TIP3    H252332   1.521   6.443   1.021 -0.0847  0.1075 -0.6919
10281TIP3   OH252333   4.629   0.856  11.582 -0.5487  0.6547  0.1242
10281TIP3    H152334   4.638   0.881  11.674 -2.3584 -0.5805  0.6691
10281TIP3    H252335   4.543   0.888  11.556 -0.6144 -0.2023 -0.7581
10282TIP3   OH252336   4.307   1.637  16.901  0.3787  0.0760  0.5305
10282TIP3    H152337   4.270   1.699  16.964  0.1566  1.6048 -1.0491
10282TIP3    H252338   4.331   1.561  16.953 -0.8100  0.8668  2.2836
10283TIP3   OH252339   5.793   3.222  13.040 -0.2472 -0.1729 -0.4848
10283TIP3    H152340   5.748   3.297  13.079  0.1063  0.3771 -1.1344
10283TIP3    H252341   5.727   3.153  13.039 -0.6933  0.2409 -0.2455
10284TIP3   OH252342   5.748   3.423   3.370  0.1464  0.2524 -0.0118
10284TIP3    H152343   5.797   3.343   3.391  0.4347  0.2282 -0.7576
10284TIP3    H252344   5.663   3.411   3.413  0.1091 -0.5546 -0.3018
10285TIP3   OH252345   4.932   5.010  16.710 -0.1771 -0.0221 -0.4862
10285TIP3    H152346   4.905   4.994  16.800 -0.5413 -0.0296 -0.5970
10285TIP3    H252347   4.854   4.992  16.658 -0.0429  0.2437 -0.7818
10286TIP3   OH252348   5.687   6.644  14.110 -0.0777  0.4233  0.2802
10286TIP3    H152349   5.682   6.592  14.029  0.6316 -0.4773  0.7972
10286TIP3    H252350   5.601   6.635  14.150 -0.3573  0.6797 -0.2646
10287TIP3   OH252351   4.213   2.939   1.961 -0.1055  0.0083  0.2619
10287TIP3    H152352   4.179   2.852   1.943 -0.9379  0.2841  0.4766
10287TIP3    H252353   4.148   2.998   1.925  1.6195  0.5613 -2.0919
10288TIP3   OH252354   1.491   6.389   0.668  0.0730  0.0500 -0.2503
10288TIP3    H152355   1.564   6.394   0.730  1.8584 -1.5402 -2.1685
10288TIP3    H252356   1.416   6.423   0.717  1.6447 -0.2285  2.4540
10289TIP3   OH252357   1.117   5.438   5.029  0.4121 -0.1016 -0.5211
10289TIP3    H152358   1.073   5.397   4.955 -2.1809  0.5400  0.6309
10289TIP3    H252359   1.107   5.376   5.101  0.8561  0.3187 -0.0909
10290TIP3   OH252360   1.993   2.072  13.771 -0.1599 -0.2228 -0.4963
10290TIP3    H152361   2.068   2.047  13.717  0.9556  0.3186  0.7941
10290TIP3    H252362   1.951   1.988  13.792 -0.4335 -0.4691 -1.9071
10291TIP3   OH252363   3.093   2.132   1.729 -0.0804 -0.3842  0.3289
10291TIP3    H152364   3.155   2.086   1.672 -0.0692 -1.1102  0.9220
10291TIP3    H252365   3.145   2.155   1.806 -0.1635  0.3595  0.1664
10292TIP3   OH252366   4.821   6.785   4.009 -0.1516 -0.2374 -0.0667
10292TIP3    H152367   4.896   6.818   4.059  1.1508  0.2515 -2.2919
10292TIP3    H252368   4.822   6.691   4.024  0.0988 -0.0735  0.9943
10293TIP3   OH252369   3.242   4.360   2.502  0.4080 -0.0105  0.1430
10293TIP3    H152370   3.185   4.283   2.495 -2.1748  1.8259  0.3685
10293TIP3    H252371   3.220   4.398   2.587  3.3068 -0.2626  1.0381
10294TIP3   OH252372   1.286   4.329   1.425 -0.1958  0.6823  0.3594
10294TIP3    H152373   1.366   4.282   1.448 -0.1450  0.8009  0.4271
10294TIP3    H252374   1.237   4.267   1.370  0.3713  0.9503 -0.4691
10295TIP3   OH252375   5.856   5.928  16.130 -0.2328  0.5356 -0.4622
10295TIP3    H152376   5.796   5.959  16.199 -1.5995 -1.7531 -0.5594
10295TIP3    H252377   5.802   5.870  16.077  1.1161  1.3880 -2.8342
10296TIP3   OH252378   6.670   6.228  16.666  1.0442 -0.1423  0.4211
10296TIP3    H152379   6.750   6.182  16.640  2.6284  1.4455  2.2890
10296TIP3    H252380   6.682   6.317  16.635 -0.1226  0.0505  0.5006
10297TIP3   OH252381   2.997   0.250  14.299 -0.1863 -0.1570  0.1327
10297TIP3    H152382   3.025   0.254  14.207 -1.7295  0.4414 -0.3294
10297TIP3    H252383   2.987   0.341  14.325 -2.4979 -0.3489  0.0076
10298TIP3   OH252384   2.999   0.789  15.009 -0.2195  0.1664  0.1158
10298TIP3    H152385   3.055   0.830  14.943  0.1945  0.1098  0.4355
10298TIP3    H252386   2.953   0.862  15.050 -1.2416  0.1271 -0.9322
10299TIP3   OH252387   3.822   2.799  15.777 -0.2624 -0.2793 -0.2745
10299TIP3    H152388   3.851   2.828  15.863 -0.4321 -1.2291  0.1033
10299TIP3    H252389   3.731   2.827  15.771 -0.2820 -0.3117 -0.1085
10300TIP3   OH252390   6.461   2.352  15.771  0.5387  0.2294  0.1220
10300TIP3    H152391   6.446   2.303  15.852 -0.2596 -0.7325 -0.5961
10300TIP3    H252392   6.523   2.421  15.796 -1.3992  1.3542  2.0994
10301TIP3   OH252393   1.665   2.190  15.315 -0.2421  0.2009 -0.0304
10301TIP3    H152394   1.683   2.263  15.374  0.4720 -0.6123  0.7809
10301TIP3    H252395   1.634   2.231  15.234  0.6426  1.4135  0.2318
10302TIP3   OH252396   1.328   5.486   4.793  0.4457 -0.0331 -0.7829
10302TIP3    H152397   1.363   5.527   4.872  0.0410 -0.1449 -0.5449
10302TIP3    H252398   1.249   5.440   4.823 -1.3184  2.2460 -1.7223
10303TIP3   OH252399   3.384   0.555  12.174 -0.2426  0.1091 -0.0342
10303TIP3    H152400   3.414   0.538  12.263 -1.0261  0.9404  0.4015
10303TIP3    H252401   3.441   0.502  12.119  1.3146  0.8082  0.8408
10304TIP3   OH252402   1.389   0.303   1.742 -0.5024  0.3780  0.5179
10304TIP3    H152403   1.448   0.297   1.667  0.9467 -1.9457  1.7920
10304TIP3    H252404   1.307   0.263   1.710 -0.1437  0.1039 -0.0731
10305TIP3   OH252405   3.047   0.942  14.604 -0.7828 -0.1548 -0.1292
10305TIP3    H152406   3.014   0.852  14.599 -1.4134  0.1139 -0.8868
10305TIP3    H252407   2.986   0.993  14.551 -0.2295  0.6641  0.0136
10306TIP3   OH252408   2.850   1.048   3.436  0.1717 -0.0533 -0.1662
10306TIP3    H152409   2.832   1.111   3.366 -0.1451  0.9594  0.8073
10306TIP3    H252410   2.764   1.030   3.474  0.3077 -0.8303 -0.2203
10307TIP3   OH252411   0.690   1.187  14.278 -1.0277  0.1996 -0.1472
10307TIP3    H152412   0.643   1.254  14.327 -1.9532 -1.0750  0.7306
10307TIP3    H252413   0.706   1.227  14.192  0.2403  2.2877  1.0201
10308TIP3   OH252414   6.134   1.671   4.082 -0.3585 -0.0291 -0.2846
10308TIP3    H152415   6.182   1.682   4.000 -0.6765  0.1141 -0.4530
10308TIP3    H252416   6.077   1.596   4.066 -0.1000 -0.2762 -0.0427
10309TIP3   OH252417   2.279   6.528  12.699 -0.2229  0.1588  0.3033
10309TIP3    H152418   2.345   6.486  12.644 -0.1993 -0.0366  0.4823
10309TIP3    H252419   2.202   6.534  12.643 -0.4830 -0.8798  0.5551
10310TIP3   OH252420   1.913   6.117  11.116  0.0655 -0.3655 -0.0642
10310TIP3    H152421   1.891   6.106  11.209 -0.8070 -1.5521 -0.3966
10310TIP3    H252422   1.990   6.174  11.116 -0.3254  0.1810  1.3550
10311TIP3   OH252423   0.180   2.460  11.574  0.2460  0.1594  0.1095
10311TIP3    H152424   0.190   2.366  11.558  0.1398  0.2861 -0.7320
10311TIP3    H252425   0.261   2.498  11.542  0.3190  0.3509  0.5187
10312TIP3   OH252426   0.351   0.577  15.856  0.1764 -0.9167  0.4887
10312TIP3    H152427   0.445   0.590  15.866 -0.1568  0.1102  2.6381
10312TIP3    H252428   0.311   0.634  15.922 -1.9613 -1.3278 -0.3754
10313TIP3   OH252429   6.017   0.434  15.426  0.1874 -0.3522 -0.1619
10313TIP3    H152430   5.957   0.480  15.367  0.8707  0.3791 -0.3003
10313TIP3    H252431   6.017   0.344  15.394  1.4615  0.2947 -2.0363
10314TIP3   OH252432   0.041   5.111  12.527  0.0038 -0.2739  0.1411
10314TIP3    H152433   0.104   5.166  12.479 -0.2786 -1.4291 -1.6221
10314TIP3    H252434   0.054   5.133  12.619  0.6097  1.9838 -0.4606
10315TIP3   OH252435   5.796   1.109  14.175  0.0195  0.5980 -0.4143
10315TIP3    H152436   5.793   1.045  14.104 -3.3722 -0.6492  0.7339
10315TIP3    H252437   5.790   1.056  14.255  0.7736  2.1605  0.7097
10316TIP3   OH252438   3.314   0.474  13.151 -0.7960  0.2500  0.4427
10316TIP3    H152439   3.219   0.462  13.140 -0.8657  0.3147  0.9241
10316TIP3    H252440   3.352   0.450  13.067 -1.1720 -0.5889  0.5040
10317TIP3   OH252441   1.039   6.700   3.875 -0.0348 -0.2839 -0.6572
10317TIP3    H152442   0.970   6.735   3.931  1.0444  0.8930 -0.0542
10317TIP3    H252443   1.034   6.605   3.888 -1.3804 -0.1889 -0.4457
10318TIP3   OH252444   6.208   1.811  13.328 -0.6145 -0.3169  0.2475
10318TIP3    H152445   6.279   1.756  13.292  0.6514  0.9758  0.7411
10318TIP3    H252446   6.158   1.751  13.382 -0.9385 -1.6664 -1.4817
10319TIP3   OH252447   2.991   3.399  14.344  0.1983 -0.0852 -0.1133
10319TIP3    H152448   3.020   3.458  14.414 -0.8858 -1.0735  1.2036
10319TIP3    H252449   2.903   3.429  14.323  1.0796  1.1937 -2.1958
10320TIP3   OH252450   0.235   0.731  11.291  0.0070 -0.3913  0.2960
10320TIP3    H152451   0.287   0.740  11.371  2.1732  0.9231 -1.2067
10320TIP3    H252452   0.178   0.656  11.308  1.7631 -1.3235  2.3275
10321TIP3   OH252453   0.369   5.436  13.367 -0.0676  0.0467  0.2701
10321TIP3    H152454   0.284   5.479  13.358 -0.1472 -0.1865 -0.1178
10321TIP3    H252455   0.422   5.499  13.415 -0.3757  0.3120  0.2702
10322TIP3   OH252456   3.293   3.836   1.446 -0.1180  0.0874  0.1513
10322TIP3    H152457   3.252   3.815   1.530  2.5791  3.2131  2.3764
10322TIP3    H252458   3.370   3.778   1.443  0.1672  0.4584  0.2050
10323TIP3   OH252459   4.035   1.880   2.719  0.1398  0.1328  0.9331
10323TIP3    H152460   4.016   1.957   2.666 -1.9018 -0.4852  0.7323
10323TIP3    H252461   4.117   1.846   2.684  0.1831  1.2579 -0.0679
10324TIP3   OH252462   5.150   4.252  12.469 -0.5928 -0.0919 -0.3326
10324TIP3    H152463   5.195   4.273  12.551  1.3993  0.0860 -1.4571
10324TIP3    H252464   5.148   4.157  12.467 -4.0293 -0.1422  1.7155
10325TIP3   OH252465   6.451   5.937   6.636  0.0328  0.8317 -0.3613
10325TIP3    H152466   6.391   5.901   6.702 -0.6157  0.7854 -0.9612
10325TIP3    H252467   6.495   6.009   6.680 -0.5270  0.9158  0.0723
10326TIP3   OH252468   6.085   5.135   6.325 -0.4183  0.2790  0.2030
10326TIP3    H152469   6.056   5.056   6.370 -0.0617 -0.8178 -1.4725
10326TIP3    H252470   6.150   5.105   6.262 -0.8945  1.8022 -1.0482
10327TIP3   OH252471   4.131   1.906   2.346  0.3245 -0.1334 -0.1675
10327TIP3    H152472   4.217   1.945   2.329  0.6513 -0.0979  1.4589
10327TIP3    H252473   4.145   1.847   2.420 -1.5682  1.9279  1.9266
10328TIP3   OH252474   3.724   4.224  12.908 -0.2550  0.2662 -0.1923
10328TIP3    H152475   3.641   4.265  12.885  0.3306  1.0468 -0.9157
10328TIP3    H252476   3.743   4.165  12.836 -1.0039 -1.1739  0.7592
10329TIP3   OH252477   6.087   3.922  11.337  0.0701  0.0972  0.0497
10329TIP3    H152478   6.137   3.846  11.367  0.6275  0.5705  0.3356
10329TIP3    H252479   6.002   3.913  11.379  0.0123 -0.5568 -0.2035
10330TIP3   OH252480   3.100   0.457   5.705  0.3982 -0.5293 -0.1321
10330TIP3    H152481   3.081   0.548   5.729  2.8797 -0.3756  1.4536
10330TIP3    H252482   3.067   0.448   5.616 -1.3551  1.4433  0.2893
10331TIP3   OH252483   4.268   5.432  12.137 -0.0731 -0.7928  0.2358
10331TIP3    H152484   4.191   5.455  12.188  0.3687 -0.2567  0.6791
10331TIP3    H252485   4.329   5.505  12.152  0.4532 -1.1286 -0.2362
10332TIP3   OH252486   5.101   3.295  15.981 -0.5701  0.2183  0.3944
10332TIP3    H152487   5.061   3.356  15.919 -1.0114  0.5968  1.0445
10332TIP3    H252488   5.147   3.350  16.044 -0.8689 -0.1158  0.9155
10333TIP3   OH252489   3.399   3.455  17.286  0.0187 -0.2905  0.1709
10333TIP3    H152490   3.315   3.444  17.241  0.2529  1.0620 -0.6266
10333TIP3    H252491   3.391   3.539  17.332  0.8311 -0.2903  0.3224
10334TIP3   OH252492   2.176   2.215  10.607  0.1100  0.4368 -1.0004
10334TIP3    H152493   2.139   2.303  10.601 -1.6536 -0.1492  0.8198
10334TIP3    H252494   2.112   2.159  10.562  0.2240 -0.1829 -0.4028
10335TIP3   OH252495   5.942   0.515  12.672 -0.0678 -0.6763  0.2248
10335TIP3    H152496   6.030   0.490  12.644 -0.1422 -2.6452  1.6225
10335TIP3    H252497   5.888   0.502  12.595  0.4778 -1.7228  0.0067
10336TIP3   OH252498   4.483   4.197   0.184  0.5666  0.4407  1.1044
10336TIP3    H152499   4.552   4.243   0.137  1.2757 -0.5916  1.1301
10336TIP3    H252500   4.478   4.241   0.269  1.0000  0.7009  0.9949
10337TIP3   OH252501   2.189   4.595   2.073 -0.1026 -0.6401  0.1445
10337TIP3    H152502   2.203   4.580   2.166  0.1021 -1.6504 -0.0469
10337TIP3    H252503   2.159   4.511   2.039 -1.7337  0.1320 -0.4039
10338TIP3   OH252504   4.267   3.265  15.978  0.3665  0.0305  0.2125
10338TIP3    H152505   4.292   3.242  15.888 -0.7630  1.9631 -0.6121
10338TIP3    H252506   4.182   3.224  15.991  0.9323 -1.0125  0.7453
10339TIP3   OH252507   1.313   4.480  15.489 -0.1379 -0.1780 -0.5779
10339TIP3    H152508   1.234   4.495  15.438 -0.0679  1.4118 -0.2644
10339TIP3    H252509   1.315   4.553  15.552  0.9267 -0.8751  0.2255
10340TIP3   OH252510   3.319   1.690   0.293  0.4299  0.5349  0.3611
10340TIP3    H152511   3.295   1.638   0.370  0.9670  2.6847  2.0322
10340TIP3    H252512   3.238   1.699   0.244 -0.1734  0.0825  1.2512
10341TIP3   OH252513   6.452   0.443  16.975  0.0589 -0.3079 -0.5170
10341TIP3    H152514   6.401   0.428  16.896  0.7727 -0.7764 -0.8841
10341TIP3    H252515   6.541   0.459  16.945  0.3335 -0.4645  0.1870
10342TIP3   OH252516   2.902   0.858  15.865 -0.1435 -0.2941  0.2600
10342TIP3    H152517   2.902   0.762  15.862 -1.0761 -0.2960  0.0993
10342TIP3    H252518   2.819   0.880  15.908  1.2127  0.3813  2.6216
10343TIP3   OH252519   4.006   1.642  14.181  0.3131 -1.4472 -0.0313
10343TIP3    H152520   3.934   1.699  14.153  0.3509 -1.3034  0.1613
10343TIP3    H252521   4.069   1.647  14.109  1.8690  1.4423  1.4135
10344TIP3   OH252522   5.591   3.777  16.429 -0.4577 -0.0804  0.4790
10344TIP3    H152523   5.653   3.841  16.396 -0.4044 -1.0994 -1.4434
10344TIP3    H252524   5.515   3.829  16.455 -0.7780  0.6964 -1.9227
10345TIP3   OH252525   2.907   2.642   0.435 -0.0233  0.2162  0.6119
10345TIP3    H152526   2.967   2.596   0.376  0.4134 -0.7341  1.7837
10345TIP3    H252527   2.820   2.630   0.396 -0.0463 -2.4138  1.3653
10346TIP3   OH252528   1.177   2.851  12.041  0.1092  1.0349  0.3516
10346TIP3    H152529   1.245   2.787  12.022 -1.2560 -0.2520 -0.2873
10346TIP3    H252530   1.143   2.876  11.955 -0.5366  1.3151  0.6828
10347TIP3   OH252531   3.004   0.758   6.570 -0.0869  0.3167 -0.1773
10347TIP3    H152532   2.982   0.722   6.655  0.7638  0.0850 -0.0523
10347TIP3    H252533   3.030   0.683   6.517  3.1676  0.8792  0.5422
10348TIP3   OH252534   2.946   1.166  14.753 -0.1041 -0.0981  0.0494
10348TIP3    H152535   2.936   1.115  14.672 -3.1054 -2.2252  1.6486
10348TIP3    H252536   3.040   1.166  14.770  0.4650 -0.7159 -2.7291
10349TIP3   OH252537   2.779   3.044   0.528 -0.7240  0.0396  0.2759
10349TIP3    H152538   2.715   3.009   0.591 -2.5364  0.4778 -1.3145
10349TIP3    H252539   2.752   3.009   0.444 -0.8368  2.9088 -0.9297
10350TIP3   OH252540   4.629   6.531  14.472  0.3436  0.1126 -0.9637
10350TIP3    H152541   4.599   6.466  14.409 -0.7039 -0.7820  0.4333
10350TIP3    H252542   4.556   6.541  14.533  1.5731  0.5297  0.4553
10351TIP3   OH252543   3.444   4.262  11.219  0.6845 -0.0972  0.4528
10351TIP3    H152544   3.412   4.224  11.301 -0.1886 -1.7074 -0.6152
10351TIP3    H252545   3.539   4.270  11.232  0.5542 -0.2965  1.6270
10352TIP3   OH252546   5.379   0.320  11.092 -0.3341 -0.2874  0.3302
10352TIP3    H152547   5.340   0.254  11.150  0.4184  0.4977  1.7392
10352TIP3    H252548   5.304   0.358  11.046 -1.1825  0.6892  2.4691
10353TIP3   OH252549   4.889   1.284   1.955  0.4244  0.1993  0.5976
10353TIP3    H152550   4.895   1.212   2.017  1.4636  0.4796  0.8244
10353TIP3    H252551   4.851   1.244   1.876  0.5027 -0.4739  0.8975
10354TIP3   OH252552   2.945   0.778  13.454  0.4347  0.6442  1.0308
10354TIP3    H152553   2.944   0.821  13.369 -1.1972 -1.6786 -0.1475
10354TIP3    H252554   3.036   0.748  13.465  0.4391  0.1711 -0.2858
10355TIP3   OH252555   6.010   4.229   3.677  0.2060  0.3687  0.0240
10355TIP3    H152556   6.087   4.174   3.661 -0.0681 -0.1058  0.3326
10355TIP3    H252557   5.944   4.196   3.616 -0.0463  0.1748  0.4005
10356TIP3   OH252558   5.525   5.836  11.645 -0.2759  0.1274  0.7048
10356TIP3    H152559   5.591   5.769  11.657 -0.8393 -0.6436 -0.3594
10356TIP3    H252560   5.443   5.794  11.670 -0.6878  0.2752 -0.3661
10357TIP3   OH252561   5.450   2.476  15.226  0.1532 -0.5003  0.0566
10357TIP3    H152562   5.368   2.526  15.229  0.2539 -0.1892 -1.8643
10357TIP3    H252563   5.509   2.523  15.286 -0.4731  0.3774 -0.0109
10358TIP3   OH252564   1.591   4.363  13.235 -0.2042 -0.4089  0.1608
10358TIP3    H152565   1.619   4.287  13.184 -2.3706 -1.5985  0.6598
10358TIP3    H252566   1.505   4.339  13.268 -0.4738  1.8652  1.2269
10359TIP3   OH252567   6.601   0.411  16.605 -0.3537 -0.6166  0.0394
10359TIP3    H152568   6.588   0.466  16.682 -0.2502  1.0042 -1.0744
10359TIP3    H252569   6.657   0.339  16.635 -0.7425 -0.2840  1.5821
10360TIP3   OH252570   3.725   1.088  16.391  0.1932 -0.0849 -1.0911
10360TIP3    H152571   3.804   1.069  16.441 -0.1422  1.9716  0.2797
10360TIP3    H252572   3.654   1.078  16.454 -0.2953  1.9238 -1.2947
10361TIP3   OH252573   5.870   3.503  16.946  0.4343  0.8083  0.0102
10361TIP3    H152574   5.838   3.592  16.959  0.2404  0.9913 -1.5615
10361TIP3    H252575   5.916   3.506  16.861  1.4308 -0.3124  0.4838
10362TIP3   OH252576   1.603   2.085  15.818 -0.5649 -0.0110 -0.5541
10362TIP3    H152577   1.605   2.154  15.885 -0.7408 -0.2285 -0.3221
10362TIP3    H252578   1.514   2.050  15.822 -0.8114  0.5033 -1.4433
10363TIP3   OH252579   4.551   4.012   1.306 -0.2111  0.5446  0.0821
10363TIP3    H152580   4.524   3.956   1.234  0.2435  0.7330 -0.2376
10363TIP3    H252581   4.615   3.960   1.355  1.9237  1.5809 -1.5035
10364TIP3   OH252582   5.657   6.271  11.600  0.1048  0.4206  0.1196
10364TIP3    H152583   5.734   6.313  11.638 -0.6941  1.7659  0.2791
10364TIP3    H252584   5.584   6.328  11.624 -1.0944 -1.3571  0.8196
10365TIP3   OH252585   1.401   0.233  16.894 -0.4475  0.3000  0.0422
10365TIP3    H152586   1.432   0.148  16.861 -1.7368 -0.7569  1.4299
10365TIP3    H252587   1.307   0.220  16.905 -1.0100  2.6428 -1.8004
10366TIP3   OH252588   4.152   5.277  11.943 -0.4954  1.0675 -0.1600
10366TIP3    H152589   4.196   5.330  12.010 -1.8477  0.6493  1.0811
10366TIP3    H252590   4.096   5.339  11.897 -0.7599  1.0628  0.1486
10367TIP3   OH252591   4.215   4.578  12.935 -0.0645 -0.8726 -0.4447
10367TIP3    H152592   4.133   4.547  12.896 -0.9584  0.0839  0.6288
10367TIP3    H252593   4.262   4.618  12.861 -1.5229  0.4786 -0.6891
10368TIP3   OH252594   1.085   6.304   6.177 -0.3776  0.2856  0.1016
10368TIP3    H152595   1.067   6.354   6.098 -1.6182  2.0567  1.4579
10368TIP3    H252596   1.147   6.359   6.226  0.2212 -0.6967  0.4543
10369TIP3   OH252597   1.148   4.887   5.248  0.3243 -0.5570 -0.1810
10369TIP3    H152598   1.179   4.941   5.321 -0.4976 -0.3218  0.0078
10369TIP3    H252599   1.203   4.913   5.174 -0.8604  1.4867 -0.4031
10370TIP3   OH252600   3.006   1.542  13.758  0.2012 -0.3682 -0.0552
10370TIP3    H152601   2.971   1.560  13.845 -0.1678 -0.6260 -0.1486
10370TIP3    H252602   3.072   1.474  13.772 -0.4519 -1.0139 -0.0868
10371TIP3   OH252603   4.535   1.634   2.018  0.1168 -0.7028 -0.5049
10371TIP3    H152604   4.450   1.661   2.054 -0.1797 -0.7698 -1.1439
10371TIP3    H252605   4.557   1.703   1.955  0.9187 -0.2764  0.2307
10372TIP3   OH252606   1.661   5.535  16.790  0.1554  0.1808  0.2223
10372TIP3    H152607   1.732   5.535  16.854  0.6777  2.0877 -0.3196
10372TIP3    H252608   1.684   5.606  16.729 -2.1331  0.7151 -0.0493
10373TIP3   OH252609   2.599   6.077   2.132  0.3248 -0.0899  0.5563
10373TIP3    H152610   2.652   6.113   2.060  3.2835 -1.4115  1.9803
10373TIP3    H252611   2.624   6.129   2.208 -0.3039 -0.8461  1.2868
10374TIP3   OH252612   6.606   5.592   0.291  0.7680 -0.1471  0.2727
10374TIP3    H152613   6.641   5.520   0.344  0.6961 -1.1473 -0.9884
10374TIP3    H252614   6.551   5.642   0.350  1.4310 -0.6981  1.3648
10375TIP3   OH252615   1.912   0.736   5.002 -0.1388  0.5345 -0.2975
10375TIP3    H152616   1.963   0.814   5.023 -0.5193  0.6510  0.1992
10375TIP3    H252617   1.913   0.684   5.082  0.2906 -0.0701 -0.6973
10376TIP3   OH252618   3.755   2.332  12.770 -0.0560 -0.2942  0.0367
10376TIP3    H152619   3.702   2.299  12.698 -0.2435  0.0081  0.0355
10376TIP3    H252620   3.803   2.255  12.802 -0.1655 -0.4790 -0.2426
10377TIP3   OH252621   1.797   0.373   5.081 -0.5373 -0.3540  0.6784
10377TIP3    H152622   1.838   0.318   5.148 -0.6172 -1.7032 -0.3619
10377TIP3    H252623   1.771   0.453   5.127  1.4665 -0.3093  1.7815
10378TIP3   OH252624   6.203   3.451  11.752  0.8768 -0.0157 -0.0637
10378TIP3    H152625   6.273   3.504  11.715  0.3751  2.1060  1.8816
10378TIP3    H252626   6.226   3.361  11.729  3.8537  0.6894 -0.0813
10379TIP3   OH252627   0.399   6.290  12.825 -0.0318  0.4939 -0.7328
10379TIP3    H152628   0.340   6.242  12.767 -3.4958  2.5901  0.9046
10379TIP3    H252629   0.436   6.223  12.882 -1.2990 -0.8064 -1.3964
10380TIP3   OH252630   5.997   3.447  11.939  0.2571 -0.5054 -0.0266
10380TIP3    H152631   6.043   3.442  11.855 -1.5068  3.6130 -1.3968
10380TIP3    H252632   6.011   3.538  11.968 -0.2050 -1.4971  3.5665
10381TIP3   OH252633   0.790   3.688  13.151 -0.2410 -0.0798  0.0005
10381TIP3    H152634   0.864   3.628  13.158 -0.9704 -1.2954 -2.2997
10381TIP3    H252635   0.821   3.757  13.093 -0.8358 -0.4908 -0.8145
10382TIP3   OH252636   1.221   0.708  16.433 -0.0437 -0.5012  0.6722
10382TIP3    H152637   1.276   0.652  16.488  1.1454  0.9828  1.0301
10382TIP3    H252638   1.189   0.776  16.493 -0.4546 -0.0834 -0.0191
10383TIP3   OH252639   1.947   5.210  15.143 -0.2749  0.1529 -0.6275
10383TIP3    H152640   1.984   5.297  15.157 -1.8815  1.0456 -1.7750
10383TIP3    H252641   1.870   5.208  15.199 -0.6869 -0.2232 -1.2022
10384TIP3   OH252642   2.211   3.071  14.476 -0.4061 -0.7346  0.0126
10384TIP3    H152643   2.230   3.164  14.466 -0.1853 -0.8911 -1.0436
10384TIP3    H252644   2.210   3.057  14.571 -0.5340  0.3580  0.1791
10385TIP3   OH252645   6.180   1.581  14.030 -0.2091  0.0578 -0.0234
10385TIP3    H152646   6.107   1.628  14.070  0.7986  0.6938  1.1072
10385TIP3    H252647   6.258   1.630  14.058  0.5814 -0.0659 -1.9760
10386TIP3   OH252648   3.273   1.112  12.143  0.7479  0.1820 -0.5368
10386TIP3    H152649   3.302   1.171  12.073 -1.9284  2.4528  0.1957
10386TIP3    H252650   3.266   1.167  12.220 -2.0937 -0.9962  0.1144
10387TIP3   OH252651   5.885   5.314  11.650 -0.6735 -0.1939 -0.3312
10387TIP3    H152652   5.934   5.233  11.655 -0.3021 -0.0287 -1.2114
10387TIP3    H252653   5.857   5.331  11.740  0.3702 -0.5979  0.0723
10388TIP3   OH252654   3.788   4.017   4.407  0.4245  0.3150  0.4551
10388TIP3    H152655   3.767   4.060   4.489  0.2205  1.6149 -0.2631
10388TIP3    H252656   3.704   3.986   4.373  0.3705  0.6721  0.2549
10389TIP3   OH252657   5.940   1.614   4.443 -0.4032 -0.4045  0.4449
10389TIP3    H152658   5.966   1.608   4.534  0.9421 -0.3464  0.0656
10389TIP3    H252659   5.959   1.528   4.406 -2.3610 -0.9288  0.5652
10390TIP3   OH252660   2.275   1.272  12.394 -0.3648 -0.3194 -0.2662
10390TIP3    H152661   2.330   1.206  12.352 -1.6000 -0.2183 -2.0921
10390TIP3    H252662   2.243   1.326  12.322 -0.9430  1.0818  1.0121
10391TIP3   OH252663   0.316   6.065   5.606  0.0716  0.2116  0.3762
10391TIP3    H152664   0.308   6.158   5.629 -0.5553  0.0514  0.8189
10391TIP3    H252665   0.384   6.031   5.665 -2.4091 -0.4866  2.8971
10392TIP3   OH252666   2.683   0.039   0.462 -0.3228 -0.0081  0.5621
10392TIP3    H152667   2.742   0.109   0.491  0.6717 -0.2673 -0.7848
10392TIP3    H252668   2.597   0.068   0.490  0.2333  1.1755  1.1131
10393TIP3   OH252669   6.143   3.358   3.691  0.1166  0.0184 -0.3887
10393TIP3    H152670   6.167   3.352   3.783 -0.3990  2.8064 -0.0321
10393TIP3    H252671   6.188   3.284   3.650  1.2982 -0.5764  1.8886
10394TIP3   OH252672   0.217   3.152   0.833  0.2441  0.1612  0.5522
10394TIP3    H152673   0.286   3.155   0.900  2.4802  1.2333 -1.7012
10394TIP3    H252674   0.229   3.067   0.791  0.7934  0.7064 -0.4197
10395TIP3   OH252675   3.974   5.938   5.110 -0.3023 -0.3508 -0.0920
10395TIP3    H152676   4.038   5.950   5.039  0.1385 -0.3002  0.3159
10395TIP3    H252677   4.024   5.897   5.181 -0.4307  0.7978  0.6743
10396TIP3   OH252678   4.259   1.779  11.158 -0.2881  0.4322 -0.2389
10396TIP3    H152679   4.283   1.688  11.141 -2.6958 -0.1702 -0.5037
10396TIP3    H252680   4.311   1.803  11.235  1.4627 -0.6792 -1.0454
10397TIP3   OH252681   4.824   1.205  14.716 -0.0826  0.0859 -0.0236
10397TIP3    H152682   4.790   1.118  14.697  1.5238 -0.3149 -1.2009
10397TIP3    H252683   4.907   1.189  14.762 -0.9744  1.0253  2.0046
10398TIP3   OH252684   1.923   5.017  13.272 -0.0502  0.0618  0.0098
10398TIP3    H152685   1.912   4.936  13.323  1.1603 -1.1028 -1.5107
10398TIP3    H252686   1.901   5.087  13.333  1.3122 -1.2847  2.1368
10399TIP3   OH252687   0.928   3.136   2.063  0.7335 -0.0981  0.2626
10399TIP3    H152688   0.969   3.211   2.021  0.2137 -0.3309 -0.6852
10399TIP3    H252689   0.914   3.163   2.153 -0.2808  1.2867 -0.2804
10400TIP3   OH252690   3.995   2.976   4.371  0.4780  0.1139  0.1360
10400TIP3    H152691   4.077   3.020   4.395  1.4823 -1.5223 -0.2123
10400TIP3    H252692   3.928   3.043   4.384  1.8591  1.4900  0.4383
10401TIP3   OH252693   2.307   6.773  12.798 -0.1177 -0.1252 -0.1805
10401TIP3    H152694   2.223   6.782  12.843 -1.4391 -0.9744 -2.3782
10401TIP3    H252695   2.309   6.682  12.770  0.3315  0.5417 -2.4122
10402TIP3   OH252696   4.687   5.587  15.415 -0.8134  0.8001  0.0937
10402TIP3    H152697   4.729   5.668  15.442 -0.4053  0.4506  0.5180
10402TIP3    H252698   4.738   5.557  15.339 -1.6942  1.5559 -0.8086
10403TIP3   OH252699   0.585   1.063   0.318 -0.1040  0.0690  0.1141
10403TIP3    H152700   0.505   1.115   0.316 -0.0438  0.1716  0.3697
10403TIP3    H252701   0.622   1.079   0.404  0.2946  0.1758 -0.0764
10404TIP3   OH252702   1.553   3.422  13.365  0.2858 -0.3741  0.2070
10404TIP3    H152703   1.508   3.505  13.383 -0.7126 -0.8257 -0.1598
10404TIP3    H252704   1.635   3.448  13.323  0.3731  0.4614  0.8668
10405TIP3   OH252705   5.070   1.220  12.598  0.0815  0.0105 -0.2115
10405TIP3    H152706   5.084   1.128  12.623  1.1138  0.0510 -0.6339
10405TIP3    H252707   4.987   1.219  12.550 -0.1200 -0.6365  0.1466
10406TIP3   OH252708   1.628   4.267  11.967 -0.1250 -0.3552  0.3293
10406TIP3    H152709   1.701   4.323  11.938 -1.4999  0.6288 -1.2829
10406TIP3    H252710   1.566   4.269  11.894 -2.7166  0.4731  2.4742
10407TIP3   OH252711   5.367   4.526  10.569 -0.2348  0.5739 -0.5472
10407TIP3    H152712   5.438   4.477  10.527 -1.5621 -2.6081  0.7337
10407TIP3    H252713   5.411   4.599  10.613  2.0931 -0.5678 -0.8888
10408TIP3   OH252714   3.705   0.314   5.054  0.0657 -0.6035  0.4769
10408TIP3    H152715   3.703   0.375   4.981  0.5954  0.2332  1.1490
10408TIP3    H252716   3.740   0.233   5.017 -0.3591 -0.4104 -0.3486
10409TIP3   OH252717   0.700   2.182  14.856  0.1621 -0.5654 -0.1049
10409TIP3    H152718   0.743   2.266  14.841 -0.2723 -0.1521  0.9111
10409TIP3    H252719   0.609   2.205  14.875 -0.1329 -1.3214 -0.5775
10410TIP3   OH252720   2.630   6.748  13.257 -0.0432  0.0139 -0.1991
10410TIP3    H152721   2.694   6.693  13.212  1.2388 -0.3251  1.9579
10410TIP3    H252722   2.671   6.834  13.260  0.0082 -0.0362  0.5735
10411TIP3   OH252723   2.219   1.185   5.229 -0.2815  0.1277 -0.6840
10411TIP3    H152724   2.299   1.197   5.177 -0.9335  1.2230 -1.4508
10411TIP3    H252725   2.214   1.090   5.245  0.3550 -0.1182 -1.9251
10412TIP3   OH252726   4.377   3.837  11.195 -0.1224 -0.3020  0.0108
10412TIP3    H152727   4.359   3.864  11.105  2.6888 -0.9164 -0.8011
10412TIP3    H252728   4.348   3.746  11.200  0.8578 -0.6701 -0.6927
10413TIP3   OH252729   4.313   6.800  14.642 -0.4603  0.6042  0.0318
10413TIP3    H152730   4.399   6.787  14.602 -0.8293 -1.1336 -0.2843
10413TIP3    H252731   4.251   6.785  14.570 -1.0677  0.1321  0.6438
10414TIP3   OH252732   3.186   2.738   6.137  0.2793 -0.0623  0.0654
10414TIP3    H152733   3.133   2.693   6.203 -0.7197 -0.5080 -1.0392
10414TIP3    H252734   3.265   2.685   6.131 -0.1964 -0.7613 -0.0548
10415TIP3   OH252735   3.462   3.538  14.385  1.0414  0.0241  0.3754
10415TIP3    H152736   3.404   3.565  14.457  1.5722 -0.3804  0.9693
10415TIP3    H252737   3.421   3.458  14.351  1.0872 -0.0985  0.6035
10416TIP3   OH252738   3.089   0.535   6.410 -0.5159 -0.0039 -0.4843
10416TIP3    H152739   3.117   0.444   6.424 -0.2605 -0.4783 -3.8464
10416TIP3    H252740   3.017   0.529   6.348  0.4397  2.2076 -1.8661
10417TIP3   OH252741   2.634   3.419   5.668 -0.4152  0.0267 -0.4432
10417TIP3    H152742   2.668   3.415   5.757 -1.8620 -0.3761  0.1123
10417TIP3    H252743   2.699   3.469   5.619  0.5289 -0.0006  0.7718
10418TIP3   OH252744   1.972   3.635   0.841  0.2293  0.1601  0.1467
10418TIP3    H152745   1.940   3.575   0.773  1.6298 -1.5713  0.9843
10418TIP3    H252746   1.983   3.719   0.795  0.3902 -0.7767 -1.5772
10419TIP3   OH252747   1.906   4.200  13.516 -0.1003 -0.1703  0.0307
10419TIP3    H152748   1.964   4.124  13.510 -0.6536 -0.5734 -0.2958
10419TIP3    H252749   1.924   4.238  13.601  0.7971 -0.1688 -0.1605
10420TIP3   OH252750   4.839   3.090   1.087  0.3201  0.2161 -0.2866
10420TIP3    H152751   4.823   3.038   1.165  1.8999 -0.2576 -0.2605
10420TIP3    H252752   4.927   3.066   1.059  0.0981  0.9925 -1.7423
10421TIP3   OH252753   0.351   2.720   0.278  0.4245  0.0901  0.0412
10421TIP3    H152754   0.271   2.712   0.226  0.7342 -0.3508 -0.3656
10421TIP3    H252755   0.421   2.734   0.214  0.5907  1.0925  0.4315
10422TIP3   OH252756   6.256   0.897   2.644 -0.5129  0.9149  0.7152
10422TIP3    H152757   6.173   0.861   2.613  0.5550 -0.2482 -0.9181
10422TIP3    H252758   6.244   0.992   2.639 -1.5491  0.7601 -0.0860
10423TIP3   OH252759   5.301   0.334   1.663 -0.4439 -0.0699 -0.4882
10423TIP3    H152760   5.267   0.386   1.590 -3.2615 -1.3152 -0.1163
10423TIP3    H252761   5.309   0.246   1.629  1.2386 -0.0734 -0.1591
10424TIP3   OH252762   1.513   6.332  15.017  0.1408 -0.4017 -0.4103
10424TIP3    H152763   1.481   6.270  15.083  1.3570 -1.4730 -0.8099
10424TIP3    H252764   1.563   6.279  14.956  2.6803  1.2124  0.1953
10425TIP3   OH252765   2.097   1.066  13.827 -0.0932  0.2980 -0.0094
10425TIP3    H152766   2.138   1.150  13.806 -0.1277  0.5854  1.0958
10425TIP3    H252767   2.041   1.084  13.901 -0.2796 -0.6580  0.0844
10426TIP3   OH252768   2.433   4.733  11.832 -0.0990 -0.0647 -0.9605
10426TIP3    H152769   2.488   4.770  11.763  0.1847 -1.0811 -1.2902
10426TIP3    H252770   2.368   4.801  11.850  1.5853  1.3627 -0.1807
10427TIP3   OH252771   4.384   4.685   1.185  0.2851 -0.3120  0.2890
10427TIP3    H152772   4.324   4.730   1.125  0.7103  1.4722  1.1893
10427TIP3    H252773   4.329   4.659   1.259  0.5299  1.0002  0.9448
10428TIP3   OH252774   4.368   1.530   0.125  0.1667 -0.4379  0.1786
10428TIP3    H152775   4.344   1.486   0.206  0.7842 -0.9487  0.0888
10428TIP3    H252776   4.440   1.589   0.150  0.2495 -0.4764  0.0360
10429TIP3   OH252777   1.048   0.677  13.276  0.2547  1.1171  0.6865
10429TIP3    H152778   1.013   0.720  13.354 -1.6103  0.3259  0.3182
10429TIP3    H252779   1.098   0.603  13.310 -0.1763  1.0381  1.1662
10430TIP3   OH252780   3.172   2.804  17.169 -0.1332  0.0904  0.0636
10430TIP3    H152781   3.182   2.795  17.075  0.0319 -0.6922  0.1513
10430TIP3    H252782   3.215   2.726  17.205  0.0140  0.5058  0.7909
10431TIP3   OH252783   3.388   0.399   1.485  0.3547 -0.3671 -0.4789
10431TIP3    H152784   3.420   0.417   1.573 -1.4965 -0.1962  0.1788
10431TIP3    H252785   3.467   0.400   1.430  1.4226  0.3244  1.0312
10432TIP3   OH252786   2.141   0.801  13.928  0.2490  0.4715 -0.8824
10432TIP3    H152787   2.216   0.831  13.980 -0.1465 -1.8753  1.1519
10432TIP3    H252788   2.118   0.875  13.873  0.4230  3.3018  2.6624
10433TIP3   OH252789   6.420   0.931  16.040 -0.6570  0.0133 -0.3967
10433TIP3    H152790   6.346   0.892  16.086 -0.2612  1.0307  1.1458
10433TIP3    H252791   6.496   0.884  16.074 -0.5057 -0.4222 -1.3232
10434TIP3   OH252792   5.996   5.843  16.346  0.1944  0.0988 -0.1658
10434TIP3    H152793   5.954   5.874  16.266 -0.7931  1.4139  0.8427
10434TIP3    H252794   5.996   5.747  16.338 -1.6283  0.1469 -0.8582
10435TIP3   OH252795   3.589   6.035  10.715 -0.5821 -0.3014  0.1184
10435TIP3    H152796   3.601   5.973  10.643 -0.8910  1.4455 -1.4802
10435TIP3    H252797   3.658   6.100  10.702 -0.0280 -0.5021  1.9874
10436TIP3   OH252798   5.905   6.378  15.746  0.0389  0.4057  0.1373
10436TIP3    H152799   5.885   6.292  15.708  1.8512 -0.7546  1.7207
10436TIP3    H252800   5.838   6.391  15.813 -0.4612  0.3947 -0.3575
10437TIP3   OH252801   0.797   1.376  11.402 -0.6779  0.6447  0.6083
10437TIP3    H152802   0.820   1.316  11.473  0.7745  1.1829  0.5976
10437TIP3    H252803   0.880   1.401  11.363 -1.4489  0.4636 -1.2192
10438TIP3   OH252804   1.862   1.725   0.231 -0.4192  0.1005 -0.0210
10438TIP3    H152805   1.842   1.760   0.145  1.0149  0.9335 -0.0375
10438TIP3    H252806   1.858   1.630   0.220 -1.1369  0.2121 -0.7734
10439TIP3   OH252807   0.352   2.808  16.849 -0.5991  0.6065 -0.1559
10439TIP3    H152808   0.415   2.828  16.779  0.0565  0.1326  0.2970
10439TIP3    H252809   0.274   2.859  16.826 -0.5016  0.2125 -1.4055
10440TIP3   OH252810   4.411   4.913   0.591  0.1736  0.0462 -0.6558
10440TIP3    H152811   4.413   4.826   0.631  2.0916  0.0332 -0.7481
10440TIP3    H252812   4.337   4.957   0.633 -1.0134 -1.7260 -0.8339
10441TIP3   OH252813   5.438   3.995   5.144 -0.0287 -0.5885 -0.5730
10441TIP3    H152814   5.389   4.053   5.202 -0.4569 -1.0501 -0.4690
10441TIP3    H252815   5.433   4.037   5.058  2.0327  0.9838  0.0243
10442TIP3   OH252816   6.119   5.659   1.833 -0.2583 -0.0466  0.0600
10442TIP3    H152817   6.091   5.579   1.878  1.2986 -0.9351 -0.4916
10442TIP3    H252818   6.214   5.660   1.844 -0.2232  1.4914 -0.3417
10443TIP3   OH252819   1.312   4.535  12.030  0.3168 -0.0263 -0.2181
10443TIP3    H152820   1.368   4.545  12.107 -0.5392  0.5339  0.3383
10443TIP3    H252821   1.373   4.514  11.959  1.2846  0.8968  0.3152
10444TIP3   OH252822   6.595   2.665   0.717 -0.2557 -0.1657 -0.3684
10444TIP3    H152823   6.677   2.623   0.690 -0.1969  0.1404 -0.6677
10444TIP3    H252824   6.606   2.757   0.693  0.0282  0.2378  1.2046
10445TIP3   OH252825   3.211   5.029   3.296  0.0015  0.0636  0.0836
10445TIP3    H152826   3.145   5.004   3.360 -0.7155  1.5086 -0.0721
10445TIP3    H252827   3.262   4.949   3.281 -1.0000 -0.7620  1.0424
10446TIP3   OH252828   2.153   4.065   1.913  0.9335 -0.6643 -0.1128
10446TIP3    H152829   2.070   4.066   1.962  0.3328 -1.1769 -1.1128
10446TIP3    H252830   2.149   3.986   1.860  1.7963 -0.3615 -0.6359
10447TIP3   OH252831   0.871   5.898   0.853 -0.1929 -0.3535  0.3723
10447TIP3    H152832   0.913   5.839   0.916  2.2356 -2.9239 -3.4217
10447TIP3    H252833   0.898   5.985   0.881  0.1166 -1.3269  3.3182
10448TIP3   OH252834   3.877   6.530   5.995 -0.4654  0.1298  0.0407
10448TIP3    H152835   3.925   6.485   6.065  0.5368  0.2399 -0.5685
10448TIP3    H252836   3.887   6.623   6.016 -2.9029  0.0934  1.5443
10449TIP3   OH252837   4.939   2.868   4.672 -0.1504 -0.7675 -0.1285
10449TIP3    H152838   4.937   2.784   4.626  1.7329  0.7920 -3.2105
10449TIP3    H252839   4.856   2.909   4.651  0.6773 -0.0874 -2.1817
10450TIP3   OH252840   2.428   3.598   3.091 -0.6105  0.2074  0.4332
10450TIP3    H152841   2.515   3.622   3.123 -0.3373  1.1372 -0.9699
10450TIP3    H252842   2.439   3.513   3.049 -0.4857  0.0993  0.6841
10451TIP3   OH252843   1.938   3.411  16.300 -0.3434  0.1231 -0.4582
10451TIP3    H152844   2.004   3.346  16.274 -1.0899  0.1212 -2.3914
10451TIP3    H252845   1.940   3.476  16.231 -0.7847  1.3142  0.6322
10452TIP3   OH252846   4.138   6.655   3.312  0.2038  0.0619  0.4943
10452TIP3    H152847   4.190   6.736   3.318  0.4320 -0.1020  0.7457
10452TIP3    H252848   4.142   6.631   3.219  2.4262 -1.1498  0.8635
10453TIP3   OH252849   4.444   1.946   4.059  0.4810  0.2242  0.1491
10453TIP3    H152850   4.434   1.853   4.079 -2.9148  0.1765 -1.3761
10453TIP3    H252851   4.524   1.951   4.006 -0.4556 -2.1425 -1.5401
10454TIP3   OH252852   1.419   1.015  15.645 -0.2513 -0.1052 -0.2635
10454TIP3    H152853   1.360   0.968  15.705 -3.7017 -0.7172 -3.9215
10454TIP3    H252854   1.435   0.952  15.574  0.4364  1.9923 -1.9984
10455TIP3   OH252855   6.245   6.191   4.069 -0.5361  0.1983 -0.1545
10455TIP3    H152856   6.332   6.173   4.104 -0.4085  1.0269 -0.0352
10455TIP3    H252857   6.187   6.130   4.115 -0.0190 -0.3572 -0.2371
10456TIP3   OH252858   3.745   6.437  10.393 -0.3998 -0.0183  0.5308
10456TIP3    H152859   3.694   6.369  10.349  0.1342 -0.6085  0.8225
10456TIP3    H252860   3.781   6.394  10.470  0.9958  0.2399  0.0360
10457TIP3   OH252861   5.678   1.500   0.623 -0.0348 -0.0792 -0.1937
10457TIP3    H152862   5.730   1.559   0.569  2.7022 -1.5776  0.6867
10457TIP3    H252863   5.685   1.536   0.711 -0.3816 -0.3655 -0.0501
10458TIP3   OH252864   2.538   5.944   3.434  0.3341  0.5161  0.2068
10458TIP3    H152865   2.489   5.926   3.514  1.0475  0.8638  0.7322
10458TIP3    H252866   2.627   5.964   3.464  0.4894  1.1349 -0.6373
10459TIP3   OH252867   2.611   3.486   0.419  0.1287  0.1286 -0.6581
10459TIP3    H152868   2.567   3.415   0.373  0.6144  0.3840 -1.5376
10459TIP3    H252869   2.617   3.556   0.354  1.6108  0.1861 -0.4830
10460TIP3   OH252870   2.453   3.126   3.521 -0.3662  0.2359 -0.5060
10460TIP3    H152871   2.533   3.171   3.551  0.5379  1.0510 -3.8974
10460TIP3    H252872   2.390   3.140   3.592  2.2752  0.1469  1.9635
10461TIP3   OH252873   1.355   0.200   4.966  0.4633 -0.4843 -0.0824
10461TIP3    H152874   1.373   0.250   4.886 -2.2769 -2.2729 -1.8808
10461TIP3    H252875   1.441   0.189   5.007  2.4896 -2.4780 -4.5707
10462TIP3   OH252876   4.002   5.655   1.148  0.6587  0.4732  0.3352
10462TIP3    H152877   4.088   5.637   1.186 -0.4544 -0.4426  2.4984
10462TIP3    H252878   4.013   5.638   1.055  2.2510 -1.7572  0.8948
10463TIP3   OH252879   4.421   2.549  12.896 -0.0409  0.3380  0.2533
10463TIP3    H152880   4.446   2.548  12.988 -1.4577 -3.3794  0.6819
10463TIP3    H252881   4.331   2.582  12.896  0.1308  0.8077  0.1436
10464TIP3   OH252882   1.759   2.702   0.583 -0.4645  0.1199 -0.0128
10464TIP3    H152883   1.695   2.650   0.533  0.9743 -1.4071 -0.3231
10464TIP3    H252884   1.717   2.787   0.594 -2.5568 -0.8396 -0.2127
10465TIP3   OH252885   1.135   4.421   4.413 -0.5128  0.2800 -0.3478
10465TIP3    H152886   1.145   4.434   4.507  0.0997 -0.4604 -0.3102
10465TIP3    H252887   1.222   4.438   4.376 -0.6099 -0.0103 -0.7166
10466TIP3   OH252888   3.113   4.349  16.481 -0.1568  0.0235  0.1382
10466TIP3    H152889   3.096   4.443  16.471 -0.3405 -0.0757 -0.4785
10466TIP3    H252890   3.089   4.330  16.572 -0.6914  0.4482  0.0847
10467TIP3   OH252891   6.249   1.711   5.159 -0.3298 -0.0036  0.2223
10467TIP3    H152892   6.201   1.733   5.238 -1.0021 -0.4790 -0.0463
10467TIP3    H252893   6.228   1.618   5.143  0.0589 -0.0034 -0.3198
10468TIP3   OH252894   2.758   5.385   4.510 -0.1908 -0.2097  0.6221
10468TIP3    H152895   2.676   5.401   4.463  0.3213  1.9991  0.4037
10468TIP3    H252896   2.760   5.453   4.578  1.9093  0.3931 -0.0164
10469TIP3   OH252897   4.992   1.228   5.330 -0.2954 -0.4202  0.0160
10469TIP3    H152898   5.027   1.139   5.328 -2.1989 -1.2241  0.6564
10469TIP3    H252899   4.959   1.239   5.419 -1.5585  0.3100 -0.5233
10470TIP3   OH252900   5.909   1.155  16.369 -0.0362 -0.2040 -0.6142
10470TIP3    H152901   5.850   1.187  16.300  0.8182  1.1959 -0.7087
10470TIP3    H252902   5.852   1.139  16.444 -0.5756  1.0405 -0.7387
10471TIP3   OH252903   6.811   3.240   6.074 -0.0643 -0.0312 -0.0805
10471TIP3    H152904   6.721   3.272   6.071  0.3682  1.6351  2.4228
10471TIP3    H252905   6.815   3.189   6.155  1.1539 -0.2946 -0.3046
10472TIP3   OH252906   3.951   5.261   1.864  0.1699  0.0676 -0.4347
10472TIP3    H152907   3.935   5.339   1.811 -1.5366 -0.5243 -0.8010
10472TIP3    H252908   3.979   5.296   1.949  0.7581  1.0447 -1.0108
10473TIP3   OH252909   4.693   5.239   1.241 -0.1998 -0.3966  0.3764
10473TIP3    H152910   4.676   5.147   1.258  0.6776 -0.6973 -0.3192
10473TIP3    H252911   4.703   5.244   1.145 -0.8077  0.5105  0.3550
10474TIP3   OH252912   0.798   2.643   3.116 -0.5020 -0.6938 -0.2596
10474TIP3    H152913   0.753   2.606   3.192  1.3785 -0.6362  0.9002
10474TIP3    H252914   0.786   2.578   3.047 -0.5733 -1.6482  0.6388
10475TIP3   OH252915   1.911   6.515  16.495 -0.0838  0.1942  0.4251
10475TIP3    H152916   1.887   6.457  16.423 -1.6469  2.7076 -1.1737
10475TIP3    H252917   2.006   6.507  16.502 -0.1465 -1.6049 -0.5728
10476TIP3   OH252918   2.807   5.558  13.965 -0.3534  0.1278  0.4011
10476TIP3    H152919   2.782   5.523  13.880  0.0579  1.2140 -0.1829
10476TIP3    H252920   2.840   5.483  14.014  0.0097 -0.3864 -0.6259
10477TIP3   OH252921   6.115   3.148   0.588  0.0062 -0.3215 -0.7406
10477TIP3    H152922   6.128   3.209   0.516 -0.2239 -1.8495 -2.0876
10477TIP3    H252923   6.156   3.067   0.559  0.2455 -0.8404  1.0043
10478TIP3   OH252924   4.373   4.104  11.686  0.0523  0.4425 -0.2425
10478TIP3    H152925   4.460   4.138  11.669  0.1596  0.4330  0.2712
10478TIP3    H252926   4.314   4.174  11.657  0.1747 -0.1955 -2.0675
10479TIP3   OH252927   1.697   0.717  14.124  0.3204 -0.2359 -0.2164
10479TIP3    H152928   1.772   0.671  14.087  1.0446  0.6374  0.1471
10479TIP3    H252929   1.719   0.731  14.216 -1.2612 -1.9411  0.4471
10480TIP3   OH252930   4.746   4.271  15.715 -0.0613  0.2618  0.2911
10480TIP3    H152931   4.788   4.300  15.797 -1.7098  0.6650  1.0089
10480TIP3    H252932   4.737   4.352  15.664  0.0930  0.1677  0.1158
10481TIP3   OH252933   0.798   5.809  16.423 -0.1423 -0.6303  0.7517
10481TIP3    H152934   0.786   5.715  16.432  2.4848 -1.1857 -0.8550
10481TIP3    H252935   0.806   5.842  16.512 -0.2293 -2.0431  1.2868
10482TIP3   OH252936   4.790   2.413   2.701  0.2047 -0.4893  0.2435
10482TIP3    H152937   4.876   2.372   2.685 -0.1682 -1.4599  0.7112
10482TIP3    H252938   4.765   2.383   2.788 -0.2273  0.4928  0.4686
10483TIP3   OH252939   4.768   0.028   1.408 -0.0045  0.2442 -0.2484
10483TIP3    H152940   4.710   0.079   1.465 -0.3377 -0.4064 -0.0095
10483TIP3    H252941   4.841   0.002   1.465 -0.5448 -0.7606 -0.0148
10484TIP3   OH252942   6.160   6.579  15.821  0.0295  0.0959 -0.2305
10484TIP3    H152943   6.198   6.662  15.794 -1.7776  1.5052  1.4518
10484TIP3    H252944   6.111   6.549  15.744  0.5557  0.6413 -0.7850
10485TIP3   OH252945   0.150   4.381   4.192  0.4023  0.2145 -0.1993
10485TIP3    H152946   0.076   4.440   4.182 -1.2862 -1.3081  2.7343
10485TIP3    H252947   0.221   4.437   4.223  0.1974  1.5068 -2.0322
10486TIP3   OH252948   4.843   2.693   3.588  0.5063 -0.3573  0.1845
10486TIP3    H152949   4.894   2.663   3.663 -0.0164 -3.1181 -0.4900
10486TIP3    H252950   4.752   2.686   3.617  0.3045 -1.3721 -0.6284
10487TIP3   OH252951   1.308   2.289   4.978 -0.4083 -0.2650  0.4395
10487TIP3    H152952   1.299   2.229   5.052 -1.3870 -1.8227 -0.9066
10487TIP3    H252953   1.362   2.241   4.915 -1.4654  0.1072 -0.7820
10488TIP3   OH252954   6.727   6.617   2.830 -0.2142 -0.1134  0.5501
10488TIP3    H152955   6.751   6.524   2.826  0.2366  0.0314 -0.3213
10488TIP3    H252956   6.803   6.659   2.868 -0.3963 -0.0926  0.8908
10489TIP3   OH252957   5.693   6.039  16.322 -0.3610  0.5694  0.2327
10489TIP3    H152958   5.617   6.025  16.266  1.1477  1.0875 -2.0187
10489TIP3    H252959   5.663   6.102  16.388 -2.5218 -0.9845  0.7809
10490TIP3   OH252960   5.225   3.483  12.652  0.5663  0.7174 -0.1220
10490TIP3    H152961   5.158   3.448  12.710  0.2508 -0.6079 -1.2533
10490TIP3    H252962   5.179   3.501  12.570  1.4924  0.1512 -0.7839
10491TIP3   OH252963   3.067   6.310   5.383 -0.1115  0.2959 -0.2616
10491TIP3    H152964   2.999   6.289   5.320  0.7488  0.1063 -1.1518
10491TIP3    H252965   3.112   6.227   5.398 -0.3412  0.3315  0.6443
10492TIP3   OH252966   6.378   4.838   5.564  0.1005  0.4262 -0.7639
10492TIP3    H152967   6.385   4.742   5.561  1.0995  0.5153 -2.1680
10492TIP3    H252968   6.319   4.860   5.492 -1.3709  0.7778  0.5379
10493TIP3   OH252969   5.350   2.504   3.822  0.0204  0.2073  0.4007
10493TIP3    H152970   5.408   2.476   3.751 -0.8685 -1.3693  0.2946
10493TIP3    H252971   5.404   2.498   3.901  0.0246 -1.1898  0.2932
10494TIP3   OH252972   2.193   1.940   4.013  0.1408 -0.4023  0.0183
10494TIP3    H152973   2.134   1.933   3.937 -1.3816  0.8428  1.0620
10494TIP3    H252974   2.270   1.890   3.987 -0.8622 -1.0420 -1.8726
10495TIP3   OH252975   2.875   1.089  15.415  0.5685 -0.0447 -1.1037
10495TIP3    H152976   2.938   1.150  15.378 -1.0168  2.8462  0.8356
10495TIP3    H252977   2.923   1.041  15.483  0.8816  1.6634 -0.1076
10496TIP3   OH252978   4.348   0.399  16.480  0.3442  0.7007  0.1032
10496TIP3    H152979   4.384   0.311  16.481  1.0379  0.9780 -0.1694
10496TIP3    H252980   4.257   0.388  16.508 -0.0774 -0.3385 -1.6129
10497TIP3   OH252981   3.517   1.816   6.260  0.1844  0.5350 -0.1466
10497TIP3    H152982   3.516   1.784   6.170 -0.0438 -0.7873  0.3069
10497TIP3    H252983   3.428   1.800   6.292  0.8950 -1.2235  1.0476
10498TIP3   OH252984   3.742   4.684   0.770 -0.7683  0.3863 -0.3402
10498TIP3    H152985   3.692   4.634   0.835 -0.5178 -0.6706 -0.9395
10498TIP3    H252986   3.762   4.620   0.701 -1.3746  1.5928 -1.6495
10499TIP3   OH252987   2.228   6.320  14.829 -0.1514 -0.7235 -0.0254
10499TIP3    H152988   2.294   6.256  14.805 -0.3564 -0.0727 -2.4583
10499TIP3    H252989   2.175   6.332  14.749 -0.9437  1.4400  0.7719
10500TIP3   OH252990   3.426   3.450   3.429  0.3858 -0.1220 -0.5205
10500TIP3    H152991   3.432   3.480   3.338  0.6100  2.2903  0.2316
10500TIP3    H252992   3.515   3.421   3.451 -0.0141 -2.1147 -1.5147
10501TIP3   OH252993   1.805   1.943  14.321 -0.1284  0.2561 -0.4794
10501TIP3    H152994   1.889   1.906  14.295  0.0830 -1.0166  1.9118
10501TIP3    H252995   1.740   1.892  14.273  0.3734 -0.0923 -0.7876
10502TIP3   OH252996   6.685   5.410  12.821  0.2763  0.0157  0.0695
10502TIP3    H152997   6.692   5.478  12.887  1.0190 -1.5104  1.5944
10502TIP3    H252998   6.591   5.394  12.813  0.2160 -0.1587  1.1337
10503TIP3   OH252999   4.828   1.889   4.159  0.4507  0.4038  0.0047
10503TIP3    H153000   4.783   1.833   4.094 -0.4886  0.4916  0.5742
10503TIP3    H253001   4.811   1.846   4.243  0.2869  1.2008  0.3741
10504TIP3   OH253002   0.697   6.094  14.000 -0.3093  0.4250  0.1737
10504TIP3    H153003   0.763   6.046  14.049 -0.3411 -0.1152 -0.3079
10504TIP3    H253004   0.741   6.174  13.972 -0.3587  0.8367  1.2617
10505TIP3   OH253005   3.286   3.377   2.393 -0.3836 -0.1543  0.1041
10505TIP3    H153006   3.223   3.317   2.432 -0.1340 -0.2843  0.3080
10505TIP3    H253007   3.259   3.384   2.301 -0.4036 -0.5935  0.0742
10506TIP3   OH253008   0.791   4.003  16.583  0.6906 -0.3183 -0.2290
10506TIP3    H153009   0.855   4.041  16.522  2.5998 -1.5179  0.9534
10506TIP3    H253010   0.707   4.014  16.539  1.8196  0.3818 -2.3241
10507TIP3   OH253011   5.388   4.169   3.629  0.0835 -0.5684 -0.3707
10507TIP3    H153012   5.337   4.114   3.569  1.0332  0.3089 -2.0412
10507TIP3    H253013   5.478   4.165   3.594  0.2819  1.5268 -0.1863
10508TIP3   OH253014   1.716   1.850   2.261 -0.2572 -0.5438 -0.6841
10508TIP3    H153015   1.765   1.896   2.329 -0.7418  0.7033 -1.1576
10508TIP3    H253016   1.752   1.761   2.260 -0.2457 -0.5776  1.2018
10509TIP3   OH253017   3.701   1.607   5.295  0.8073 -0.4659 -0.0675
10509TIP3    H153018   3.774   1.627   5.236  0.0265  1.7679 -0.3345
10509TIP3    H253019   3.711   1.670   5.367 -0.3877 -0.6732  0.2889
10510TIP3   OH253020   5.934   3.645   2.867  0.3454 -0.5218 -0.1144
10510TIP3    H153021   5.869   3.619   2.933  0.6566  0.2557  0.4989
10510TIP3    H253022   5.883   3.689   2.799 -0.0288 -1.6600 -0.5876
10511TIP3   OH253023   3.089   6.669   1.938  0.0529 -0.1652  0.0771
10511TIP3    H153024   3.001   6.676   1.901 -0.2158  1.2282  0.9521
10511TIP3    H253025   3.084   6.713   2.023  1.1205 -1.7345  0.9963
10512TIP3   OH253026   4.668   4.522   6.663 -0.2952 -0.1791 -0.8100
10512TIP3    H153027   4.758   4.521   6.631 -0.5804 -1.1854 -1.5981
10512TIP3    H253028   4.615   4.527   6.584 -0.9157  2.4358 -0.2954
10513TIP3   OH253029   4.597   5.831   3.476 -0.4223 -0.1769  1.0894
10513TIP3    H153030   4.561   5.919   3.468  1.0688  0.3768  0.1752
10513TIP3    H253031   4.569   5.785   3.396 -1.8757 -0.7928  1.9449
10514TIP3   OH253032   5.944   5.672  15.657 -0.1251  0.4326 -0.3230
10514TIP3    H153033   5.919   5.716  15.576 -0.4726  0.8831  0.0244
10514TIP3    H253034   5.964   5.582  15.631 -1.5541  0.2188 -0.6979
10515TIP3   OH253035   0.853   6.446   3.827  0.1400 -0.1380  0.0921
10515TIP3    H153036   0.908   6.454   3.749  1.0548 -1.1505  0.6170
10515TIP3    H253037   0.793   6.520   3.822 -0.4346 -0.7126 -2.0626
10516TIP3   OH253038   5.328   1.831   2.476  0.0086  0.1994 -0.6812
10516TIP3    H153039   5.349   1.804   2.387  0.2205 -0.0596 -0.5557
10516TIP3    H253040   5.233   1.842   2.476  0.0643  0.6891 -1.0682
10517TIP3   OH253041   3.938   0.317  11.742 -0.1470  0.5327  0.2732
10517TIP3    H153042   3.864   0.318  11.681 -0.6211 -0.4309  0.8178
10517TIP3    H253043   3.989   0.394  11.719 -1.4758  1.3706  0.0628
10518TIP3   OH253044   0.745   0.501   3.648  0.2986 -0.0735  0.2228
10518TIP3    H153045   0.679   0.532   3.710  0.2135  0.5031 -0.1620
10518TIP3    H253046   0.700   0.497   3.564  1.1286  1.6461 -0.3162
10519TIP3   OH253047   3.058   6.803   0.239 -0.3571  0.2440 -0.2228
10519TIP3    H153048   3.029   6.715   0.218 -0.5503  0.4553 -0.8582
10519TIP3    H253049   2.978   6.850   0.264  0.0640 -0.4054  2.4788
10520TIP3   OH253050   5.763   6.123   1.923 -0.4460  0.3558  0.5835
10520TIP3    H153051   5.829   6.147   1.988  0.3464  0.0206 -0.0927
10520TIP3    H253052   5.731   6.206   1.888  2.1777  0.4888 -1.6425
10521TIP3   OH253053   2.535   6.334  13.177  0.1744  0.4582 -0.0362
10521TIP3    H153054   2.548   6.375  13.092  1.9397 -0.1539 -0.0853
10521TIP3    H253055   2.612   6.359  13.228 -0.2671 -0.1912  0.9798
10522TIP3   OH253056   6.758   0.860  13.538 -0.6080  0.9436  0.0700
10522TIP3    H153057   6.813   0.805  13.593  0.0029  2.8358  1.3968
10522TIP3    H253058   6.820   0.909  13.483 -1.2118 -1.2199 -2.6707
10523TIP3   OH253059   0.257   2.868   4.900  0.0999  0.7420  0.0142
10523TIP3    H153060   0.226   2.842   4.987 -0.1812 -0.8005 -0.5139
10523TIP3    H253061   0.285   2.785   4.860 -0.8360  1.2632 -1.7630
10524TIP3   OH253062   1.164   4.782  14.714 -0.5967 -0.4434  0.5957
10524TIP3    H153063   1.100   4.853  14.712  0.2180  0.4308  3.6232
10524TIP3    H253064   1.180   4.762  14.622 -2.2086  2.0266 -0.2727
10525TIP3   OH253065   1.237   6.030  12.026  0.2252 -0.6349 -0.2436
10525TIP3    H153066   1.314   6.011  11.972  0.8525 -0.3611  0.5455
10525TIP3    H253067   1.261   6.108  12.075  0.1909 -1.6584  1.4515
10526TIP3   OH253068   1.675   0.998  14.991 -0.3707 -0.1234 -0.1372
10526TIP3    H153069   1.769   0.985  14.978 -0.7778 -0.5701 -2.8738
10526TIP3    H253070   1.665   1.092  15.001  0.3396 -0.0490 -0.0808
10527TIP3   OH253071   6.647   1.956  14.509  0.6091  0.3517  0.4615
10527TIP3    H153072   6.557   1.943  14.538  0.3522  1.6640  0.2604
10527TIP3    H253073   6.687   2.010  14.577  0.4577  2.0762 -0.7813
10528TIP3   OH253074   0.988   0.477  10.510  0.0539 -0.2678  0.0076
10528TIP3    H153075   1.057   0.417  10.482 -0.7749 -1.4533  0.4542
10528TIP3    H253076   0.966   0.448  10.599 -1.3836 -0.2423 -0.3254
10529TIP3   OH253077   1.674   5.286  16.710 -0.1617  0.1072 -0.1947
10529TIP3    H153078   1.658   5.381  16.709 -0.1140  0.1366  1.3906
10529TIP3    H253079   1.598   5.249  16.665 -1.7892  0.6743  1.9869
10530TIP3   OH253080   5.397   3.923  10.333 -0.5138 -0.2209  0.4019
10530TIP3    H153081   5.426   3.844  10.288 -0.4542 -1.1400  1.9873
10530TIP3    H253082   5.306   3.934  10.305  0.1084  0.3621 -1.4436
10531TIP3   OH253083   1.343   0.662  14.948 -0.4258  0.4186 -0.1492
10531TIP3    H153084   1.399   0.585  14.942 -0.7556  0.0762  0.9359
10531TIP3    H253085   1.266   0.640  14.896 -0.7408 -0.1948  0.5677
10532TIP3   OH253086   3.980   6.173   3.908 -0.3663  0.5237 -0.1068
10532TIP3    H153087   3.899   6.125   3.926  0.6348 -0.9424  0.6340
10532TIP3    H253088   4.044   6.134   3.967  1.6158 -0.3960 -2.7961
10533TIP3   OH253089   0.696   3.018  14.445 -0.3778  0.4913  0.3002
10533TIP3    H153090   0.716   3.030  14.538  1.9404  0.8432 -0.2132
10533TIP3    H253091   0.723   3.100  14.404 -0.7144  0.0671 -0.7883
10534TIP3   OH253092   0.578   1.633  16.066  0.3261 -0.5431  0.4035
10534TIP3    H153093   0.566   1.717  16.020  0.3682 -1.1866 -0.8200
10534TIP3    H253094   0.622   1.577  16.001  2.1117 -0.8975  1.8707
10535TIP3   OH253095   3.070   3.230  11.799  0.1798 -0.1169 -0.1107
10535TIP3    H153096   3.155   3.221  11.842  0.1067 -0.2086  0.0141
10535TIP3    H253097   3.029   3.306  11.841  0.4661  0.3170 -0.6128
10536TIP3   OH253098   4.308   1.907  14.204  0.1472  0.2827  0.4504
10536TIP3    H153099   4.372   1.967  14.166 -0.3187 -0.3832 -1.5063
10536TIP3    H253100   4.359   1.852  14.264  0.9474  1.3251  0.7329
10537TIP3   OH253101   4.520   3.003  14.046  0.3175 -0.0777 -0.4417
10537TIP3    H153102   4.564   3.047  13.973  0.8843 -0.2149 -0.1891
10537TIP3    H253103   4.591   2.959  14.093 -0.0415  0.0141  0.1903
10538TIP3   OH253104   1.187   4.885   4.673  0.5605 -0.1868  0.2149
10538TIP3    H153105   1.262   4.835   4.643  0.1873 -0.3458 -0.4592
10538TIP3    H253106   1.127   4.820   4.708 -0.0096 -0.2458 -0.8407
10539TIP3   OH253107   4.854   4.710   1.033  0.0512  0.6269 -0.4455
10539TIP3    H153108   4.772   4.664   1.014 -0.1420  1.1759 -0.9480
10539TIP3    H253109   4.884   4.742   0.947  0.7015  0.5790 -0.2415
10540TIP3   OH253110   0.250   0.908  14.069  0.3013 -0.4007 -0.1839
10540TIP3    H153111   0.236   0.906  14.164 -0.7457  0.3911 -0.3129
10540TIP3    H253112   0.167   0.879  14.031  0.6401 -0.4951 -0.8581
10541TIP3   OH253113   1.751   4.913   3.741  0.0083 -0.2371 -0.9664
10541TIP3    H153114   1.746   4.901   3.836 -0.7470  1.2661 -0.8049
10541TIP3    H253115   1.845   4.907   3.721  0.1575 -0.6954 -0.1560
10542TIP3   OH253116   6.379   5.559  14.808  0.4070  0.3357 -0.2905
10542TIP3    H153117   6.353   5.490  14.869  0.4217  0.2609 -0.3695
10542TIP3    H253118   6.459   5.596  14.846  0.4148  0.2909 -0.2636
10543TIP3   OH253119   1.402   4.408   5.252  0.0771 -0.1789  0.2273
10543TIP3    H153120   1.357   4.452   5.324 -0.4641 -1.2857  0.5757
10543TIP3    H253121   1.332   4.368   5.201  0.6163 -1.4220  0.4437
10544TIP3   OH253122   4.912   5.995  14.543  0.2561 -0.2073  0.3628
10544TIP3    H153123   4.942   6.073  14.495 -1.4226  0.5732  0.5501
10544TIP3    H253124   4.857   6.030  14.614 -0.3003 -1.5468  0.6013
10545TIP3   OH253125   5.392   3.315   3.127 -0.0951  0.5195  0.1469
10545TIP3    H153126   5.305   3.292   3.159  0.5717 -0.7561  1.1208
10545TIP3    H253127   5.411   3.399   3.168  0.4450 -0.7444  2.6031
10546TIP3   OH253128   1.168   1.601  17.079  0.5748 -0.4913 -0.3034
10546TIP3    H153129   1.100   1.536  17.064  0.1217 -0.4297  1.3856
10546TIP3    H253130   1.224   1.596  17.001 -1.7575 -0.0055 -2.0542
10547TIP3   OH253131   4.822   2.478  15.107  0.0368  0.3943  0.4535
10547TIP3    H153132   4.883   2.547  15.081 -0.4185  0.8392  0.5468
10547TIP3    H253133   4.804   2.496  15.200  0.6731 -0.4308  0.7386
10548TIP3   OH253134   0.212   6.229   1.572  0.2047  0.1962 -0.3421
10548TIP3    H153135   0.118   6.248   1.564  0.4991  1.8365 -0.0346
10548TIP3    H253136   0.228   6.227   1.666  0.5711  0.3054 -0.4049
10549TIP3   OH253137   2.104   6.480  16.748  0.2602  0.2690 -0.4760
10549TIP3    H153138   2.134   6.433  16.826  0.9044  0.0475 -0.8623
10549TIP3    H253139   2.074   6.412  16.688 -0.7641  0.4725 -0.2042
10550TIP3   OH253140   5.240   3.704   4.525 -0.5243 -0.1354 -0.1945
10550TIP3    H153141   5.292   3.748   4.592 -1.0658  0.5704 -0.2325
10550TIP3    H253142   5.269   3.613   4.528  0.8392  0.2798 -0.3296
10551TIP3   OH253143   5.313   2.575   1.451  0.4793  0.3497 -0.0242
10551TIP3    H153144   5.246   2.508   1.465  0.0472  0.5379 -1.1755
10551TIP3    H253145   5.392   2.525   1.430  0.4152  0.1642  0.1703
10552TIP3   OH253146   0.421   4.807   1.495  0.4958  0.2973  0.2499
10552TIP3    H153147   0.438   4.877   1.558  0.3554  0.7440 -0.2062
10552TIP3    H253148   0.326   4.811   1.481  0.3894 -0.4244  0.7350
10553TIP3   OH253149   5.653   2.768   6.266  0.3001 -0.5239  0.3464
10553TIP3    H153150   5.694   2.713   6.334  0.0375 -1.2057 -0.0417
10553TIP3    H253151   5.560   2.750   6.275  0.3442 -1.4988 -0.9458
10554TIP3   OH253152   0.776   2.830  12.564  0.5757 -0.0994 -0.0342
10554TIP3    H153153   0.807   2.750  12.606  1.8151  0.8581  0.9016
10554TIP3    H253154   0.794   2.817  12.471 -1.7626 -2.0491 -0.2704
10555TIP3   OH253155   2.341   4.483   0.897  0.5200 -0.6632  0.0884
10555TIP3    H153156   2.325   4.428   0.974 -0.2149 -0.1131  0.3448
10555TIP3    H253157   2.415   4.538   0.922 -0.5435  0.4389  0.9413
10556TIP3   OH253158   4.070   2.639   2.391 -0.9891 -0.1700 -0.5067
10556TIP3    H153159   4.159   2.645   2.425 -1.4120  1.5329  0.4103
10556TIP3    H253160   4.037   2.555   2.422 -0.0691 -0.3192  0.0645
10557TIP3   OH253161   0.700   4.503   2.301  0.0559 -0.0166  0.1372
10557TIP3    H153162   0.766   4.572   2.287  1.2052 -1.1520 -0.1644
10557TIP3    H253163   0.617   4.550   2.306  0.8702  1.4381  0.3738
10558TIP3   OH253164   1.001   4.173  11.545 -0.0432  0.4692 -0.4327
10558TIP3    H153165   1.027   4.135  11.461  0.1097  0.1595 -0.2473
10558TIP3    H253166   0.977   4.263  11.524 -1.4221 -0.0152 -1.0716
10559TIP3   OH253167   2.602   3.623  16.461  0.0440 -0.0297  0.1699
10559TIP3    H153168   2.534   3.665  16.408  0.0041 -1.0578 -0.6212
10559TIP3    H253169   2.683   3.640  16.414  0.0527 -0.6339 -0.0467
10560TIP3   OH253170   4.078   6.387   5.448 -0.4939 -0.1084  0.4507
10560TIP3    H153171   3.995   6.424   5.477 -0.5379  2.3248 -2.5395
10560TIP3    H253172   4.053   6.315   5.390 -0.5553  1.2627 -1.2448
10561TIP3   OH253173   1.742   5.299  16.409  0.5724  0.0714  0.4668
10561TIP3    H153174   1.723   5.380  16.456  1.0447  1.4051 -1.5851
10561TIP3    H253175   1.830   5.274  16.439 -0.4139 -0.8795  2.6995
10562TIP3   OH253176   0.557   3.157   2.607 -0.0573 -0.0741 -0.4174
10562TIP3    H153177   0.513   3.131   2.526 -0.3953  2.2175 -1.0151
10562TIP3    H253178   0.495   3.132   2.677 -0.3934 -0.7599 -0.9552
10563TIP3   OH253179   3.337   3.452  16.435  0.7226  0.1704 -0.6053
10563TIP3    H153180   3.393   3.517  16.393  1.2162 -0.1916 -0.5137
10563TIP3    H253181   3.255   3.454  16.385  1.7450 -1.1488 -2.3879
10564TIP3   OH253182   3.862   5.148   0.832 -0.2988  0.0570 -0.2540
10564TIP3    H153183   3.814   5.166   0.913  0.6304 -1.9497  0.7620
10564TIP3    H253184   3.804   5.091   0.782 -0.6607  0.8911 -0.7911
10565TIP3   OH253185   5.140   1.778   5.445 -0.4394  0.1986  0.3226
10565TIP3    H153186   5.056   1.753   5.407 -0.9578  1.0927  0.8539
10565TIP3    H253187   5.161   1.706   5.506 -0.6303 -0.2085 -0.0895
10566TIP3   OH253188   5.644   5.179  15.081 -0.0025 -0.1382  0.7857
10566TIP3    H153189   5.599   5.116  15.138 -0.0434  0.4007  1.3593
10566TIP3    H253190   5.734   5.147  15.076 -0.9732 -2.6336 -2.4015
10567TIP3   OH253191   6.266   0.764   1.305  0.2729  0.0434 -0.4579
10567TIP3    H153192   6.250   0.728   1.219 -0.1535  0.0037 -0.3615
10567TIP3    H253193   6.240   0.856   1.298  0.3324  0.0647 -0.3998
10568TIP3   OH253194   6.584   5.262   3.772  0.0731 -0.4984  0.1921
10568TIP3    H153195   6.569   5.349   3.809 -1.3287 -1.2623  1.4644
10568TIP3    H253196   6.570   5.273   3.678 -0.7310  0.5102  0.4261
10569TIP3   OH253197   2.926   0.104  12.683  0.5294 -0.5227  0.3248
10569TIP3    H153198   2.936   0.158  12.605  0.6387 -0.5381  0.3287
10569TIP3    H253199   2.852   0.047  12.663 -1.2427  1.3502  1.2903
10570TIP3   OH253200   6.619   2.125  13.017 -0.1051 -0.0827 -0.2208
10570TIP3    H153201   6.624   2.147  13.111  2.5779 -1.2756 -0.0318
10570TIP3    H253202   6.592   2.033  13.016 -1.9749  0.4403 -0.7248
10571TIP3   OH253203   3.810   1.813  17.164 -0.0941  0.6695 -0.1819
10571TIP3    H153204   3.891   1.767  17.140 -0.3904  0.7939 -1.4538
10571TIP3    H253205   3.831   1.906  17.151 -0.2288  0.7460  0.1430
10572TIP3   OH253206   0.543   0.915  13.649  0.4788 -0.6569  0.4748
10572TIP3    H153207   0.578   0.827  13.636 -0.7891 -1.2354  0.9305
10572TIP3    H253208   0.605   0.957  13.710  1.6866 -0.8401 -0.6081
10573TIP3   OH253209   5.826   5.450   0.807 -0.8648  0.4570  0.2050
10573TIP3    H153210   5.790   5.528   0.765  1.0677  0.6854 -1.1111
10573TIP3    H253211   5.921   5.460   0.799 -0.5609 -1.5143  0.9621
10574TIP3   OH253212   3.760   5.419   6.031  0.0963  0.1916  0.3405
10574TIP3    H153213   3.758   5.433   6.126 -0.1397  0.5845  0.2757
10574TIP3    H253214   3.684   5.363   6.014 -0.3898  0.8719  0.2586
10575TIP3   OH253215   3.564   0.856  15.672 -0.2241  0.2307 -0.4748
10575TIP3    H153216   3.627   0.786  15.655 -0.0959  0.0985  0.4989
10575TIP3    H253217   3.540   0.844  15.764  0.8117  2.2784  0.0935
10576TIP3   OH253218   0.021   4.771  14.928 -0.3581 -0.0855  0.1674
10576TIP3    H153219   0.021   4.845  14.868  0.5066  0.1278  0.4233
10576TIP3    H253220  -0.065   4.730  14.916 -0.5327  0.4862 -0.5492
10577TIP3   OH253221   5.356   2.282   4.751 -0.4147 -0.1900 -0.2864
10577TIP3    H153222   5.372   2.197   4.794  0.3473  0.8141  1.4853
10577TIP3    H253223   5.316   2.336   4.819  2.0938  1.8825 -0.3690
10578TIP3   OH253224   4.088   2.860  12.582 -0.5590 -0.5235 -0.2845
10578TIP3    H153225   4.154   2.839  12.647 -1.3431 -1.6463  0.1715
10578TIP3    H253226   4.126   2.930  12.530  0.1336  0.3056  1.3095
10579TIP3   OH253227   0.858   5.716  14.816  0.1688  0.0271 -0.2955
10579TIP3    H153228   0.769   5.681  14.813 -0.5946  1.8955  0.3521
10579TIP3    H253229   0.868   5.766  14.735  1.6950 -2.6194 -1.8271
10580TIP3   OH253230   2.873   6.634   0.057  0.3633 -0.5604  0.5455
10580TIP3    H153231   2.792   6.656   0.104 -0.5406 -1.1213 -0.7300
10580TIP3    H253232   2.852   6.650  -0.035  1.2368 -2.0731  0.0707
10581TIP3   OH253233   1.043   3.890   5.672 -0.1553 -0.0060  0.5956
10581TIP3    H153234   1.042   3.965   5.613 -1.0633 -1.1751 -0.9112
10581TIP3    H253235   1.082   3.924   5.753 -1.2315  2.2804  0.2059
10582TIP3   OH253236   4.275   2.799  12.787  0.2937 -0.1300  0.0879
10582TIP3    H153237   4.323   2.852  12.851  0.7595  1.4894 -1.5813
10582TIP3    H253238   4.233   2.730  12.839  0.0518  1.6037  2.2142
10583TIP3   OH253239   4.827   1.266   4.261  0.0507 -0.0092  0.5331
10583TIP3    H153240   4.839   1.206   4.188 -0.2801  0.4943  0.0686
10583TIP3    H253241   4.733   1.265   4.278 -0.0179  0.7878  0.1846
10584TIP3   OH253242   1.205   4.849  13.926  0.0064 -0.2020  0.1039
10584TIP3    H153243   1.277   4.790  13.948 -0.3230 -0.2682  1.0197
10584TIP3    H253244   1.243   4.937  13.931  0.1891 -0.2703 -0.0697
10585TIP3   OH253245   3.201   3.514   0.802 -0.2294 -0.0658  0.7736
10585TIP3    H153246   3.120   3.561   0.820  0.1261  0.3988  1.1767
10585TIP3    H253247   3.270   3.578   0.817  0.1173  0.3004 -2.0545
10586TIP3   OH253248   6.690   1.447   0.570  0.8334  0.0912 -0.1463
10586TIP3    H153249   6.665   1.453   0.662  1.1787  1.7226 -0.1598
10586TIP3    H253250   6.763   1.508   0.560  0.7950 -0.0665 -1.5049
10587TIP3   OH253251   0.437   3.826  11.786 -0.4166 -0.2339 -0.1787
10587TIP3    H153252   0.438   3.818  11.881 -0.2452  0.3374 -0.1317
10587TIP3    H253253   0.490   3.753  11.755 -0.2348 -0.2511  0.1756
10588TIP3   OH253254   1.944   4.381  12.213 -0.4347 -0.8283  0.1239
10588TIP3    H153255   2.015   4.338  12.261 -0.5862 -0.5073  0.6390
10588TIP3    H253256   1.923   4.321  12.142  0.8751 -0.5700 -0.4850
10589TIP3   OH253257   0.690   0.114   5.259  0.2323  0.1259 -0.0436
10589TIP3    H153258   0.781   0.140   5.247  0.2324 -0.3605 -1.2255
10589TIP3    H253259   0.691   0.054   5.333  0.7642  0.6609  0.3855
10590TIP3   OH253260   2.633   1.829   3.643  0.2451  0.5388  0.0665
10590TIP3    H153261   2.673   1.787   3.719  1.9585  0.4309 -0.8605
10590TIP3    H253262   2.605   1.756   3.588  2.0798  0.5519 -0.9519
10591TIP3   OH253263   2.514   5.288   2.635  0.8201 -0.0222  0.5602
10591TIP3    H153264   2.447   5.334   2.685  1.4615  1.5505  0.0094
10591TIP3    H253265   2.510   5.197   2.667 -1.2252  0.1475  0.8657
10592TIP3   OH253266   4.615   0.265   1.799 -0.0379 -0.0309 -0.3970
10592TIP3    H153267   4.563   0.297   1.871  0.6588 -0.4873  0.3200
10592TIP3    H253268   4.701   0.305   1.811  0.6912 -1.7226  0.2215
10593TIP3   OH253269   5.647   5.239   2.875 -0.2325 -0.7651 -0.1096
10593TIP3    H153270   5.571   5.197   2.914  0.8080 -0.6949  2.0680
10593TIP3    H253271   5.627   5.333   2.878 -0.8747 -0.8525 -1.3415
10594TIP3   OH253272   5.007   0.953  17.044  0.1677  0.3425  0.3656
10594TIP3    H153273   4.942   0.974  16.977  1.0742 -0.0253 -0.6526
10594TIP3    H253274   4.983   0.866  17.074  2.2042 -1.3517 -2.5694
10595TIP3   OH253275   3.219   1.681   4.035 -0.7115  0.4653 -0.1328
10595TIP3    H153276   3.295   1.686   4.094 -0.5367 -1.1300 -0.2124
10595TIP3    H253277   3.234   1.749   3.970 -0.0542  1.1026  0.6805
10596TIP3   OH253278   2.561   0.903   5.076 -0.1832 -0.5718  0.5632
10596TIP3    H153279   2.630   0.944   5.128  0.3447  0.6971 -1.1106
10596TIP3    H253280   2.539   0.967   5.009 -0.2236 -2.5300 -1.3482
10597TIP3   OH253281   1.072   0.566  12.648 -0.0582  0.3537 -0.6946
10597TIP3    H153282   1.053   0.481  12.687 -0.9334 -1.1199 -4.0912
10597TIP3    H253283   1.168   0.571  12.647  0.0111 -0.8038 -0.8052
10598TIP3   OH253284   1.012   6.230  17.116 -0.1689 -0.5281  0.4028
10598TIP3    H153285   1.046   6.146  17.084  1.2868  0.0824  0.2839
10598TIP3    H253286   1.091   6.281  17.136 -0.9693  1.7201 -1.8779
10599TIP3   OH253287   4.009   6.278  13.265  0.5790  0.2800 -0.0625
10599TIP3    H153288   3.931   6.308  13.312 -0.3279 -1.9791 -0.0644
10599TIP3    H253289   4.008   6.328  13.183  0.0081  1.3954  0.6076
10600TIP3   OH253290   3.112   3.593  13.486 -0.3052 -0.3467  0.1597
10600TIP3    H153291   3.116   3.569  13.393  1.9980  1.3147 -0.2215
10600TIP3    H253292   3.135   3.686  13.487 -0.4042 -0.3349  2.3977
10601TIP3   OH253293   0.752   3.957   5.163 -0.5168 -0.1904 -0.7688
10601TIP3    H153294   0.678   4.016   5.177  0.3959  1.3019 -1.9559
10601TIP3    H253295   0.718   3.888   5.106 -1.6011 -0.8382  0.6414
10602TIP3   OH253296   0.393   2.632  16.092  0.0047  0.4605  0.4354
10602TIP3    H153297   0.310   2.620  16.137 -0.2521  1.2961  0.2050
10602TIP3    H253298   0.432   2.545  16.089 -1.7414 -0.3056 -1.1330
10603TIP3   OH253299   4.218   1.092   1.722 -0.0658 -0.1702 -0.6489
10603TIP3    H153300   4.204   1.004   1.757 -1.6358 -0.0812 -0.9974
10603TIP3    H253301   4.206   1.082   1.627 -0.6689  0.4892 -0.6472
10604TIP3   OH253302   1.871   0.897   3.889  0.0660  0.4305 -0.4063
10604TIP3    H153303   1.797   0.944   3.853 -0.5406  0.0308  0.3007
10604TIP3    H253304   1.887   0.826   3.827 -0.9970 -0.2780  0.1166
10605TIP3   OH253305   6.730   1.757   3.239 -0.2286  0.0893  0.0882
10605TIP3    H153306   6.789   1.765   3.313  0.6717  0.0180 -0.6128
10605TIP3    H253307   6.774   1.805   3.168 -1.3170  0.5998 -0.2570
10606TIP3   OH253308   6.122   4.259   2.139 -0.3858  0.1138  0.0733
10606TIP3    H153309   6.190   4.211   2.187 -0.3420 -2.5057 -2.4391
10606TIP3    H253310   6.170   4.318   2.081 -0.2136 -1.2671 -1.2287
10607TIP3   OH253311   1.159   5.765   3.093 -0.6481  0.7078  0.2128
10607TIP3    H153312   1.244   5.722   3.088  0.0324  2.2353 -1.6545
10607TIP3    H253313   1.097   5.701   3.057 -0.3334 -0.4435  1.6833
10608TIP3   OH253314   2.504   1.715  14.231  0.0151 -0.1506 -0.0522
10608TIP3    H153315   2.520   1.803  14.266  0.9865  0.2037 -1.3149
10608TIP3    H253316   2.413   1.696  14.252 -0.5477  1.6439 -0.7907
10609TIP3   OH253317   0.097   4.101   4.116  0.0460 -0.7576 -0.0710
10609TIP3    H153318   0.146   4.042   4.173  0.2260 -0.7287 -0.1931
10609TIP3    H253319   0.124   4.189   4.142 -1.0273 -0.6861  0.8294
10610TIP3   OH253320   6.010   0.270   1.950 -0.8706  0.9534  0.0947
10610TIP3    H153321   5.931   0.220   1.929  0.0460  0.1450 -1.5489
10610TIP3    H253322   6.070   0.205   1.986  0.9007  0.4359 -3.4908
10611TIP3   OH253323   6.438   6.450   4.075  0.3767  0.0985 -0.4751
10611TIP3    H153324   6.505   6.507   4.113  0.4106 -0.0253 -0.3517
10611TIP3    H253325   6.465   6.441   3.983 -0.1602  1.0762 -0.7396
10612TIP3   OH253326   2.939   4.298  17.020 -0.2041  0.5809  0.0264
10612TIP3    H153327   2.946   4.204  17.032 -2.5677  0.2857 -0.7223
10612TIP3    H253328   2.905   4.331  17.103  1.6651  0.9517  0.6802
10613TIP3   OH253329   1.638   0.090   5.930 -0.0871  0.1592 -0.1016
10613TIP3    H153330   1.693   0.012   5.925  0.4628  0.5656 -0.4412
10613TIP3    H253331   1.569   0.075   5.865 -0.1789 -0.1960  0.0784
10614TIP3   OH253332   3.802   4.486  13.432  0.4047  0.4247  0.6063
10614TIP3    H153333   3.851   4.429  13.491 -2.1594  1.0318  3.4492
10614TIP3    H253334   3.753   4.426  13.376  0.4527 -0.1782  1.2053
10615TIP3   OH253335   6.775   5.565  14.439 -0.0644  0.3151 -0.3628
10615TIP3    H153336   6.820   5.503  14.383  0.0687  1.2006 -1.2514
10615TIP3    H253337   6.693   5.584  14.393  0.1226  1.1825 -0.3409
10616TIP3   OH253338   0.683   5.915   4.509  0.0173  0.2682 -0.1222
10616TIP3    H153339   0.755   5.857   4.532  0.9816  1.2455 -0.6660
10616TIP3    H253340   0.716   5.969   4.438 -1.0283  1.1763  0.0598
10617TIP3   OH253341   4.362   1.844  12.390  0.4555 -0.5379 -0.4757
10617TIP3    H153342   4.391   1.852  12.299 -0.6105  0.6198 -0.7169
10617TIP3    H253343   4.279   1.797  12.385  1.4054 -2.3293  0.0833
10618TIP3   OH253344   1.624   1.147   5.471  0.2083 -0.1726 -1.4232
10618TIP3    H153345   1.676   1.092   5.530  1.1839  0.4800 -1.6623
10618TIP3    H253346   1.599   1.088   5.400 -1.2516 -1.0506 -0.2109
10619TIP3   OH253347   4.263   0.017   5.622 -0.0035  0.7363  0.2355
10619TIP3    H153348   4.235  -0.064   5.665 -1.8123  0.6427 -1.0617
10619TIP3    H253349   4.204   0.083   5.656 -0.1099  1.0437 -0.5325
10620TIP3   OH253350   6.519   5.789   1.676 -0.0714  0.6825 -0.2137
10620TIP3    H153351   6.485   5.783   1.765 -1.6585  1.7740 -0.7296
10620TIP3    H253352   6.485   5.711   1.632 -1.1896  1.3151 -0.4827
10621TIP3   OH253353   2.951   1.006   6.246 -0.3056  0.0105 -0.1358
10621TIP3    H153354   2.939   0.915   6.218  0.8829  0.4248 -2.0478
10621TIP3    H253355   2.895   1.057   6.187 -0.1158  0.6294  0.2159
10622TIP3   OH253356   1.458   2.005   4.578 -0.0897 -0.0956 -0.0448
10622TIP3    H153357   1.473   2.094   4.611 -0.9040 -0.3152  0.9424
10622TIP3    H253358   1.543   1.961   4.587 -0.3824 -0.2866  2.2318
10623TIP3   OH253359   5.170   0.095   0.435  0.1169  0.5637 -0.0724
10623TIP3    H153360   5.220   0.171   0.462 -0.9146  1.8857 -1.8023
10623TIP3    H253361   5.190   0.084   0.342 -0.3266 -0.8200 -0.0213
10624TIP3   OH253362   5.546   2.408  14.339  0.5529 -0.7610  0.1171
10624TIP3    H153363   5.504   2.485  14.379  2.7806  0.3492  0.4252
10624TIP3    H253364   5.583   2.360  14.413  0.1729 -1.5190 -0.1793
10625TIP3   OH253365   6.196   2.120  13.871 -0.0892  0.2780  0.4818
10625TIP3    H153366   6.214   2.194  13.928 -0.1131  0.4555  0.2607
10625TIP3    H253367   6.252   2.050  13.903 -0.6437  0.1500  1.1900
10626TIP3   OH253368   3.826   3.155   1.214 -0.2672 -0.0818 -0.0266
10626TIP3    H153369   3.856   3.071   1.179 -2.0760 -0.7798  0.0739
10626TIP3    H253370   3.902   3.190   1.261  0.8224 -1.1516 -0.9793
10627TIP3   OH253371   3.013   3.311  15.448  0.2756  0.2796  0.0932
10627TIP3    H153372   3.036   3.351  15.532  1.8450 -0.1029 -0.1328
10627TIP3    H253373   3.026   3.217  15.462  0.1486  0.1808 -0.4508
10628TIP3   OH253374   4.008   0.230  15.755  0.6228 -0.2129  0.3636
10628TIP3    H153375   3.973   0.231  15.845  0.6844  1.7016  0.3809
10628TIP3    H253376   4.038   0.140  15.743  0.1980 -0.6200  2.1053
10629TIP3   OH253377   2.759   0.438  16.491 -0.2911  0.0438 -0.1308
10629TIP3    H153378   2.755   0.374  16.562  3.1951  2.2612  2.1991
10629TIP3    H253379   2.725   0.519  16.529  1.5542  1.2452 -1.0036
10630TIP3   OH253380   2.722   5.460   2.680 -0.8292  0.3784  0.0956
10630TIP3    H153381   2.651   5.409   2.641 -1.9941  2.9430 -1.2224
10630TIP3    H253382   2.713   5.446   2.774 -0.4490 -2.6782 -0.2655
10631TIP3   OH253383   1.777   5.170  13.769 -0.0320  0.6681  0.7997
10631TIP3    H153384   1.799   5.160  13.862 -0.8834 -2.8357  0.6729
10631TIP3    H253385   1.684   5.149  13.764  0.2452 -0.2160 -0.9989
10632TIP3   OH253386   2.546   5.305   6.139 -0.5654  0.0416  0.3354
10632TIP3    H153387   2.451   5.315   6.151 -0.8159 -1.1305 -0.5965
10632TIP3    H253388   2.577   5.394   6.122 -1.5090  0.4334  0.6241
10633TIP3   OH253389   0.534   3.878   3.242 -0.1842  0.1653  0.4677
10633TIP3    H153390   0.519   3.797   3.194 -2.8904 -1.5274  3.9523
10633TIP3    H253391   0.480   3.943   3.196  0.3444 -0.4756 -1.0822
10634TIP3   OH253392   5.650   5.005   5.022 -0.5059 -0.7289  0.4687
10634TIP3    H153393   5.635   4.937   5.088 -1.4783 -0.4811  0.5161
10634TIP3    H253394   5.562   5.036   5.000 -0.0919  0.1805  0.0947
10635TIP3   OH253395   4.924   0.725  11.760 -0.0920  0.3272 -0.0662
10635TIP3    H153396   4.996   0.686  11.711  0.5095  0.2259  0.8943
10635TIP3    H253397   4.950   0.718  11.852 -1.3074  0.3123  0.2912
10636TIP3   OH253398   4.591   1.117   1.630 -0.1784  0.3322  0.2690
10636TIP3    H153399   4.529   1.080   1.692 -0.4450 -0.2363 -0.3203
10636TIP3    H253400   4.677   1.091   1.663 -0.2800  0.6447  0.7818
10637TIP3   OH253401   5.226   4.891   3.655 -0.3635 -0.5634  0.1305
10637TIP3    H153402   5.173   4.971   3.649 -1.4706 -1.3946 -1.5044
10637TIP3    H253403   5.305   4.912   3.604 -0.1915 -0.1543  0.5615
10638TIP3   OH253404   1.683   5.686  11.770  0.2663 -0.3682  0.2437
10638TIP3    H153405   1.709   5.680  11.863  0.6273  1.5152  0.2834
10638TIP3    H253406   1.591   5.711  11.772 -0.0120 -1.3312  0.0723
10639TIP3   OH253407   2.407   5.834   3.697 -0.0726  0.2306  0.4968
10639TIP3    H153408   2.452   5.765   3.649  1.9625  1.5018  0.4911
10639TIP3    H253409   2.475   5.872   3.753 -1.0640  2.4047  0.2846
10640TIP3   OH253410   1.388   1.705   4.582  0.5097 -0.2583 -0.0866
10640TIP3    H153411   1.443   1.627   4.591  1.4786  0.5695  1.2196
10640TIP3    H253412   1.316   1.690   4.644  2.2994  1.2303  2.4431
10641TIP3   OH253413   2.800   3.739  11.812  0.3817  0.1354 -0.1485
10641TIP3    H153414   2.752   3.770  11.735 -0.5120  1.0960  0.7895
10641TIP3    H253415   2.892   3.743  11.786  0.2021  2.3018 -0.4923
10642TIP3   OH253416   5.853   1.801  13.219  0.2102 -0.0666 -0.5823
10642TIP3    H153417   5.946   1.792  13.199  0.9374  1.0830  2.0893
10642TIP3    H253418   5.826   1.713  13.245  0.6844 -0.2656 -0.7444
10643TIP3   OH253419   3.515   0.108   2.888  0.3776 -0.3791 -0.1174
10643TIP3    H153420   3.445   0.173   2.880  1.9522  1.2685 -1.1110
10643TIP3    H253421   3.596   0.160   2.886  1.6363 -2.2562  0.6629
10644TIP3   OH253422   6.527   0.942   2.029  0.0034 -0.2401  0.6232
10644TIP3    H153423   6.587   0.958   2.102 -0.6350  0.6021  0.9683
10644TIP3    H253424   6.475   0.867   2.057  0.1275 -0.2610  0.8015
10645TIP3   OH253425   2.982   5.203   2.813  0.4439 -0.1458  0.6282
10645TIP3    H153426   3.058   5.180   2.759  1.3835  0.3318  1.7420
10645TIP3    H253427   2.986   5.298   2.821 -1.1452  0.0484 -0.5700
10646TIP3   OH253428   1.284   4.269   5.763 -0.2000  0.3275  0.0265
10646TIP3    H153429   1.352   4.244   5.700 -0.3918  0.5209 -0.2566
10646TIP3    H253430   1.239   4.342   5.722  1.3189  2.1448  1.4910
10647TIP3   OH253431   1.921   0.001   5.158  0.0275  0.3039  0.1605
10647TIP3    H153432   1.978  -0.076   5.167 -0.2554  0.2003  1.1671
10647TIP3    H253433   1.857  -0.009   5.228  0.0434  1.5104  0.3475
10648TIP3   OH253434   0.449   5.659   1.190  0.2959 -0.4731 -0.2600
10648TIP3    H153435   0.411   5.654   1.278 -1.5047 -1.8250 -1.0711
10648TIP3    H253436   0.543   5.666   1.205  0.2664 -3.2623  1.8063
10649TIP3   OH253437   2.335   6.026   5.572  0.0190 -0.2023  0.1492
10649TIP3    H153438   2.268   6.088   5.543 -0.3093 -0.7477 -0.2683
10649TIP3    H253439   2.341   6.040   5.667  0.3473  0.8556 -0.0191
10650TIP3   OH253440   2.899   6.780  14.830 -0.0016  0.8643  0.5377
10650TIP3    H153441   2.955   6.727  14.773  1.6817  1.8361  1.2319
10650TIP3    H253442   2.821   6.727  14.844 -1.0709  1.1265 -3.7662
10651TIP3   OH253443   3.947   3.949  17.006 -0.5183 -0.3052 -0.0274
10651TIP3    H153444   3.889   3.999  17.064  0.9799  0.1744  1.1102
10651TIP3    H253445   3.890   3.884  16.965 -2.2177  1.3624 -0.3841
10652TIP3   OH253446   0.998   2.089   2.644 -0.0193 -0.7125 -0.3726
10652TIP3    H153447   0.981   2.183   2.651  0.7700 -0.4786 -1.4221
10652TIP3    H253448   1.052   2.069   2.720  0.4365 -0.1641 -0.5486
10653TIP3   OH253449   5.809   6.741   2.000  0.0418  0.2300  0.1463
10653TIP3    H153450   5.714   6.745   2.006  0.0154 -0.3317  0.2017
10653TIP3    H253451   5.829   6.770   1.911 -0.4685 -3.1526 -1.1819
10654TIP3   OH253452   1.715   1.861   4.288 -0.0359 -0.0000 -0.2370
10654TIP3    H153453   1.777   1.926   4.320 -0.5244  0.0425  0.6151
10654TIP3    H253454   1.631   1.907   4.284 -0.6696 -0.9521  1.6960
10655TIP3   OH253455   5.653   1.783  14.699 -0.0887 -0.0736 -0.3208
10655TIP3    H153456   5.702   1.831  14.633 -1.2583 -0.3865 -1.4320
10655TIP3    H253457   5.565   1.775  14.662 -0.6936 -0.4461  1.1766
10656TIP3   OH253458   6.444   5.013  14.134 -0.3488  0.1817 -0.0734
10656TIP3    H153459   6.448   5.063  14.052 -0.4182 -0.9326 -0.7644
10656TIP3    H253460   6.534   4.986  14.150 -0.4780 -0.3564 -0.2529
10657TIP3   OH253461   2.604   5.508  11.291 -0.3596  0.4388 -0.2648
10657TIP3    H153462   2.619   5.577  11.355  1.5638 -0.6576  0.4883
10657TIP3    H253463   2.692   5.483  11.261 -1.1722  0.4761 -2.8516
10658TIP3   OH253464   3.330   1.616   6.141 -0.4889  0.3786 -0.3033
10658TIP3    H153465   3.328   1.553   6.214  1.3171  0.8883  0.2287
10658TIP3    H253466   3.423   1.620   6.117 -0.7985  1.7559 -1.2971
10659TIP3   OH253467   4.194   6.338  12.417  0.7623  0.4827 -0.3343
10659TIP3    H153468   4.192   6.325  12.511  2.2453 -0.4591 -0.4061
10659TIP3    H253469   4.157   6.425  12.403 -4.8169 -1.5328  0.6134
10660TIP3   OH253470   3.078   2.786  11.370  0.4400  0.2802  0.1635
10660TIP3    H153471   3.099   2.699  11.402  1.2378  0.7489  0.9347
10660TIP3    H253472   3.022   2.771  11.293  1.0046 -0.9122 -0.0206
10661TIP3   OH253473   1.160   5.493   5.434 -0.1161  1.1262 -0.0184
10661TIP3    H153474   1.179   5.586   5.445  1.2333  1.1639 -2.1840
10661TIP3    H253475   1.207   5.469   5.354 -2.4326 -0.8418 -0.8425
10662TIP3   OH253476   4.999   6.517  15.295  0.0908 -0.6693  0.1136
10662TIP3    H153477   5.008   6.453  15.365  0.1879 -0.9974 -0.1942
10662TIP3    H253478   4.906   6.514  15.271 -0.1500  0.1821  0.9181
10663TIP3   OH253479   3.187   6.589   4.333 -0.5701 -0.0643 -0.2222
10663TIP3    H153480   3.124   6.652   4.298 -0.5684  0.6708  1.0785
10663TIP3    H253481   3.184   6.602   4.428  1.9710  0.4062 -0.1840
10664TIP3   OH253482   4.058   0.393  14.187  0.6111 -0.1389  0.2653
10664TIP3    H153483   4.112   0.339  14.246  0.6249  0.7764  1.0943
10664TIP3    H253484   4.088   0.482  14.201 -1.1868  0.4069  0.8121
10665TIP3   OH253485   2.645   2.806  11.192  0.5381  0.2597 -0.9620
10665TIP3    H153486   2.726   2.760  11.213  0.2820 -0.6368 -1.9106
10665TIP3    H253487   2.639   2.803  11.097 -1.3481 -0.9959 -0.8412
10666TIP3   OH253488   0.037   5.715   0.809  0.4379  0.0214 -0.1269
10666TIP3    H153489   0.011   5.751   0.893 -1.5719 -2.4189  0.3754
10666TIP3    H253490  -0.015   5.763   0.745  0.0538  0.1174  0.2575
10667TIP3   OH253491   2.482   3.554   5.311 -0.1647  0.2545 -0.0705
10667TIP3    H153492   2.558   3.534   5.256 -0.1732  0.7091 -0.2506
10667TIP3    H253493   2.516   3.612   5.379 -0.0135 -0.8468  0.8076
10668TIP3   OH253494   4.536   1.856   5.571 -0.1973 -0.8769 -0.0403
10668TIP3    H153495   4.598   1.921   5.605  1.3670 -0.7526 -2.9840
10668TIP3    H253496   4.475   1.906   5.517 -0.8183 -1.4616  0.1145
10669TIP3   OH253497   2.936   5.301   4.298 -0.2723 -0.1345  0.0228
10669TIP3    H153498   2.892   5.344   4.224 -1.1718  0.0270  0.6459
10669TIP3    H253499   2.873   5.306   4.369  0.0705 -1.5026  0.4257
10670TIP3   OH253500   5.695   4.382  15.927  0.0847  0.6763  0.9093
10670TIP3    H153501   5.716   4.448  15.861  1.9650 -0.7500  0.0370
10670TIP3    H253502   5.639   4.319  15.880 -2.2111  1.9267  1.9009
10671TIP3   OH253503   5.742   5.075  12.397  0.0356 -0.4901  0.0879
10671TIP3    H153504   5.771   5.123  12.475 -1.2183 -0.5001  0.5698
10671TIP3    H253505   5.770   4.985  12.411  0.6742 -0.2961  0.0730
10672TIP3   OH253506   2.226   4.454   1.612  0.4939 -0.7182  0.1223
10672TIP3    H153507   2.281   4.524   1.646 -1.1324  0.7451 -0.2035
10672TIP3    H253508   2.168   4.431   1.684  0.3342 -1.0259 -0.1032
10673TIP3   OH253509   4.271   5.127   2.881  0.3210 -0.2762  0.8381
10673TIP3    H153510   4.337   5.074   2.835  1.5942  1.9258  0.0491
10673TIP3    H253511   4.213   5.157   2.811  0.8328  1.0708  0.9812
10674TIP3   OH253512   0.602   4.470  14.854 -0.5747  0.5721  0.5022
10674TIP3    H153513   0.651   4.536  14.902  0.5383  0.6431 -0.7154
10674TIP3    H253514   0.592   4.397  14.916  1.8857  0.1668  0.4502
10675TIP3   OH253515   4.910   4.960   4.670 -0.0892 -0.0707 -0.6902
10675TIP3    H153516   4.976   4.955   4.600  1.1214  1.2619  0.3193
10675TIP3    H253517   4.949   5.018   4.735 -1.0531 -1.5705  1.2618
10676TIP3   OH253518   1.851   6.564  13.763 -0.1652 -0.0400  0.4566
10676TIP3    H153519   1.897   6.541  13.844 -0.9217  0.7375  1.1264
10676TIP3    H253520   1.917   6.555  13.694  0.2929 -1.4523  1.0516
10677TIP3   OH253521   2.577   5.676  14.691  0.3283 -0.1983  0.0517
10677TIP3    H153522   2.582   5.771  14.678 -0.3440 -0.2012 -0.2471
10677TIP3    H253523   2.627   5.660  14.771 -0.5551  0.5562  0.7559
10678TIP3   OH253524   1.958   3.057   0.983 -0.4754 -0.8625 -0.0448
10678TIP3    H153525   1.902   2.982   1.002  0.5262 -1.3676  0.9836
10678TIP3    H253526   2.046   3.027   1.007  0.0584  0.3222 -0.5188
10679TIP3   OH253527   2.959   0.750   0.483  0.1152  0.3226 -0.1085
10679TIP3    H153528   3.016   0.787   0.415 -0.0077  0.1724 -0.2954
10679TIP3    H253529   3.019   0.724   0.553  0.6436 -2.6385 -1.5529
10680TIP3   OH253530   6.213   5.330   5.255  0.3179 -0.8936  0.0445
10680TIP3    H153531   6.255   5.257   5.300 -0.2905 -0.5295  1.2321
10680TIP3    H253532   6.284   5.376   5.211  0.8365 -1.6370  0.1100
10681TIP3   OH253533   5.597   6.402  15.605  0.0497 -0.5082 -0.3109
10681TIP3    H153534   5.514   6.450  15.595 -0.2642 -1.0871 -0.5178
10681TIP3    H253535   5.610   6.397  15.700  0.6446  0.9358 -0.3088
10682TIP3   OH253536   3.490   3.818  12.275  0.4521 -0.0048 -0.2195
10682TIP3    H153537   3.519   3.887  12.215  1.0994 -0.4815 -0.4529
10682TIP3    H253538   3.417   3.858  12.323 -0.8494 -0.0120 -2.1567
10683TIP3   OH253539   0.607   0.572  10.201  0.3622  0.2820 -0.0594
10683TIP3    H153540   0.673   0.598  10.265  1.8091 -2.9409 -0.1345
10683TIP3    H253541   0.600   0.647  10.142  2.5294  1.4394  1.0918
10684TIP3   OH253542   5.200   4.412  15.787 -0.4526  0.1480 -0.6236
10684TIP3    H153543   5.147   4.335  15.768  0.9389 -0.7954 -0.8040
10684TIP3    H253544   5.265   4.415  15.716  0.3103  0.7266  0.0822
10685TIP3   OH253545   1.648   1.319   1.899  0.2380 -0.2419 -0.4081
10685TIP3    H153546   1.736   1.297   1.868  0.6723 -0.3312  0.8768
10685TIP3    H253547   1.652   1.308   1.994 -0.9202  0.5890 -0.2494
10686TIP3   OH253548   5.621   2.945  16.496  0.6812  0.3909 -0.5977
10686TIP3    H153549   5.596   2.861  16.536 -0.0700  1.8792  2.2149
10686TIP3    H253550   5.541   2.975  16.453  0.9777 -0.3649 -1.6901
10687TIP3   OH253551   0.274   5.552  13.010 -0.0758 -0.3462  0.1807
10687TIP3    H153552   0.353   5.505  12.984 -0.0060 -1.6639  2.6014
10687TIP3    H253553   0.304   5.641  13.028  0.8894 -0.8549  1.1453
10688TIP3   OH253554   2.702   1.987   5.512 -0.5853 -0.0408 -0.0244
10688TIP3    H153555   2.697   1.961   5.604 -1.2626  1.7608  0.4874
10688TIP3    H253556   2.786   1.954   5.482 -0.4029 -0.7417  1.2269
10689TIP3   OH253557   0.674   5.253  14.521 -0.1448  0.1838 -0.0675
10689TIP3    H153558   0.755   5.250  14.572  1.3315  1.0688 -2.2603
10689TIP3    H253559   0.652   5.347  14.518 -0.7416  0.0383 -0.2779
10690TIP3   OH253560   4.078   2.851  12.190  0.0129  0.3048  0.5112
10690TIP3    H153561   4.025   2.854  12.111  1.6275 -1.7653 -0.6783
10690TIP3    H253562   4.060   2.935  12.233 -0.5843  1.6382 -2.2063
10691TIP3   OH253563   2.538   1.522   6.471 -0.0925 -0.3745 -0.0972
10691TIP3    H153564   2.497   1.494   6.553  0.3550 -0.4640  0.1021
10691TIP3    H253565   2.554   1.615   6.483 -1.6214 -0.0140 -0.7764
10692TIP3   OH253566   3.386   5.023  14.801 -0.6668  0.6333 -0.2501
10692TIP3    H153567   3.457   4.964  14.776 -2.5949 -1.2970 -1.2759
10692TIP3    H253568   3.359   5.064  14.719  0.2369  2.5083  0.3635
10693TIP3   OH253569   4.891   0.490  16.821  0.0226  0.5205  0.0762
10693TIP3    H153570   4.932   0.519  16.739  1.1971 -0.1465  0.4182
10693TIP3    H253571   4.800   0.472  16.797  0.3736  0.2461 -1.1047
10694TIP3   OH253572   6.684   6.338  15.100  0.6142  0.2023  0.7694
10694TIP3    H153573   6.656   6.254  15.135  0.2185  0.0200  0.0405
10694TIP3    H253574   6.612   6.364  15.042 -0.0980  1.9072  2.3614
10695TIP3   OH253575   0.426   3.395  14.980 -0.1332  0.0927  0.0720
10695TIP3    H153576   0.412   3.312  14.936  1.2247 -0.6188  0.9215
10695TIP3    H253577   0.487   3.374  15.051 -2.5806  1.1177  2.5498
10696TIP3   OH253578   4.594   6.248   5.371  0.1631 -0.2140 -0.2175
10696TIP3    H153579   4.586   6.342   5.387 -0.4630 -0.3499  0.2943
10696TIP3    H253580   4.601   6.208   5.458  0.9310 -0.5995 -0.4520
10697TIP3   OH253581   2.577   0.410   0.511 -0.6355 -0.1967 -0.6118
10697TIP3    H153582   2.664   0.433   0.479 -0.8051  2.1598  0.5201
10697TIP3    H253583   2.531   0.494   0.517 -2.4295 -1.2351  0.4203
10698TIP3   OH253584   2.475   2.833  12.311  0.0031  0.0409  0.0804
10698TIP3    H153585   2.457   2.739  12.303 -0.1823  0.0332  0.5721
10698TIP3    H253586   2.564   2.844  12.279  0.0360 -0.3099  0.0538
10699TIP3   OH253587   5.955   1.964   4.547  0.0023  0.2503  0.4886
10699TIP3    H153588   5.943   1.889   4.606  1.0044  0.6790  1.2650
10699TIP3    H253589   5.908   1.940   4.468  1.4797 -1.8289  0.2028
10700TIP3   OH253590   5.494   3.946  13.071 -0.0069  0.2358  0.0156
10700TIP3    H153591   5.453   3.987  13.146  1.2449 -1.0184  1.4273
10700TIP3    H253592   5.507   3.854  13.097 -0.4116 -0.4501 -2.0779
10701TIP3   OH253593   1.703   4.921   3.402 -0.6401  0.5573  0.5640
10701TIP3    H153594   1.781   4.976   3.401 -1.1326  1.2654 -1.2042
10701TIP3    H253595   1.645   4.964   3.465 -0.0506  0.6719  1.0339
10702TIP3   OH253596   6.170   1.653  16.395 -0.1372 -0.4843 -0.2490
10702TIP3    H153597   6.097   1.599  16.364 -1.3989  1.3376 -0.5438
10702TIP3    H253598   6.206   1.692  16.316  1.0965 -1.2967 -0.0897
10703TIP3   OH253599   5.782   0.696  11.484 -0.2801  0.7416  0.1469
10703TIP3    H153600   5.837   0.659  11.414  1.2889  1.1134  1.1666
10703TIP3    H253601   5.778   0.789  11.464 -0.9182  0.6517 -0.1666
10704TIP3   OH253602   1.760   0.691   2.044 -0.3268 -0.3910  0.2499
10704TIP3    H153603   1.784   0.639   2.121 -0.5232 -0.7655  0.0606
10704TIP3    H253604   1.744   0.626   1.975 -2.4269 -0.2051  0.5091
10705TIP3   OH253605   3.502   5.575  12.622 -0.3810 -0.1322  0.0436
10705TIP3    H153606   3.523   5.635  12.693  1.2250  1.6247 -1.8762
10705TIP3    H253607   3.579   5.518  12.615 -1.0446 -1.1046  0.4927
10706TIP3   OH253608   6.199   5.077   1.566  0.8693 -0.4173 -0.4838
10706TIP3    H153609   6.243   5.125   1.496 -0.3991  1.4916 -0.0267
10706TIP3    H253610   6.163   4.999   1.524  1.4025 -0.0569 -1.6336
10707TIP3   OH253611   3.175   4.928  15.276  0.3323 -0.2126 -0.1172
10707TIP3    H153612   3.112   4.872  15.230 -0.3929 -0.6155  1.3280
10707TIP3    H253613   3.222   4.973  15.207 -1.8251  0.3888 -1.2204
10708TIP3   OH253614   6.024   1.104  12.032  0.1068 -0.1826  0.2943
10708TIP3    H153615   6.062   1.023  11.998  1.3975 -0.1854  1.6813
10708TIP3    H253616   6.060   1.173  11.976 -1.7302 -0.6305 -1.4820
10709TIP3   OH253617   5.880   1.010   1.290 -0.2312 -0.0169 -0.2625
10709TIP3    H153618   5.861   0.950   1.361 -0.2150  0.2969  0.0106
10709TIP3    H253619   5.819   0.985   1.220 -1.3444  0.6875  0.4334
10710TIP3   OH253620   4.255   0.995  14.951 -0.7099 -0.7332 -0.0915
10710TIP3    H153621   4.226   0.905  14.939 -2.3130 -0.3363  0.6180
10710TIP3    H253622   4.252   1.009  15.046 -0.9952  0.2135 -0.2286
10711TIP3   OH253623   1.936   6.492   2.561  0.1840 -0.2633 -0.7173
10711TIP3    H153624   1.847   6.460   2.576  0.5177 -0.8058  0.0543
10711TIP3    H253625   1.943   6.569   2.618  0.3793 -0.5043 -0.4192
10712TIP3   OH253626   4.083   1.543   0.795 -0.1008  0.3852 -0.5698
10712TIP3    H153627   4.034   1.525   0.714  0.0455  1.2887 -0.8552
10712TIP3    H253628   4.018   1.532   0.864 -0.2531 -0.2931 -0.8112
10713TIP3   OH253629   2.962   1.585   3.991 -0.2351  0.7468  0.4404
10713TIP3    H153630   2.948   1.520   4.059 -1.7062 -1.4152 -1.8336
10713TIP3    H253631   3.049   1.621   4.009  0.4054 -1.5090  2.0345
10714TIP3   OH253632   2.948   4.382  12.291  0.1638 -0.6600 -0.0331
10714TIP3    H153633   2.859   4.414  12.302  0.1987 -0.4830 -0.2444
10714TIP3    H253634   2.982   4.374  12.380  0.0032 -0.5304  0.0411
10715TIP3   OH253635   3.357   5.283   1.987 -0.2601 -0.0800 -0.0675
10715TIP3    H153636   3.400   5.201   1.961 -0.4664 -0.1344 -0.2388
10715TIP3    H253637   3.270   5.256   2.016 -0.8502  0.2397 -1.5086
10716TIP3   OH253638   3.778   4.986   0.574 -0.3626  0.0849 -0.0688
10716TIP3    H153639   3.695   4.975   0.527  0.8473  0.9635 -2.5416
10716TIP3    H253640   3.845   4.977   0.506  1.4691  1.3926  1.5046
10717TIP3   OH253641   3.662   4.986  13.217  0.3849  0.4531  0.1747
10717TIP3    H153642   3.616   4.903  13.230 -0.7485  1.1877  1.0050
10717TIP3    H253643   3.599   5.052  13.246  1.7212  1.5221  0.6788
10718TIP3   OH253644   0.329   5.932  14.109  0.5297 -0.2230  0.1159
10718TIP3    H153645   0.351   5.879  14.033  1.2429  0.6140 -0.2831
10718TIP3    H253646   0.269   5.999  14.076  0.1711 -0.3665  0.4680
10719TIP3   OH253647   0.669   2.520  17.036  0.1063 -0.1478  0.0923
10719TIP3    H153648   0.586   2.495  16.994 -0.2459 -0.4639  0.9725
10719TIP3    H253649   0.646   2.535  17.128  0.9764  0.0438  0.2762
10720TIP3   OH253650   4.812   3.122  12.997  0.2255 -0.9837  1.2120
10720TIP3    H153651   4.876   3.187  12.967  0.3214 -1.5306  0.1946
10720TIP3    H253652   4.768   3.163  13.071  0.8057 -0.0551  1.0443
10721TIP3   OH253653   2.315   1.641  11.004 -0.1761 -0.8985  0.0513
10721TIP3    H153654   2.304   1.662  10.911  0.6801  0.9241  0.3443
10721TIP3    H253655   2.301   1.546  11.009 -1.0982 -0.8797 -1.7968
10722TIP3   OH253656   4.831   5.066   0.743 -0.2760 -0.6818 -0.0549
10722TIP3    H153657   4.745   5.104   0.723  0.5108  1.2107  0.1453
10722TIP3    H253658   4.838   5.070   0.838  0.7911  0.8562 -0.1835
10723TIP3   OH253659   0.322   1.792   0.275 -0.2617 -0.0008  0.3752
10723TIP3    H153660   0.308   1.707   0.234 -0.9922  0.1221  0.3590
10723TIP3    H253661   0.368   1.843   0.209 -0.7737 -0.0433 -0.0208
10724TIP3   OH253662   6.619   1.506   6.659 -0.3778 -0.4638  0.4737
10724TIP3    H153663   6.550   1.559   6.618 -0.3911 -0.9038 -0.0684
10724TIP3    H253664   6.572   1.449   6.720 -0.2474  1.0349  2.0236
10725TIP3   OH253665   1.826   4.351  16.884 -0.0402  0.2802  0.2381
10725TIP3    H153666   1.843   4.310  16.969 -1.5727 -0.5217  0.1738
10725TIP3    H253667   1.737   4.325  16.862 -0.4505  2.2870 -0.6005
10726TIP3   OH253668   2.343   3.310  14.499 -0.0035  0.3770  0.3913
10726TIP3    H153669   2.321   3.403  14.510 -1.3471  0.1853 -0.5206
10726TIP3    H253670   2.419   3.296  14.555  2.1152  2.7724 -1.7505
10727TIP3   OH253671   0.252   0.775   1.085 -0.4935 -0.2212  0.6867
10727TIP3    H153672   0.164   0.775   1.122 -0.5133  0.2224  0.6337
10727TIP3    H253673   0.300   0.713   1.140 -1.3056 -1.8442 -0.3885
10728TIP3   OH253674   1.311   0.402  11.853  0.0030 -0.0273  0.3100
10728TIP3    H153675   1.359   0.484  11.842  0.3816 -0.0757  1.5970
10728TIP3    H253676   1.225   0.430  11.885 -0.8637  0.0570 -1.9436
10729TIP3   OH253677   4.111   3.001   4.147 -0.1351 -0.2663  0.2653
10729TIP3    H153678   4.070   2.983   4.232  0.4503  3.1580  1.3532
10729TIP3    H253679   4.201   2.973   4.157 -0.7366 -2.4365 -0.1884
10730TIP3   OH253680   2.042   5.053  11.469 -0.1034  0.0485  0.2376
10730TIP3    H153681   2.082   5.005  11.396 -0.1331 -0.8241  0.7829
10730TIP3    H253682   2.116   5.081  11.522 -0.1632 -1.0963  0.9554
10731TIP3   OH253683   0.945   0.658  14.873  0.3312  0.2087 -0.3435
10731TIP3    H153684   0.872   0.715  14.851 -0.3395  0.2427  1.7945
10731TIP3    H253685   0.917   0.613  14.953  1.6094 -1.7085 -0.9221
10732TIP3   OH253686   0.850   5.857   3.769 -0.1241 -0.3817 -0.0888
10732TIP3    H153687   0.915   5.920   3.737 -0.1735 -0.0800  0.4151
10732TIP3    H253688   0.817   5.894   3.850 -0.7394 -0.6646 -0.2026
10733TIP3   OH253689   2.915   6.102  15.424 -0.0364 -0.4066  0.3591
10733TIP3    H153690   2.855   6.033  15.452 -0.4107 -0.4972 -0.6521
10733TIP3    H253691   2.874   6.183  15.456 -0.0523 -0.5750  0.7686
10734TIP3   OH253692   3.304   2.675   4.765 -0.1860 -0.1967  0.1800
10734TIP3    H153693   3.324   2.592   4.722  0.8582  0.1893 -0.0832
10734TIP3    H253694   3.358   2.740   4.720 -0.1342  0.4408  1.1423
10735TIP3   OH253695   2.153   2.234  12.135  0.5179  0.1253  0.3940
10735TIP3    H153696   2.116   2.322  12.130  0.5313  0.1607  0.9414
10735TIP3    H253697   2.092   2.181  12.083  1.0044  0.6097 -0.7031
10736TIP3   OH253698   2.327   5.901  17.021  0.1545 -0.4903 -0.7515
10736TIP3    H153699   2.361   5.855  17.098  2.8631 -1.0770 -2.2329
10736TIP3    H253700   2.330   5.835  16.951  0.2120  0.7768 -1.9581
10737TIP3   OH253701   2.590   6.700   6.143  0.4730  0.3686 -0.3601
10737TIP3    H153702   2.651   6.765   6.179  0.8254 -0.2987  0.2544
10737TIP3    H253703   2.513   6.706   6.200  0.4608  0.3302 -0.3733
10738TIP3   OH253704   5.097   3.959   2.321 -0.1909 -0.6371  0.4755
10738TIP3    H153705   5.081   3.987   2.231 -0.4231 -0.9929  0.4058
10738TIP3    H253706   5.011   3.933   2.354  0.0642 -1.5417  0.4406
10739TIP3   OH253707   2.261   0.712   3.233  0.6454 -0.6548  1.0361
10739TIP3    H153708   2.253   0.646   3.164  0.2377  1.1339 -0.6624
10739TIP3    H253709   2.336   0.765   3.207 -1.1293  1.6761  0.5090
10740TIP3   OH253710   3.721   3.324   2.023  0.5675 -0.6096 -0.3889
10740TIP3    H153711   3.670   3.284   2.093  0.8085 -1.3165 -0.6091
10740TIP3    H253712   3.692   3.415   2.021  1.5089 -0.2355  1.5246
10741TIP3   OH253713   4.944   2.180  13.107 -0.4399 -0.0450 -0.5508
10741TIP3    H153714   4.881   2.249  13.128 -1.0277 -0.0067 -2.3917
10741TIP3    H253715   4.933   2.165  13.013  1.5948 -0.7413 -0.6974
10742TIP3   OH253716   0.189   1.876   6.650 -0.4072 -0.2919 -0.1736
10742TIP3    H153717   0.137   1.910   6.578  0.5111  0.7276 -0.3526
10742TIP3    H253718   0.259   1.826   6.608  0.7879  1.2345 -0.0421
10743TIP3   OH253719   1.192   5.931  13.611 -0.1967 -0.0103  0.0928
10743TIP3    H153720   1.105   5.909  13.576  0.8977 -3.1312 -0.8369
10743TIP3    H253721   1.188   6.026  13.627 -3.9055 -0.1524  0.5125
10744TIP3   OH253722   5.757   6.596   3.902 -0.2475 -0.2544 -0.7887
10744TIP3    H153723   5.672   6.639   3.891 -0.2009  0.0926  0.1716
10744TIP3    H253724   5.771   6.595   3.997  0.0461 -1.8342 -0.8421
10745TIP3   OH253725   5.706   0.940   6.809 -0.1207  0.0482 -0.1393
10745TIP3    H153726   5.611   0.944   6.811 -0.1734 -1.0580  0.1821
10745TIP3    H253727   5.726   0.846   6.816  1.0305  0.4157  1.9529
10746TIP3   OH253728   3.722   2.746   2.479 -0.3696  0.0328 -0.1965
10746TIP3    H153729   3.696   2.742   2.571  2.5685 -0.3219  0.6622
10746TIP3    H253730   3.690   2.664   2.441 -0.4657 -0.3993  0.8108
10747TIP3   OH253731   3.182   2.627   5.027  0.1643 -0.0097 -0.1780
10747TIP3    H153732   3.109   2.633   4.965  1.0387  0.6095 -1.1553
10747TIP3    H253733   3.259   2.650   4.975  0.9996 -0.2219  0.9643
10748TIP3   OH253734   0.531   5.680  12.527  0.2376 -0.0948  0.5396
10748TIP3    H153735   0.506   5.605  12.473  0.5221 -0.2394  0.6038
10748TIP3    H253736   0.491   5.662  12.612  0.5732 -0.3396  0.6509
10749TIP3   OH253737   1.282   2.465  16.728 -0.3223  0.3301 -0.0248
10749TIP3    H153738   1.323   2.421  16.802  0.8740  1.8808  0.2537
10749TIP3    H253739   1.192   2.481  16.757 -0.4304 -0.8626  0.3153
10750TIP3   OH253740   0.529   4.544   3.120 -0.0103  0.1171  0.0078
10750TIP3    H153741   0.541   4.480   3.190  1.8384 -0.3515 -0.7011
10750TIP3    H253742   0.554   4.627   3.159  0.2963 -0.0308  0.1326
10751TIP3   OH253743   3.047   3.411  15.710  0.2480 -0.1554  0.2323
10751TIP3    H153744   2.983   3.476  15.740 -0.3766 -2.0235  3.2050
10751TIP3    H253745   3.079   3.370  15.790  1.2393 -2.9240 -1.4885
10752TIP3   OH253746   5.183   2.175   3.620  0.3367  0.4042  0.2868
10752TIP3    H153747   5.249   2.138   3.561 -1.2808  1.9405 -2.5974
10752TIP3    H253748   5.189   2.270   3.606 -1.4715  0.6519  1.0783
10753TIP3   OH253749   0.233   3.868  15.634 -0.2848 -0.2766  0.2781
10753TIP3    H153750   0.278   3.889  15.715  0.0744  1.6213 -0.3747
10753TIP3    H253751   0.302   3.850  15.571 -0.4629  1.2469 -0.3671
10754TIP3   OH253752   3.694   3.571   4.509 -0.1782  0.0394 -0.3263
10754TIP3    H153753   3.768   3.628   4.533  0.4244 -0.5267 -0.8213
10754TIP3    H253754   3.711   3.548   4.417 -0.7491 -0.4368 -0.3102
10755TIP3   OH253755   1.752   6.657   6.663 -0.4178 -0.3480  0.3435
10755TIP3    H153756   1.742   6.570   6.624  0.4324 -0.9539  1.4376
10755TIP3    H253757   1.803   6.642   6.742 -2.3216  0.8184  1.8390
10756TIP3   OH253758   5.962   5.585  11.032  0.0840  0.1254  0.6032
10756TIP3    H153759   6.017   5.607  11.108  2.3060  0.5496 -1.0637
10756TIP3    H253760   5.939   5.670  10.995 -3.1237  0.0105  2.2135
10757TIP3   OH253761   5.973   4.315  15.603  0.8217  0.4820  0.3311
10757TIP3    H153762   5.882   4.303  15.630  0.3145  1.2176 -0.9684
10757TIP3    H253763   6.016   4.233  15.625 -0.2813 -0.0574  0.4987
10758TIP3   OH253764   5.021   6.779   5.915  0.2723 -0.6836 -0.4166
10758TIP3    H153765   5.046   6.808   6.002  0.7348 -0.1589 -0.7205
10758TIP3    H253766   4.987   6.690   5.928 -0.1839 -0.4016  0.3695
10759TIP3   OH253767   3.744   2.205   4.942  0.3445 -0.1956  0.3484
10759TIP3    H153768   3.730   2.227   5.034 -1.1721 -0.1711  0.1242
10759TIP3    H253769   3.755   2.290   4.898 -0.0337 -0.1527  0.3368
10760TIP3   OH253770   1.549   3.679   1.449  0.6432  0.4144 -0.1118
10760TIP3    H153771   1.483   3.641   1.508 -0.0646  0.8270 -0.6335
10760TIP3    H253772   1.577   3.605   1.395 -0.3981  0.5176 -0.8119
10761TIP3   OH253773   0.247   6.300   5.238  0.4222 -0.5650 -0.2734
10761TIP3    H153774   0.233   6.305   5.333  0.2787  3.7177 -0.3819
10761TIP3    H253775   0.169   6.257   5.204 -2.0917  2.5652  1.1911
10762TIP3   OH253776   5.269   3.196   0.560 -0.0369  0.6970 -0.6324
10762TIP3    H153777   5.310   3.112   0.581 -2.4375 -0.3970 -0.1805
10762TIP3    H253778   5.222   3.221   0.640  0.2504  2.2324 -0.9248
10763TIP3   OH253779   4.388   1.523  11.133 -0.2625  0.3135 -0.0526
10763TIP3    H153780   4.398   1.460  11.204  1.2316  0.5482 -0.0386
10763TIP3    H253781   4.379   1.470  11.054 -0.9217  0.0691  0.1797
10764TIP3   OH253782   0.718   3.608  17.025 -0.0048 -0.5295  0.3971
10764TIP3    H153783   0.690   3.699  17.024 -2.9516 -1.3757 -2.0418
10764TIP3    H253784   0.764   3.598  17.108  0.2389  3.1093  0.7811
10765TIP3   OH253785   5.928   4.725   3.846  0.4241 -0.1895  0.5432
10765TIP3    H153786   5.931   4.644   3.796  0.1337  0.2041 -0.1092
10765TIP3    H253787   5.975   4.704   3.927  0.3854 -0.9955  0.3639
10766TIP3   OH253788   5.530   3.432  12.010 -0.4309 -0.8016 -0.2198
10766TIP3    H153789   5.534   3.356  12.068  3.0944 -2.3625 -2.3410
10766TIP3    H253790   5.606   3.485  12.034  0.1575 -0.6691 -2.2665
10767TIP3   OH253791   2.909   5.681   1.706 -0.2762 -0.5861  0.6218
10767TIP3    H153792   2.831   5.637   1.671  1.2531 -3.2487  0.3907
10767TIP3    H253793   2.875   5.746   1.767 -2.7481 -0.2173 -1.0678
10768TIP3   OH253794   1.640   4.117   0.473 -0.0767 -0.1106 -0.3207
10768TIP3    H153795   1.609   4.198   0.432  1.0997 -0.0856 -1.1985
10768TIP3    H253796   1.691   4.074   0.404  2.9177  0.4774  1.3969
10769TIP3   OH253797   3.455   6.679  12.761 -0.4243 -0.2929  0.0081
10769TIP3    H153798   3.487   6.762  12.797 -0.4928 -0.4794  0.5030
10769TIP3    H253799   3.375   6.703  12.714  1.2720  0.4234 -2.5838
10770TIP3   OH253800   4.631   3.485   3.074 -0.6175 -0.3337 -0.5635
10770TIP3    H153801   4.549   3.438   3.089 -0.2147 -1.0708 -0.6493
10770TIP3    H253802   4.644   3.481   2.979 -2.4419  3.1003 -1.0590
10771TIP3   OH253803   6.715   0.953   1.411  0.4390  0.0921 -0.1858
10771TIP3    H153804   6.666   0.896   1.470  0.1146  0.1587 -0.3887
10771TIP3    H253805   6.734   1.031   1.463  1.5359 -0.5121  0.3292
10772TIP3   OH253806   4.747   5.945   5.351 -0.1775 -0.0719 -0.0101
10772TIP3    H153807   4.840   5.957   5.333  0.2763 -0.3230  2.0503
10772TIP3    H253808   4.728   5.856   5.322  0.6463 -0.6278  1.0895
10773TIP3   OH253809   3.236   1.935  11.099 -0.3203 -0.3900 -0.0507
10773TIP3    H153810   3.166   1.922  11.162  0.3247 -1.3589  0.4768
10773TIP3    H253811   3.201   1.900  11.017 -0.9983  0.4829 -0.1414
10774TIP3   OH253812   6.129   0.083   1.125 -0.1007  0.1486 -0.4833
10774TIP3    H153813   6.103   0.115   1.211  0.2886  1.6651 -0.9067
10774TIP3    H253814   6.216   0.118   1.111 -0.6522  0.9723 -2.0034
10775TIP3   OH253815   4.016   4.104   4.561 -0.0001  0.3007 -0.4373
10775TIP3    H153816   3.957   4.111   4.636 -2.0288  2.2878 -2.1486
10775TIP3    H253817   3.958   4.091   4.486  1.7655  1.7744 -2.1077
10776TIP3   OH253818   6.234   2.793   4.084  0.2384  0.2714  0.1807
10776TIP3    H153819   6.325   2.791   4.112  0.9285  0.3824 -1.9758
10776TIP3    H253820   6.231   2.861   4.016 -1.4299  0.2184  0.1792
10777TIP3   OH253821   2.492   2.481  17.170 -0.3189 -0.4940  0.0481
10777TIP3    H153822   2.549   2.480  17.093 -0.0660 -0.5069  0.2366
10777TIP3    H253823   2.415   2.532  17.143 -0.8073 -1.5655 -0.6158
10778TIP3   OH253824   1.813   5.268  13.519  0.3514  0.4528 -0.4593
10778TIP3    H153825   1.902   5.295  13.541  0.6631 -0.8147 -0.1606
10778TIP3    H253826   1.785   5.213  13.592 -0.6474  0.7751 -0.5884
10779TIP3   OH253827   2.286   2.303  14.070 -0.0346 -0.4663 -0.7116
10779TIP3    H153828   2.220   2.351  14.020  0.8162  0.1858 -1.2183
10779TIP3    H253829   2.259   2.211  14.063 -2.1197 -0.0139  0.9384
10780TIP3   OH253830   3.579   3.495   1.629 -0.2736  0.3460 -0.1615
10780TIP3    H153831   3.614   3.433   1.566  1.3853  1.1634 -0.0853
10780TIP3    H253832   3.571   3.446   1.710 -1.0680 -0.3328 -0.6461
10781TIP3   OH253833   5.507   4.328  12.047 -0.4087  0.4963 -0.1185
10781TIP3    H153834   5.453   4.316  12.125  0.3474  0.0436  0.3413
10781TIP3    H253835   5.588   4.279  12.066  0.6321  2.1011 -0.3248
10782TIP3   OH253836   6.054   4.229  13.968  0.3228  0.2526 -0.0184
10782TIP3    H153837   6.099   4.243  13.885 -0.0584  0.9744 -0.1105
10782TIP3    H253838   6.116   4.179  14.021  0.8531  0.4191 -0.4794
10783TIP3   OH253839   6.184   5.650   0.410  0.3266 -0.1839  0.1302
10783TIP3    H153840   6.112   5.695   0.366  1.2918  0.8470 -0.4133
10783TIP3    H253841   6.165   5.659   0.503  0.4461  1.2468  0.0237
10784TIP3   OH253842   6.090   5.142  17.100  0.0885  0.2237 -0.2817
10784TIP3    H153843   6.074   5.069  17.041  0.1450  0.4515 -0.5888
10784TIP3    H253844   6.111   5.215  17.041 -2.2761  1.0765 -0.0943
10785TIP3   OH253845   3.098   0.773   1.040  0.2372 -0.0560 -0.2697
10785TIP3    H153846   3.038   0.745   1.110 -0.3020  0.5508 -0.4817
10785TIP3    H253847   3.137   0.853   1.074  1.9324 -1.1499  0.4258
10786TIP3   OH253848   0.435   0.120  13.804  0.2439 -0.1152  0.1745
10786TIP3    H153849   0.423   0.188  13.870  3.9563  1.5295 -0.7551
10786TIP3    H253850   0.523   0.086  13.819 -0.2037 -2.2600 -1.6713
10787TIP3   OH253851   4.624   5.229  12.179  0.2009  0.1847  0.4021
10787TIP3    H153852   4.636   5.207  12.086  0.3391 -0.2225  0.5164
10787TIP3    H253853   4.700   5.283  12.200  1.4136 -1.6711  0.8967
10788TIP3   OH253854   3.806   2.359  14.893 -0.2282 -0.9204  0.1974
10788TIP3    H153855   3.793   2.454  14.898  0.0435 -0.7948 -1.1451
10788TIP3    H253856   3.746   2.323  14.959 -0.1746  0.1883  0.8721
10789TIP3   OH253857   2.227   2.047  13.630 -0.6485  0.5499  0.0096
10789TIP3    H153858   2.275   2.042  13.712  1.8273 -0.6567 -1.4684
10789TIP3    H253859   2.288   2.086  13.568 -1.6801 -0.6563 -1.8334
10790TIP3   OH253860   4.534   0.284  12.418  0.1964 -0.1960  0.5917
10790TIP3    H153861   4.503   0.370  12.390 -0.7995 -0.8812 -0.4720
10790TIP3    H253862   4.527   0.229  12.339 -0.8693 -1.6929  1.6895
10791TIP3   OH253863   6.507   6.335   1.701  0.5199 -0.5283 -0.1165
10791TIP3    H153864   6.480   6.246   1.722  0.5975 -0.0004  2.5208
10791TIP3    H253865   6.433   6.372   1.652 -1.5379 -0.6796  2.6852
10792TIP3   OH253866   5.538   6.808  11.747  0.3338  0.2457 -1.1603
10792TIP3    H153867   5.581   6.863  11.813  1.5987 -1.2174 -0.7465
10792TIP3    H253868   5.572   6.839  11.664  0.5621  0.5076 -0.9704
10793TIP3   OH253869   1.735   3.567   2.727 -0.0233 -0.4123  0.6445
10793TIP3    H153870   1.817   3.584   2.773  1.3127 -2.7813 -0.8152
10793TIP3    H253871   1.725   3.472   2.730 -0.6383 -0.5019 -2.6964
10794TIP3   OH253872   4.703   3.338   4.765 -0.4248  0.5207  0.6970
10794TIP3    H153873   4.678   3.251   4.794 -0.2957 -0.6827 -2.5263
10794TIP3    H253874   4.634   3.396   4.797  1.1685 -0.1650  5.6884
10795TIP3   OH253875   0.552   6.117  15.233 -0.1661 -0.3856  0.3550
10795TIP3    H153876   0.596   6.060  15.295  1.5761 -1.4915 -1.8200
10795TIP3    H253877   0.506   6.057  15.174 -2.5723  0.6719  1.0801
10796TIP3   OH253878   4.133   0.069   0.693  0.8017  0.2011  0.1177
10796TIP3    H153879   4.225   0.049   0.677  0.0343 -3.9978  0.4031
10796TIP3    H253880   4.131   0.108   0.780  2.4304  1.6694 -0.4753
10797TIP3   OH253881   3.004   6.175  13.215 -0.5157 -0.2662 -0.0647
10797TIP3    H153882   3.039   6.228  13.286  0.7098 -0.0511 -0.8312
10797TIP3    H253883   2.911   6.166  13.236 -0.6698  1.8942  0.2517
10798TIP3   OH253884   0.079   4.518  16.055  0.0286 -0.4753  0.3215
10798TIP3    H153885   0.058   4.551  16.142 -2.2313  2.3548 -1.1737
10798TIP3    H253886   0.142   4.581  16.020  0.8950 -1.5665 -0.1100
10799TIP3   OH253887   3.523   5.617  10.394  1.0693  0.0662 -0.6308
10799TIP3    H153888   3.498   5.657  10.477 -1.3385  1.1107 -1.8177
10799TIP3    H253889   3.617   5.634  10.386  1.2919  0.0902  1.7682
10800TIP3   OH253890   4.254   2.534   2.173 -0.0487 -0.1217  0.6309
10800TIP3    H153891   4.331   2.591   2.169 -0.4698  0.3071 -1.8811
10800TIP3    H253892   4.271   2.466   2.109 -1.1622 -0.8235  1.0729
10801TIP3   OH253893   4.092   4.469   0.751 -0.4844  0.3206 -0.0250
10801TIP3    H153894   4.003   4.475   0.717 -0.4966  2.3847  0.3212
10801TIP3    H253895   4.081   4.472   0.847 -0.2161 -2.0949  0.1117
10802TIP3   OH253896   0.681   6.523   5.905  0.0606 -1.0659  0.0658
10802TIP3    H153897   0.696   6.599   5.962 -2.7767 -0.4553  0.0277
10802TIP3    H253898   0.750   6.529   5.839  1.2658  0.1678  1.3880
10803TIP3   OH253899   6.318   2.938   5.824 -0.2178  0.3622 -0.1111
10803TIP3    H153900   6.300   2.940   5.918  0.2831  0.4486 -0.0181
10803TIP3    H253901   6.240   2.896   5.786  0.1770 -0.9420  0.4751
10804TIP3   OH253902   3.416   0.950  16.832  0.3627  0.7694 -0.6175
10804TIP3    H153903   3.347   1.015  16.820 -1.5301 -0.9570  0.7771
10804TIP3    H253904   3.393   0.878  16.773  1.1666  0.3198 -0.3926
10805TIP3   OH253905   3.651   6.585  14.572 -0.7394  0.4281  0.0349
10805TIP3    H153906   3.682   6.674  14.587  1.6355 -0.3738  0.1371
10805TIP3    H253907   3.630   6.583  14.479  1.1944  0.5392 -0.4297
10806TIP3   OH253908   0.159   0.932  13.380  0.0354 -0.4580  0.9883
10806TIP3    H153909   0.229   0.982  13.423  1.6562 -0.6254 -1.4020
10806TIP3    H253910   0.194   0.844  13.372  0.2956 -0.1248 -1.8333
10807TIP3   OH253911   3.030   1.878  16.355 -0.4129  0.4852  0.9889
10807TIP3    H153912   2.940   1.863  16.328 -0.4136 -0.8823  1.7195
10807TIP3    H253913   3.031   1.855  16.448  1.0779 -1.2732  0.5682
10808TIP3   OH253914   3.755   3.797  12.956  0.1547 -0.5274 -0.5992
10808TIP3    H153915   3.683   3.735  12.945  1.0047 -1.7048  0.3238
10808TIP3    H253916   3.793   3.775  13.041  0.3303  1.4263 -0.1451
10809TIP3   OH253917   2.144   3.791   5.859  0.8412 -0.2505  0.2809
10809TIP3    H153918   2.177   3.857   5.920  0.5921 -0.8906  1.1102
10809TIP3    H253919   2.202   3.716   5.870  1.7216  0.1536 -1.3622
10810TIP3   OH253920   5.212   6.214  16.294  0.6899 -0.3210  0.0575
10810TIP3    H153921   5.185   6.306  16.295 -1.6275 -0.9822  0.3257
10810TIP3    H253922   5.237   6.195  16.384  0.8799 -0.0371  0.0639
10811TIP3   OH253923   4.667   5.017  14.618  0.1194  0.1652 -0.2071
10811TIP3    H153924   4.632   5.096  14.577 -0.8275 -0.5135 -0.7186
10811TIP3    H253925   4.758   5.014  14.588  0.1746  1.0751 -0.1554
10812TIP3   OH253926   0.307   4.599   4.326  0.0934 -0.2589 -0.5873
10812TIP3    H153927   0.249   4.641   4.389 -0.4647 -1.2807 -0.4096
10812TIP3    H253928   0.298   4.651   4.246 -1.0125 -0.3722 -0.5369
10813TIP3   OH253929   5.542   0.909  14.607 -0.0552 -0.7458 -0.3611
10813TIP3    H153930   5.550   0.978  14.672  0.1522 -1.3831  0.2886
10813TIP3    H253931   5.624   0.860  14.612 -0.4158 -1.3767 -0.4367
10814TIP3   OH253932   2.906   4.884  12.315  0.1148 -0.4134  0.5348
10814TIP3    H153933   2.985   4.843  12.280  0.5557  1.3850 -0.6511
10814TIP3    H253934   2.938   4.955  12.370 -0.6580  1.0758 -0.8849
10815TIP3   OH253935   5.248   2.912  12.850 -0.5773 -0.6803 -0.2007
10815TIP3    H153936   5.174   2.963  12.817  0.0757 -0.5631 -1.5225
10815TIP3    H253937   5.324   2.970  12.838 -0.2691 -0.7728  1.1904
10816TIP3   OH253938   2.090   4.927   2.923 -0.2226 -0.1062 -0.3949
10816TIP3    H153939   2.179   4.960   2.932  0.3146 -1.0288 -2.0301
10816TIP3    H253940   2.034   5.001   2.948  0.9832  0.2592  1.3039
10817TIP3   OH253941   4.527   6.101   3.430  0.6042  0.3348 -0.4942
10817TIP3    H153942   4.498   6.168   3.492 -0.7659 -0.5723 -0.1211
10817TIP3    H253943   4.587   6.147   3.371  0.9724  1.4900  0.7618
10818TIP3   OH253944   2.739   3.655   3.131  0.1182 -0.2733 -0.2160
10818TIP3    H153945   2.795   3.720   3.174 -0.5114 -0.3690  0.7593
10818TIP3    H253946   2.794   3.619   3.062  0.1718  1.9752 -1.4001
10819TIP3   OH253947   2.162   3.742   1.387  0.0736 -0.2863 -0.4034
10819TIP3    H153948   2.070   3.717   1.392 -0.6140  1.9192 -1.1097
10819TIP3    H253949   2.172   3.812   1.451  1.6765 -1.6272  0.8478
10820TIP3   OH253950   1.901   6.661  15.930 -0.7756 -0.7266  0.1552
10820TIP3    H153951   1.859   6.738  15.968  1.0896 -0.5691  1.9409
10820TIP3    H253952   1.848   6.587  15.960 -0.4249 -0.4430  1.5046
10821TIP3   OH253953   5.025   2.038  16.728  0.0520 -0.5466 -0.6811
10821TIP3    H153954   5.081   2.110  16.698 -1.5788  0.1756 -2.0906
10821TIP3    H253955   5.085   1.977  16.772  1.7246  0.8071 -1.0445
10822TIP3   OH253956   1.634   5.678   3.709 -0.5447 -0.1454  0.1885
10822TIP3    H153957   1.579   5.600   3.715 -0.1780 -0.4968 -0.8905
10822TIP3    H253958   1.687   5.676   3.789 -1.0198 -0.6338  0.4943
10823TIP3   OH253959   0.612   2.480   5.454 -0.0218  0.5079 -0.0031
10823TIP3    H153960   0.550   2.499   5.525  1.1631 -1.5431  1.6494
10823TIP3    H253961   0.686   2.537   5.471 -0.5321  1.3854 -0.7067
10824TIP3   OH253962   6.665   4.634   5.536 -0.2637 -0.2037  0.1858
10824TIP3    H153963   6.659   4.646   5.631  0.1206  0.0884  0.1775
10824TIP3    H253964   6.579   4.660   5.503 -1.1997 -2.6311  0.6739
10825TIP3   OH253965   5.316   3.504   0.871 -0.7497 -0.0897  0.9654
10825TIP3    H153966   5.225   3.495   0.899 -0.8452 -1.4923  0.2266
10825TIP3    H253967   5.320   3.592   0.832 -1.1794  0.9330  3.1346
10826TIP3   OH253968   4.056   6.695  13.413  0.1796  0.2743 -0.4149
10826TIP3    H153969   4.112   6.618  13.401  0.0639  0.0919  0.1766
10826TIP3    H253970   4.047   6.703  13.508 -1.9086 -0.5060 -0.5202
10827TIP3   OH253971   1.216   0.217  15.702 -0.0746 -0.3923 -0.1334
10827TIP3    H153972   1.260   0.165  15.635  0.4920 -0.0643 -0.0260
10827TIP3    H253973   1.185   0.295  15.656 -0.9079 -0.8193 -0.2906
10828TIP3   OH253974   6.189   3.494   0.642 -0.9453  0.5107 -0.3723
10828TIP3    H153975   6.128   3.456   0.706 -1.3718  2.4902  0.4133
10828TIP3    H253976   6.241   3.556   0.693  3.0895 -2.4610 -0.5884
10829TIP3   OH253977   3.371   6.498  14.200  0.2067 -0.7067  0.3252
10829TIP3    H153978   3.416   6.484  14.284  2.0052  2.1612 -0.0695
10829TIP3    H253979   3.439   6.534  14.142 -1.9491  1.2512 -1.1156
10830TIP3   OH253980   2.981   4.929   0.563  0.4158  0.4585  0.2790
10830TIP3    H153981   3.044   4.977   0.617 -1.4606  0.6024  2.4055
10830TIP3    H253982   2.946   4.995   0.503  0.2438  1.0378  0.9983
10831TIP3   OH253983   2.105   4.793   5.860  0.1150 -0.4884  1.4243
10831TIP3    H153984   2.130   4.868   5.807  0.4249 -0.5048  1.5424
10831TIP3    H253985   2.076   4.727   5.796 -1.2302  0.1223  1.3938
10832TIP3   OH253986   6.680   5.306   0.146 -0.1960  0.5598 -1.0257
10832TIP3    H153987   6.628   5.276   0.220  0.8256 -1.5723 -1.1224
10832TIP3    H253988   6.617   5.317   0.075 -1.1338  2.3239  0.0706
10833TIP3   OH253989   2.133   3.301  13.331  0.2411  0.1698  0.2241
10833TIP3    H153990   2.151   3.322  13.240 -0.0138 -0.8418 -0.0643
10833TIP3    H253991   2.070   3.229  13.328 -0.5875  0.8364  1.2085
10834TIP3   OH253992   2.384   5.218  14.118 -0.7756 -0.6575  0.5180
10834TIP3    H153993   2.310   5.225  14.178 -0.1188 -1.2197  1.3904
10834TIP3    H253994   2.345   5.189  14.036 -1.7799  0.8164  0.4440
10835TIP3   OH253995   0.526   6.096   0.888 -0.0734  0.4110  0.1109
10835TIP3    H153996   0.550   6.130   0.974  1.0153 -1.1432  0.4530
10835TIP3    H253997   0.575   6.014   0.881 -1.1179 -0.0911 -1.4755
10836TIP3   OH253998   2.347   5.565   0.832  0.2351 -0.2625 -0.3951
10836TIP3    H153999   2.441   5.574   0.848  0.0686 -0.1533  0.5245
10836TIP3    H254000   2.332   5.614   0.751  0.9828 -0.3669 -0.6044
10837TIP3   OH254001   0.098   5.664   1.658  0.0465  0.2717 -0.7059
10837TIP3    H154002   0.050   5.741   1.689  1.2834  1.1004 -0.8112
10837TIP3    H254003   0.112   5.611   1.736  2.9464  2.2389  0.2150
10838TIP3   OH254004   5.310   4.763   5.385  0.5531  0.0497  0.4458
10838TIP3    H154005   5.371   4.735   5.453  0.6787 -0.8616 -0.0298
10838TIP3    H254006   5.226   4.771   5.430  0.8209  0.3448  0.8981
10839TIP3   OH254007   1.730   0.458  11.751 -0.3890 -0.4814 -0.4189
10839TIP3    H154008   1.703   0.366  11.743  0.3876 -0.5709 -2.1217
10839TIP3    H254009   1.688   0.501  11.677  0.9086  0.1484 -0.7887
10840TIP3   OH254010   1.727   6.591  11.898  0.5471 -0.0905  0.0590
10840TIP3    H154011   1.742   6.684  11.882  2.3214 -0.2899  0.4575
10840TIP3    H254012   1.770   6.548  11.824 -0.1237 -0.6145 -0.0306
10841TIP3   OH254013   1.309   0.381  12.406  0.2584 -0.0408  0.1019
10841TIP3    H154014   1.257   0.377  12.487 -1.2208  0.5864 -0.7869
10841TIP3    H254015   1.296   0.471  12.375 -0.3695 -0.7078 -1.5947
10842TIP3   OH254016   0.372   1.875  14.778 -0.6725 -0.1101  0.0501
10842TIP3    H154017   0.395   1.941  14.712 -0.8331  0.9776  1.0631
10842TIP3    H254018   0.317   1.812  14.731 -1.0617  0.8280 -0.7814
10843TIP3   OH254019   0.051   2.915  13.297 -0.0734 -0.2002 -0.6337
10843TIP3    H154020   0.122   2.856  13.272  1.1285  0.6440  0.7309
10843TIP3    H254021   0.033   2.894  13.388  2.0425  3.1195  0.6634
10844TIP3   OH254022   5.392   5.251  13.998  0.5296  0.4578 -0.3793
10844TIP3    H154023   5.447   5.206  14.063  1.0411  0.7822 -0.5800
10844TIP3    H254024   5.438   5.239  13.915  1.4958  2.6483 -0.1989
10845TIP3   OH254025   4.897   4.278   1.339 -0.3063  0.1853  0.1676
10845TIP3    H154026   4.954   4.352   1.318 -0.0986 -0.4116 -1.4747
10845TIP3    H254027   4.826   4.316   1.390  1.0575  1.0943  1.4229
10846TIP3   OH254028   6.227   0.938   6.010  0.5557 -0.2931 -0.0954
10846TIP3    H154029   6.260   1.028   6.018 -0.2932  0.0952 -0.7935
10846TIP3    H254030   6.283   0.886   6.067  2.1838  0.3789 -1.0636
10847TIP3   OH254031   1.003   5.830   2.837 -0.3906 -0.0427  0.1401
10847TIP3    H154032   0.928   5.772   2.828  0.3140 -1.0634  0.7708
10847TIP3    H254033   0.977   5.893   2.904  0.0420 -1.5907  1.8025
10848TIP3   OH254034   3.092   0.157  11.808 -0.1306 -0.0271  0.2195
10848TIP3    H154035   3.022   0.175  11.745 -1.5319  0.2554  1.8317
10848TIP3    H254036   3.077   0.066  11.836  0.6486 -0.2409 -0.0260
10849TIP3   OH254037   4.979   2.726  13.101  0.0080 -0.6410  0.2035
10849TIP3    H154038   5.009   2.813  13.127 -0.6817 -0.5006  0.5618
10849TIP3    H254039   4.885   2.737  13.086  0.6711 -0.1855 -4.5560
10850TIP3   OH254040   3.138   6.240  15.290 -0.4802 -0.0116 -0.1245
10850TIP3    H154041   3.111   6.332  15.288  0.1947  0.2053  0.4662
10850TIP3    H254042   3.081   6.201  15.357 -0.8755 -0.0594 -0.4894
10851TIP3   OH254043   2.617   3.147  15.918  0.2044 -0.2800  0.1084
10851TIP3    H154044   2.532   3.106  15.932 -0.5852  0.7410 -1.5251
10851TIP3    H254045   2.679   3.075  15.916 -0.2843 -0.8692  3.5967
10852TIP3   OH254046   2.008   2.499  12.429  0.6482  0.0645 -0.0765
10852TIP3    H154047   1.984   2.588  12.455  0.6055  0.6609 -2.0516
10852TIP3    H254048   1.924   2.457  12.410  0.7509  0.0039 -0.3912
10853TIP3   OH254049   0.638   1.399  12.433 -0.8434  0.5963  0.3133
10853TIP3    H154050   0.650   1.304  12.439  0.3809  0.8193  1.5363
10853TIP3    H254051   0.693   1.425  12.359  1.1213  0.7184  1.7752
10854TIP3   OH254052   2.214   2.290  14.516 -0.5965  0.3167  0.2501
10854TIP3    H154053   2.130   2.316  14.476 -0.9286 -0.2117  0.5969
10854TIP3    H254054   2.193   2.277  14.608 -0.6830 -2.1857 -0.0783
10855TIP3   OH254055   3.260   4.428   0.842 -0.2814 -0.2336  0.8210
10855TIP3    H154056   3.307   4.497   0.889  1.2522 -2.1779  2.1995
10855TIP3    H254057   3.274   4.448   0.749  0.3498  1.1597  1.2060
10856TIP3   OH254058   1.969   1.765  11.856  0.1031  0.4618 -0.4792
10856TIP3    H154059   1.909   1.801  11.790 -0.6561  0.8446  0.4187
10856TIP3    H254060   1.937   1.676  11.871  1.2490 -0.1891 -1.8053
10857TIP3   OH254061   5.578   5.283  11.334  0.2525 -0.6129 -0.0780
10857TIP3    H154062   5.630   5.336  11.273  0.2203 -0.4649  0.0235
10857TIP3    H254063   5.561   5.342  11.408  1.1227 -1.0924  0.5134
10858TIP3   OH254064   0.906   5.973  14.134  0.5342 -0.1580  0.4204
10858TIP3    H154065   0.983   6.027  14.115 -1.1499  2.3354  0.4626
10858TIP3    H254066   0.927   5.888  14.096  2.1301  1.3017 -2.1582
10859TIP3   OH254067   1.468   4.651  14.613 -0.3577  0.4919 -0.0739
10859TIP3    H154068   1.474   4.671  14.519  1.5074  1.0313  0.1479
10859TIP3    H254069   1.513   4.567  14.623 -1.8088 -0.2872  0.1416
10860TIP3   OH254070   5.712   6.098  12.493 -0.1094  0.2817  0.3996
10860TIP3    H154071   5.661   6.054  12.424 -2.2441  0.1397  2.0427
10860TIP3    H254072   5.748   6.026  12.545  0.3961  0.4198  0.2482
10861TIP3   OH254073   0.712   4.799   3.520  0.0298 -0.1157 -0.1573
10861TIP3    H154074   0.657   4.800   3.598 -0.0832 -0.4160 -0.2319
10861TIP3    H254075   0.743   4.889   3.511  1.7743 -0.5408  1.4576
10862TIP3   OH254076   5.233   6.688  16.664  0.0985 -0.8176 -0.2900
10862TIP3    H154077   5.328   6.695  16.676  0.1141  0.1213 -0.9545
10862TIP3    H254078   5.202   6.778  16.659 -0.6807 -1.1324 -1.3268
10863TIP3   OH254079   5.470   5.685  11.252  0.4216  0.4718  0.1168
10863TIP3    H154080   5.389   5.705  11.206  0.1409 -0.7349  0.0783
10863TIP3    H254081   5.449   5.699  11.345  0.6116  1.6048  0.0049
10864TIP3   OH254082   2.748   4.481   1.341  0.9409 -0.4466 -0.1305
10864TIP3    H154083   2.793   4.530   1.410 -2.1372  1.2850  0.7305
10864TIP3    H254084   2.717   4.401   1.384 -1.0868  0.6910  0.5852
10865TIP3   OH254085   0.235   2.458  12.909  0.4747  0.2878  0.3863
10865TIP3    H154086   0.300   2.478  12.977  0.0151  0.0330  0.9012
10865TIP3    H254087   0.280   2.396  12.851  0.0419 -1.3677  1.8013
10866TIP3   OH254088   2.251   4.971   1.335  0.4177 -0.3048  0.2163
10866TIP3    H154089   2.189   5.000   1.402 -0.4031 -0.5186 -0.4393
10866TIP3    H254090   2.201   4.910   1.281  1.6413 -1.6887  0.5905
10867TIP3   OH254091   1.736   0.919   1.413 -0.4451  0.2590 -1.0082
10867TIP3    H154092   1.786   0.907   1.494 -1.5885 -1.8933 -0.5833
10867TIP3    H254093   1.787   0.983   1.363  1.9477 -0.7329  0.0648
10868TIP3   OH254094   6.467   1.708   4.415 -0.1604 -0.0349 -0.0549
10868TIP3    H154095   6.436   1.630   4.369 -0.6212 -0.5870  1.1838
10868TIP3    H254096   6.500   1.765   4.345  1.4386 -1.8868 -0.8677
10869TIP3   OH254097   0.868   1.089  16.003  0.1294  0.0509 -0.1522
10869TIP3    H154098   0.910   1.066  16.086  1.0558  1.1872 -0.2818
10869TIP3    H254099   0.777   1.106  16.026 -0.2593 -2.3530  0.1548
10870TIP3   OH254100   5.672   0.832  15.183 -0.0245 -0.0449 -0.2509
10870TIP3    H154101   5.664   0.847  15.277  0.3457 -1.4766  0.0208
10870TIP3    H254102   5.754   0.876  15.159  0.3708 -0.4835  0.2753
10871TIP3   OH254103   0.204   0.484  12.032 -0.1293 -0.1652 -0.0869
10871TIP3    H154104   0.130   0.441  11.989  0.8736 -1.1909 -0.8174
10871TIP3    H254105   0.165   0.556  12.081 -1.8004 -1.5720  0.7111
10872TIP3   OH254106   0.672   0.148   5.887 -0.5844 -0.3019  0.0707
10872TIP3    H154107   0.670   0.147   5.791 -0.2377  0.8863  0.0431
10872TIP3    H254108   0.597   0.201   5.912  0.8073  1.5729  0.3720
10873TIP3   OH254109   6.567   6.178  14.632  0.1851  0.8923 -0.4216
10873TIP3    H154110   6.630   6.190  14.561  0.6073  1.4838  0.0525
10873TIP3    H254111   6.611   6.120  14.694 -0.8975 -1.1946 -1.5184
10874TIP3   OH254112   2.494   2.726   0.194  0.5148 -0.1185  0.0551
10874TIP3    H154113   2.561   2.727   0.262  0.8937  1.7438 -0.3229
10874TIP3    H254114   2.536   2.765   0.117 -0.7247  0.2831 -0.4326
10875TIP3   OH254115   4.872   1.158  16.567  0.1344  0.0047  0.1925
10875TIP3    H154116   4.903   1.120  16.484 -0.1432 -1.7942  0.8899
10875TIP3    H254117   4.903   1.248  16.565  0.0388  0.0315 -1.9350
10876TIP3   OH254118   3.887   2.619  14.939  0.5605  0.2810  0.2280
10876TIP3    H154119   3.937   2.636  14.859  1.5163 -1.2449  0.4748
10876TIP3    H254120   3.798   2.647  14.917  1.4265  2.6990 -0.3210
10877TIP3   OH254121   2.363   3.656   3.414  0.0295  0.3986 -0.1844
10877TIP3    H154122   2.444   3.650   3.363 -0.0572  0.9459 -0.3925
10877TIP3    H254123   2.313   3.578   3.389 -0.6022  1.3618 -1.9805
10878TIP3   OH254124   5.862   4.478  13.523 -0.2389 -0.0564 -0.9800
10878TIP3    H154125   5.791   4.474  13.459  0.1631  1.2159 -1.5177
10878TIP3    H254126   5.937   4.438  13.477  0.4137  2.0732 -1.8180
10879TIP3   OH254127   1.098   2.781  15.240  0.2536  0.6886  0.4375
10879TIP3    H154128   1.120   2.864  15.198 -0.0767 -0.3845 -1.9356
10879TIP3    H254129   1.061   2.728  15.170  0.8978 -1.6361  1.8033
10880TIP3   OH254130   4.932   2.146  12.821  0.2405 -0.0631 -0.0803
10880TIP3    H154131   4.986   2.217  12.787 -0.7180  0.7438  0.0740
10880TIP3    H254132   4.913   2.091  12.745  1.6332 -0.5923 -0.0506
10881TIP3   OH254133   6.719   6.043   0.407 -0.0285 -0.8312 -0.9782
10881TIP3    H154134   6.764   6.105   0.350 -0.8302  1.3336  0.7197
10881TIP3    H254135   6.631   6.079   0.419 -0.5931 -2.4104 -0.1507
10882TIP3   OH254136   5.685   0.678   0.667  0.5379 -0.1637 -0.4944
10882TIP3    H154137   5.707   0.763   0.705  0.4495 -0.6058  0.5665
10882TIP3    H254138   5.765   0.651   0.623  0.8283  0.1016 -0.1403
10883TIP3   OH254139   0.233   2.727  13.186 -0.3060  0.1715  0.2651
10883TIP3    H154140   0.292   2.653  13.198 -0.9651 -0.2948  0.6937
10883TIP3    H254141   0.181   2.704  13.109 -2.1059 -0.9097  1.7467
10884TIP3   OH254142   2.576   4.542   4.878  0.2983  0.0241  0.1280
10884TIP3    H154143   2.486   4.553   4.907  0.4606 -0.0080  0.6459
10884TIP3    H254144   2.574   4.565   4.785 -0.1739  0.3697  0.2218
10885TIP3   OH254145   5.541   2.747   2.325 -0.6058 -0.0245  0.0419
10885TIP3    H154146   5.569   2.659   2.300  0.6354  0.7727 -1.4533
10885TIP3    H254147   5.597   2.769   2.399  0.0096  0.0236 -0.4353
10886TIP3   OH254148   4.397   4.246   2.064 -0.3675 -0.0892 -0.2922
10886TIP3    H154149   4.369   4.332   2.031 -0.5519 -0.6218 -1.5501
10886TIP3    H254150   4.475   4.225   2.013  1.2740  0.5219  1.8747
10887TIP3   OH254151   4.472   2.179  16.655 -0.3068  0.5434  0.3460
10887TIP3    H154152   4.449   2.090  16.629 -1.1138  0.6522  0.6876
10887TIP3    H254153   4.426   2.236  16.593 -1.3544  0.7720  1.3155
10888TIP3   OH254154   3.332   5.033  10.950  0.2459 -0.3346 -0.1129
10888TIP3    H154155   3.254   5.021  10.897  0.6730 -0.2897 -0.7545
10888TIP3    H254156   3.364   4.944  10.967  0.0581 -0.3530  0.1502
10889TIP3   OH254157   6.108   3.874   4.336 -0.1214 -0.5117 -0.1015
10889TIP3    H154158   6.168   3.923   4.392  0.3702  0.5557 -1.5282
10889TIP3    H254159   6.131   3.782   4.350 -0.4771 -0.3191  1.9657
10890TIP3   OH254160   1.141   5.304  17.122  0.1429  0.4789 -0.3004
10890TIP3    H154161   1.171   5.242  17.189  1.3935  0.5312 -0.7893
10890TIP3    H254162   1.079   5.254  17.069 -1.7413  0.7663  1.5572
10891TIP3   OH254163   6.218   6.721   3.681  0.2155 -0.3912 -0.1646
10891TIP3    H154164   6.299   6.682   3.648 -0.4292 -2.6392  0.7397
10891TIP3    H254165   6.247   6.787   3.744  1.3675 -1.8190  0.8536
10892TIP3   OH254166   0.373   5.695   1.438 -0.0880 -0.4384 -0.3054
10892TIP3    H154167   0.289   5.741   1.434 -0.8490 -1.8386 -1.0512
10892TIP3    H254168   0.429   5.751   1.491 -0.9754  1.3446 -1.2191
10893TIP3   OH254169   0.382   1.210   4.844 -0.1546  0.1402  0.4335
10893TIP3    H154170   0.318   1.164   4.790  0.0816 -1.9468  1.8401
10893TIP3    H254171   0.462   1.211   4.791  0.1097 -1.9875  0.7437
10894TIP3   OH254172   2.601   2.076  15.638  0.1718 -0.6002 -0.5423
10894TIP3    H154173   2.657   2.064  15.715 -1.0335  0.4189  0.5072
10894TIP3    H254174   2.637   2.153  15.593  0.9761 -1.2930 -1.1075
10895TIP3   OH254175   0.499   0.572  17.127  0.0318  0.9285  0.4536
10895TIP3    H154176   0.590   0.600  17.138 -0.5920  2.3693  2.3293
10895TIP3    H254177   0.492   0.490  17.175  0.8037 -0.1768 -1.3175
10896TIP3   OH254178   0.766   1.944   2.605  0.0747  0.0565  0.1018
10896TIP3    H154179   0.767   1.856   2.566 -0.4803  0.1812 -0.1944
10896TIP3    H254180   0.857   1.960   2.630  0.0384 -0.9200  0.8731
10897TIP3   OH254181   3.652   0.411   1.328  0.1215  0.0615  0.1023
10897TIP3    H154182   3.721   0.461   1.373 -0.2632 -0.3985  1.2260
10897TIP3    H254183   3.679   0.320   1.339 -0.1756 -0.0716 -0.2804
10898TIP3   OH254184   0.387   0.612   2.226  0.3906 -0.1704  0.4502
10898TIP3    H154185   0.312   0.662   2.258 -0.5904 -0.5954 -1.1130
10898TIP3    H254186   0.381   0.528   2.271  1.2426  0.5894  2.0273
10899TIP3   OH254187   5.854   1.093  13.055  0.1644 -0.3970 -0.1218
10899TIP3    H154188   5.786   1.066  12.994 -0.3772  1.7515 -0.4757
10899TIP3    H254189   5.810   1.099  13.140  0.5291 -1.6375  0.1690
10900TIP3   OH254190   3.497   4.336  12.833 -0.1443 -0.0452 -0.3616
10900TIP3    H154191   3.436   4.409  12.825 -1.0847 -0.9632 -1.7611
10900TIP3    H254192   3.527   4.319  12.743  1.9980  0.2301  0.2649
10901TIP3   OH254193   1.471   6.419   7.048  0.1825 -0.0606  0.1224
10901TIP3    H154194   1.479   6.395   6.955 -0.2592  1.0744 -0.2187
10901TIP3    H254195   1.403   6.361   7.081  1.3169 -1.4450  0.0973
10902TIP3   OH254196   3.343   3.770  12.815  0.1607 -0.0489  0.9208
10902TIP3    H154197   3.387   3.834  12.871  0.3214 -1.6081  2.6252
10902TIP3    H254198   3.413   3.735  12.759  0.2473  0.5724  0.6374
10903TIP3   OH254199   2.500   4.881  14.406 -0.0229 -0.0595 -0.4403
10903TIP3    H154200   2.533   4.817  14.469 -1.3493  0.2869  0.6427
10903TIP3    H254201   2.495   4.834  14.323  0.0892 -1.0195  0.0950
10904TIP3   OH254202   6.694   4.820   0.941  0.2171 -0.4994  0.2629
10904TIP3    H154203   6.787   4.796   0.951  0.2049 -0.8017 -0.3249
10904TIP3    H254204   6.647   4.739   0.960  0.1341 -0.7039 -0.7940
10905TIP3   OH254205   5.953   6.351  11.672  0.1172 -0.2660  0.8218
10905TIP3    H154206   5.929   6.262  11.699 -0.8313 -0.2146  0.1542
10905TIP3    H254207   5.965   6.398  11.755 -0.3063 -0.7644  1.1716
10906TIP3   OH254208   5.818   1.524  11.539  0.0088 -0.3120 -0.4660
10906TIP3    H154209   5.902   1.565  11.558  0.4557 -1.1647 -0.5756
10906TIP3    H254210   5.828   1.433  11.569 -1.0668 -0.2680  0.0589
10907TIP3   OH254211   5.968   6.192   5.523  0.0607 -0.0987 -0.5814
10907TIP3    H154212   6.015   6.222   5.601 -0.2241 -0.1660 -0.3833
10907TIP3    H254213   5.979   6.264   5.460 -0.5554  0.3933 -0.1319
10908TIP3   OH254214   6.547   3.641  17.160  0.6481  0.0371 -0.1930
10908TIP3    H154215   6.503   3.721  17.189  1.4582  0.3146  0.2761
10908TIP3    H254216   6.592   3.608  17.238 -0.9612 -1.7492  0.0372
10909TIP3   OH254217   1.806   0.036  14.965 -0.0522 -0.5189  0.3459
10909TIP3    H154218   1.798  -0.060  14.964 -0.3284 -0.4953 -1.0640
10909TIP3    H254219   1.720   0.066  14.994  0.3748 -0.7220  1.8433
10910TIP3   OH254220   6.329   0.484  12.635 -0.0744 -0.3215  0.0774
10910TIP3    H154221   6.298   0.440  12.556 -1.8759  0.1811  0.4707
10910TIP3    H254222   6.299   0.575  12.624 -0.4967 -0.2976  1.4070
10911TIP3   OH254223   5.133   5.348   1.732  0.6304  0.2784 -0.0044
10911TIP3    H154224   5.070   5.299   1.678  0.4811  1.3855 -0.8461
10911TIP3    H254225   5.203   5.371   1.671  1.5050 -0.3179  0.7729
10912TIP3   OH254226   1.493   1.790  14.875  0.2066 -0.0393  0.5134
10912TIP3    H154227   1.409   1.743  14.875  0.9781 -1.4965  2.0665
10912TIP3    H254228   1.482   1.859  14.810 -1.0325 -2.3099 -1.7704
10913TIP3   OH254229   4.275   0.643  16.601 -0.1751  0.1015 -0.7599
10913TIP3    H154230   4.295   0.565  16.549  2.7537  1.4014 -1.6519
10913TIP3    H254231   4.206   0.687  16.553 -0.5992 -1.0056 -1.1851
10914TIP3   OH254232   1.959   5.797   5.384  0.0582  0.2177  0.3504
10914TIP3    H154233   1.940   5.830   5.471 -0.0597  0.1979  0.3321
10914TIP3    H254234   1.952   5.701   5.392  1.5500  0.1120  0.6940
10915TIP3   OH254235   5.819   4.877  14.310  0.1770  0.6616 -0.0701
10915TIP3    H154236   5.894   4.916  14.266 -0.7760  1.3240 -1.1262
10915TIP3    H254237   5.855   4.801  14.355  1.2263  0.0542 -1.8698
10916TIP3   OH254238   1.505   0.828   2.656 -0.0137  0.1388  0.0629
10916TIP3    H154239   1.544   0.758   2.708 -1.4113 -0.5102  0.2657
10916TIP3    H254240   1.472   0.783   2.578  1.9465  1.0818 -1.3396
10917TIP3   OH254241   0.910   4.778  12.534  0.1993  0.5882 -0.1327
10917TIP3    H154242   0.853   4.716  12.580  2.2994 -1.3755 -0.1150
10917TIP3    H254243   0.910   4.748  12.443  1.1855  0.5996 -0.1404
10918TIP3   OH254244   5.778   4.101   0.959 -0.4964  0.2568 -0.1318
10918TIP3    H154245   5.758   4.152   1.037 -0.8728  0.7795 -0.5633
10918TIP3    H254246   5.695   4.096   0.911 -0.7653 -1.8017  0.4871
10919TIP3   OH254247   3.128   5.681  12.205  0.0986  0.1729  0.2688
10919TIP3    H154248   3.118   5.589  12.181  0.9614  0.3689 -0.8973
10919TIP3    H254249   3.213   5.685  12.249  0.2634  0.4840 -0.0749
10920TIP3   OH254250   4.723   1.389  11.842 -0.0562  0.3579  0.2593
10920TIP3    H154251   4.807   1.405  11.800 -0.3415 -1.8897 -1.2766
10920TIP3    H254252   4.744   1.334  11.918 -0.0163  0.8054  0.5743
10921TIP3   OH254253   3.090   1.067   5.253 -0.0725 -0.1419 -0.1448
10921TIP3    H154254   3.101   1.160   5.232 -2.5424  0.3356  0.4709
10921TIP3    H254255   3.177   1.030   5.245  0.9936  2.2829 -0.1987
10922TIP3   OH254256   1.367   2.316   0.975 -0.0123  0.2075  0.3516
10922TIP3    H154257   1.383   2.384   0.909  0.6660  1.3414  1.6479
10922TIP3    H254258   1.325   2.363   1.047 -0.9964 -1.0700  0.6242
10923TIP3   OH254259   6.346   2.724   4.466 -0.1733 -0.2682 -0.2317
10923TIP3    H154260   6.398   2.735   4.546 -0.7209  0.0614  0.0818
10923TIP3    H254261   6.358   2.633   4.442  1.9422  0.2093 -1.1156
10924TIP3   OH254262   5.990   1.834  15.857  0.1494  0.5148  0.6365
10924TIP3    H154263   6.058   1.766  15.855 -1.2685 -0.8931 -0.6895
10924TIP3    H254264   5.985   1.866  15.767  1.0874  2.7355  1.3151
10925TIP3   OH254265   2.631   0.288   3.817 -0.2480 -0.3658  0.1014
10925TIP3    H154266   2.663   0.262   3.730  1.4345  1.4049  0.1338
10925TIP3    H254267   2.701   0.343   3.852 -1.3127 -0.3144  2.2190
10926TIP3   OH254268   2.811   4.065   1.608  0.3937  0.3982 -0.3157
10926TIP3    H154269   2.878   4.013   1.564  0.7230 -0.8427  1.5728
10926TIP3    H254270   2.773   4.006   1.673  0.3455  2.3029  1.4613
10927TIP3   OH254271   5.028   4.200  13.224 -0.2802  0.5724 -0.3473
10927TIP3    H154272   5.056   4.248  13.302  0.9807  1.4580 -1.3163
10927TIP3    H254273   4.934   4.216  13.218 -1.2863 -3.0506  3.3753
10928TIP3   OH254274   5.780   1.433  15.676  0.4713  0.1174 -0.0525
10928TIP3    H154275   5.750   1.512  15.723  3.0139  1.3919 -0.4917
10928TIP3    H254276   5.699   1.389  15.650 -1.0331  2.7933 -0.1268
10929TIP3   OH254277   1.653   6.782  13.818  0.5091  0.2623  0.3885
10929TIP3    H154278   1.730   6.824  13.779 -0.1116  0.5942 -0.4730
10929TIP3    H254279   1.673   6.688  13.816  0.1018  0.2064 -1.5511
10930TIP3   OH254280   1.653   0.880   0.396  0.0934  0.0360 -1.3836
10930TIP3    H154281   1.607   0.796   0.396  1.3544 -0.6942  0.3948
10930TIP3    H254282   1.731   0.865   0.342 -0.5318  0.5701 -2.4444
10931TIP3   OH254283   3.330   1.836   3.221  0.1003  0.4990 -0.7861
10931TIP3    H154284   3.290   1.749   3.234  2.1376 -0.3733 -0.1233
10931TIP3    H254285   3.413   1.817   3.177  0.6862  2.0947 -0.3823
10932TIP3   OH254286   4.850   6.164  15.873 -0.4166 -0.5253  0.2662
10932TIP3    H154287   4.767   6.158  15.827  0.3509 -3.5263 -0.8588
10932TIP3    H254288   4.843   6.101  15.944  0.5818 -0.1738  0.6861
10933TIP3   OH254289   2.706   4.249   1.025  0.1859  0.0029 -0.3285
10933TIP3    H154290   2.617   4.258   1.061 -0.1759 -0.5435 -1.0716
10933TIP3    H254291   2.757   4.214   1.098 -0.6585 -1.5933 -0.4899
10934TIP3   OH254292   6.757   1.736  15.106 -0.2347 -0.6584  0.1235
10934TIP3    H154293   6.681   1.690  15.072 -0.3328 -0.6457  0.3265
10934TIP3    H254294   6.805   1.670  15.157 -1.6487  0.0558  2.4497
10935TIP3   OH254295   1.317   2.146  12.782 -0.6239  0.3769  0.7952
10935TIP3    H154296   1.368   2.191  12.715  0.1614  0.0266  1.1505
10935TIP3    H254297   1.264   2.083  12.733  0.5202 -0.4219  0.5650
10936TIP3   OH254298   3.788   5.731  10.379  0.6376  0.0966 -0.0451
10936TIP3    H154299   3.798   5.691  10.466  0.0730 -1.3697 -0.6301
10936TIP3    H254300   3.872   5.715  10.335  0.4759 -0.3209 -0.2129
10937TIP3   OH254301   1.776   0.213  11.189  0.3716  0.5780 -0.1942
10937TIP3    H154302   1.713   0.197  11.119  1.0269 -2.3914 -0.1912
10937TIP3    H254303   1.723   0.229  11.267 -0.3729  0.1564 -0.6136
10938TIP3   OH254304   2.085   6.127   0.666 -0.6791  0.2472 -0.5252
10938TIP3    H154305   2.121   6.093   0.584 -0.3127 -0.1566 -0.2025
10938TIP3    H254306   2.149   6.101   0.733 -1.4040 -0.2007  0.0118
10939TIP3   OH254307   6.095   3.275   3.957 -0.0959  0.1979 -0.3578
10939TIP3    H154308   6.072   3.226   4.036  2.8658  0.1605  0.5312
10939TIP3    H254309   6.010   3.296   3.917 -1.5696 -1.8271  1.5460
10940TIP3   OH254310   0.841   1.919  11.376  0.2012 -0.0986  0.3578
10940TIP3    H154311   0.870   1.836  11.414  1.9239  1.3790  2.4109
10940TIP3    H254312   0.918   1.951  11.328 -0.2235  0.6565  0.1756
10941TIP3   OH254313   2.357   3.310   2.755  0.1862  0.6933 -0.5990
10941TIP3    H154314   2.367   3.220   2.788 -2.2746  0.0309 -1.4917
10941TIP3    H254315   2.436   3.325   2.704  0.4960 -1.1072 -0.7050
10942TIP3   OH254316   6.424   0.557  14.742  0.2825 -0.3938 -0.3001
10942TIP3    H154317   6.371   0.557  14.822  0.9190  0.5855  0.1215
10942TIP3    H254318   6.378   0.618  14.684  1.4082  1.1266  0.3805
10943TIP3   OH254319   6.107   0.236   6.213  0.2436  0.0948 -0.4826
10943TIP3    H154320   6.143   0.324   6.224  1.2500 -0.2418 -0.9609
10943TIP3    H254321   6.124   0.193   6.297  0.9283 -0.0421 -0.6835
10944TIP3   OH254322   0.655   0.451   2.735  0.7827  0.2564 -0.3917
10944TIP3    H154323   0.584   0.498   2.778 -0.7443 -1.2688 -1.1740
10944TIP3    H254324   0.713   0.519   2.702 -0.2361  1.5150  0.3932
10945TIP3   OH254325   0.813   5.921  16.141 -0.3573 -0.1810 -0.4358
10945TIP3    H154326   0.895   5.887  16.106  0.3852  1.5142 -0.3654
10945TIP3    H254327   0.826   5.924  16.236 -0.4847  0.1125 -0.4265
10946TIP3   OH254328   1.097   5.072  15.499  0.1013  0.3607  0.0946
10946TIP3    H154329   1.148   5.000  15.463 -0.4545 -0.4498  0.8971
10946TIP3    H254330   1.007   5.041  15.497 -0.1412  1.0158  0.4929
10947TIP3   OH254331   6.560   0.939  11.468 -0.4635  0.5334  0.4166
10947TIP3    H154332   6.596   0.895  11.391 -1.1238  1.2735 -0.3193
10947TIP3    H254333   6.637   0.963  11.520  0.0091  0.4535 -0.2428
10948TIP3   OH254334   2.543   1.570  12.487  0.2442  0.5473 -0.3452
10948TIP3    H154335   2.470   1.625  12.515 -0.9882 -0.0170 -2.3787
10948TIP3    H254336   2.515   1.480  12.505  0.3477  0.3172 -1.2875
10949TIP3   OH254337   6.519   1.858   1.542 -0.5605 -0.7677 -0.1517
10949TIP3    H154338   6.605   1.819   1.556  0.5305  1.7191  0.4985
10949TIP3    H254339   6.491   1.826   1.457  1.1194 -1.4216 -0.4766
10950TIP3   OH254340   6.181   5.361  13.888  0.0763 -0.3453 -0.1442
10950TIP3    H154341   6.209   5.319  13.806  0.2751 -1.0787  0.2935
10950TIP3    H254342   6.123   5.432  13.860  0.0948 -0.6313 -0.9221
10951TIP3   OH254343   4.073   1.872   2.997  0.2880 -0.0036 -0.6756
10951TIP3    H154344   4.071   1.893   2.903  1.9411 -0.3124 -0.7971
10951TIP3    H254345   4.111   1.785   3.001 -0.3582 -0.2481  0.2596
10952TIP3   OH254346   5.956   1.517  16.304  0.1348 -0.2681 -0.9151
10952TIP3    H154347   5.912   1.476  16.379 -0.0427 -1.4311 -1.6312
10952TIP3    H254348   5.907   1.484  16.228  1.9644 -1.2485 -1.7010
10953TIP3   OH254349   3.022   3.657  12.790 -0.1330 -0.0055  0.0542
10953TIP3    H154350   2.967   3.691  12.720 -0.7033 -1.9913 -0.4660
10953TIP3    H254351   3.103   3.708  12.783 -0.8071  0.9487 -0.9743
10954TIP3   OH254352   2.434   0.566   6.157 -0.2951 -0.3002 -0.2746
10954TIP3    H154353   2.519   0.590   6.194 -0.1960  0.3872 -0.9334
10954TIP3    H254354   2.372   0.578   6.229  0.0442  0.0259 -0.0352
10955TIP3   OH254355   2.461   6.567  13.410 -0.0765 -0.4265  0.3378
10955TIP3    H154356   2.510   6.626  13.352 -1.7302 -1.2248 -1.9636
10955TIP3    H254357   2.515   6.489  13.417  0.7514  0.1985  0.9704
10956TIP3   OH254358   5.272   6.128   6.488 -0.1319  0.4454  0.1565
10956TIP3    H154359   5.208   6.138   6.559 -0.2917  1.1440 -0.0817
10956TIP3    H254360   5.219   6.135   6.408  0.0532 -0.2972 -0.0276
10957TIP3   OH254361   2.485   5.024   2.486  0.3235  0.5206  0.0879
10957TIP3    H154362   2.467   5.085   2.414  0.9528 -0.2051 -0.7079
10957TIP3    H254363   2.482   4.938   2.445 -0.3846  0.0284  1.1679
10958TIP3   OH254364   1.501   4.516  13.491  0.2872  0.3111 -0.0663
10958TIP3    H154365   1.558   4.540  13.418  0.6611  2.1188  0.8028
10958TIP3    H254366   1.470   4.599  13.526 -1.7253 -0.6206  0.4106
10959TIP3   OH254367   3.036   4.917  14.339 -0.2244 -0.5950 -0.3770
10959TIP3    H154368   3.078   4.872  14.413  1.2972  0.2411 -0.7234
10959TIP3    H254369   3.055   4.862  14.263  0.1263 -0.2945 -0.5090
10960TIP3   OH254370   0.741   5.972  14.384 -0.4478  0.1553 -0.1095
10960TIP3    H154371   0.795   5.998  14.310  2.2387  0.1661  1.7677
10960TIP3    H254372   0.703   6.053  14.416 -0.3462  0.3556 -0.4949
10961TIP3   OH254373   6.695   5.009  13.841 -0.1668  0.3074  0.0229
10961TIP3    H154374   6.618   5.061  13.865  1.1133  1.7130  1.1785
10961TIP3    H254375   6.672   4.971  13.757 -1.8341  1.3256 -0.0176
10962TIP3   OH254376   4.578   2.513  12.353 -0.0029  0.1310  0.0775
10962TIP3    H154377   4.520   2.553  12.418  0.4720  1.0127 -0.0331
10962TIP3    H254378   4.548   2.422  12.346 -0.5777  0.2544  0.9237
10963TIP3   OH254379   5.255   6.727   5.168 -0.1907  0.4297  0.1134
10963TIP3    H154380   5.287   6.652   5.218  0.6447 -0.8027 -2.1904
10963TIP3    H254381   5.311   6.800   5.196  0.1428 -0.1978  1.0890
10964TIP3   OH254382   5.286   5.100   1.036 -0.0540 -0.4333 -0.5661
10964TIP3    H154383   5.191   5.114   1.037 -0.1769 -1.2316 -1.1944
10964TIP3    H254384   5.306   5.070   0.947  1.1224  1.9671 -1.1512
10965TIP3   OH254385   0.279   4.502  13.410  0.4101  0.1054 -0.2613
10965TIP3    H154386   0.239   4.452  13.338  1.0392 -0.9974  0.1411
10965TIP3    H254387   0.232   4.473  13.488  0.1477  0.8462 -0.1378
10966TIP3   OH254388   2.110   2.344   2.600 -0.2290  0.2227 -0.2921
10966TIP3    H154389   2.045   2.348   2.529  0.4297 -0.6803 -0.9599
10966TIP3    H254390   2.109   2.252   2.627  0.0786  0.4114  0.3498
10967TIP3   OH254391   1.772   6.592  15.001 -0.5360  0.0006 -0.2291
10967TIP3    H154392   1.827   6.529  14.954 -0.2925 -0.3251  0.4831
10967TIP3    H254393   1.736   6.542  15.075 -0.4714  0.6472  0.2462
10968TIP3   OH254394   3.525   6.739  16.695  0.0106  0.3219  0.1822
10968TIP3    H154395   3.469   6.691  16.634  0.8148 -0.9855  0.4395
10968TIP3    H254396   3.510   6.831  16.675 -1.4514 -0.0385 -0.4379
10969TIP3   OH254397   2.758   0.239   3.359 -0.0445  0.6800  0.0563
10969TIP3    H154398   2.776   0.148   3.337  0.9612  1.0905 -0.8619
10969TIP3    H254399   2.717   0.276   3.281 -3.8444  0.1034  1.6718
10970TIP3   OH254400   4.342   0.596  14.792  0.2494 -0.3571 -0.0551
10970TIP3    H154401   4.394   0.537  14.847  2.8842  0.3655 -1.6894
10970TIP3    H254402   4.272   0.627  14.850  1.8874 -1.0039  2.3541
10971TIP3   OH254403   1.731   6.746  13.053 -0.1167  0.3576  0.4369
10971TIP3    H154404   1.716   6.755  12.959  1.7752 -0.8988 -0.0172
10971TIP3    H254405   1.688   6.663  13.076  0.4712  0.0510  0.4333
10972TIP3   OH254406   0.919   4.981   3.726  0.0658  0.0755  0.1882
10972TIP3    H154407   1.011   5.001   3.740  0.4175 -1.3972 -0.0208
10972TIP3    H254408   0.909   4.890   3.755 -1.0104 -0.2260 -1.0991
10973TIP3   OH254409   4.772   3.323   2.081  0.2254  0.0899 -0.5399
10973TIP3    H154410   4.797   3.269   2.155 -2.9156  0.0561  0.5559
10973TIP3    H254411   4.818   3.406   2.095  1.9665 -0.9128 -0.1673
10974TIP3   OH254412   1.587   5.171   6.197 -0.4396 -0.1090 -0.6028
10974TIP3    H154413   1.658   5.124   6.240  0.2022  1.6956  0.3126
10974TIP3    H254414   1.578   5.128   6.111  1.6038 -0.4684 -0.6452
10975TIP3   OH254415   6.079   4.407  13.318 -0.1730  0.1014  0.1762
10975TIP3    H154416   6.132   4.369  13.248  0.2073 -0.1548  0.5979
10975TIP3    H254417   6.133   4.478  13.353 -0.6235  0.6362 -0.2012
10976TIP3   OH254418   3.045   3.586   5.248  0.3279  0.1730 -0.0765
10976TIP3    H154419   3.131   3.565   5.285  1.1698  2.6374 -0.5735
10976TIP3    H254420   3.013   3.502   5.213  2.4250 -0.8070  0.2890
10977TIP3   OH254421   0.391   1.513   3.984  0.2667  0.3776  0.7462
10977TIP3    H154422   0.326   1.447   3.960  0.9782 -0.2783  0.5965
10977TIP3    H254423   0.475   1.469   3.972  0.7042  0.7986  2.2090
10978TIP3   OH254424   3.515   3.819   0.623  0.3751  0.7015 -0.3283
10978TIP3    H154425   3.525   3.730   0.590 -0.6982  0.7198 -0.7241
10978TIP3    H254426   3.507   3.809   0.718  0.8576  0.4306 -0.3157
10979TIP3   OH254427   1.989   4.668  13.181  0.2525 -0.3819 -0.2469
10979TIP3    H154428   1.964   4.721  13.256 -0.5177 -1.5257  0.3135
10979TIP3    H254429   1.944   4.708  13.107 -1.6987 -1.2636  0.4431
10980TIP3   OH254430   6.607   0.991  12.482 -0.3081  0.0251 -0.0490
10980TIP3    H154431   6.699   1.014  12.495  0.0056 -0.8793 -0.6723
10980TIP3    H254432   6.582   0.947  12.564 -0.1074  0.0154  0.0078
10981TIP3   OH254433   6.605   2.697  16.582  0.0425  0.1838  0.6816
10981TIP3    H154434   6.551   2.662  16.511 -0.3853  1.9280  0.1275
10981TIP3    H254435   6.587   2.791  16.582  2.5394  0.7015  0.9417
10982TIP3   OH254436   6.169   0.351   5.874  0.7218  0.3423  0.2792
10982TIP3    H154437   6.116   0.418   5.918  1.4857 -0.5037  2.5643
10982TIP3    H254438   6.254   0.394   5.860  0.5082  0.5821 -0.2741
10983TIP3   OH254439   5.197   3.627  14.249 -0.3400 -0.4755 -0.4562
10983TIP3    H154440   5.262   3.558  14.234 -0.1929 -0.0189 -2.0080
10983TIP3    H254441   5.113   3.584  14.233 -0.2954 -0.5124 -0.5991
10984TIP3   OH254442   2.849   1.054   2.770 -0.0819 -0.0108  0.0786
10984TIP3    H154443   2.853   0.988   2.839 -1.5092 -1.1350 -0.8865
10984TIP3    H254444   2.921   1.031   2.711 -1.3232 -1.5237 -0.9200
10985TIP3   OH254445   5.408   3.817  15.523  0.1966 -0.7787  0.1084
10985TIP3    H154446   5.355   3.768  15.460  0.3866  1.0081 -1.4697
10985TIP3    H254447   5.494   3.774  15.520  0.1726 -0.7768 -0.7595
10986TIP3   OH254448   2.104   4.147   5.770 -0.3246  0.0951 -0.6018
10986TIP3    H154449   2.123   4.103   5.853  0.3397  2.2557  0.4067
10986TIP3    H254450   2.063   4.079   5.717 -0.3888 -1.4406  1.3374
10987TIP3   OH254451   3.227   3.398   0.525  0.0576  0.6281 -0.0729
10987TIP3    H154452   3.232   3.313   0.569 -2.1845  0.8429  0.6662
10987TIP3    H254453   3.199   3.459   0.593  0.4989  1.7423 -0.8735
10988TIP3   OH254454   2.236   3.395  16.012 -0.2994 -0.1211  0.6171
10988TIP3    H154455   2.301   3.425  15.948 -1.0996 -1.5166 -0.9049
10988TIP3    H254456   2.158   3.447  15.993 -0.4452 -0.3312  0.6361
10989TIP3   OH254457   2.867   6.246  17.018  0.0730 -0.2945 -0.2149
10989TIP3    H154458   2.913   6.216  16.939 -0.3093 -0.2118 -0.4723
10989TIP3    H254459   2.784   6.198  17.016  0.2431 -0.6128  0.3666
10990TIP3   OH254460   3.663   0.432  14.173  0.2110 -0.1862  0.3566
10990TIP3    H154461   3.647   0.452  14.265  0.5610 -0.1049  0.4006
10990TIP3    H254462   3.750   0.468  14.156  0.5635 -1.0800  0.2582
10991TIP3   OH254463   6.515   2.204  16.016 -0.0346 -0.1280  0.2758
10991TIP3    H154464   6.599   2.219  16.058  0.3292 -0.4603 -0.3355
10991TIP3    H254465   6.478   2.128  16.062 -0.0709  0.1144  0.6453
10992TIP3   OH254466   2.347   5.443   2.820  0.1002  0.3329  0.0730
10992TIP3    H154467   2.318   5.419   2.908 -0.8731 -0.1680 -0.3781
10992TIP3    H254468   2.395   5.525   2.832 -2.1843  1.6174  0.7498
10993TIP3   OH254469   4.095   5.370  11.244 -0.0179 -0.3879  0.3495
10993TIP3    H154470   4.017   5.395  11.294 -0.0649 -2.1060  1.1774
10993TIP3    H254471   4.061   5.354  11.155 -0.4745 -0.3309  0.5103
10994TIP3   OH254472   5.927   4.672   2.972  0.2517  0.1131 -0.3472
10994TIP3    H154473   5.852   4.639   2.924  2.1998 -2.1057 -1.9491
10994TIP3    H254474   5.891   4.742   3.028 -3.0711 -1.3346 -0.5775
10995TIP3   OH254475   0.457   6.781  16.980 -0.0376 -0.5911 -0.5453
10995TIP3    H154476   0.451   6.816  17.069 -1.3143 -0.6456 -0.6024
10995TIP3    H254477   0.537   6.729  16.980  1.9897  2.4125 -0.4754
10996TIP3   OH254478   4.611   3.651   3.813 -0.3279 -0.5261  0.2418
10996TIP3    H154479   4.520   3.620   3.808 -0.2066 -0.9175  0.4191
10996TIP3    H254480   4.661   3.589   3.761 -0.4310  0.7959 -1.4712
10997TIP3   OH254481   2.063   2.234  13.489 -0.2744  0.2148 -0.0930
10997TIP3    H154482   2.088   2.220  13.581  1.7280 -2.4952 -0.9610
10997TIP3    H254483   2.036   2.148  13.458  3.6005 -0.0074 -3.2836
10998TIP3   OH254484   0.147   3.403   0.079 -0.5279  0.1141  0.2235
10998TIP3    H154485   0.230   3.404   0.127 -0.1550 -0.7840 -0.3939
10998TIP3    H254486   0.169   3.433  -0.009 -0.7158 -0.8709 -0.1646
10999TIP3   OH254487   0.136   5.947  12.291  0.7066  0.3035  0.3483
10999TIP3    H154488   0.095   5.938  12.206  1.9380 -1.6978 -0.0692
10999TIP3    H254489   0.203   6.015  12.279 -0.1442  1.1026  0.1307
11000TIP3   OH254490   5.825   2.358  16.719  0.3870 -0.0454  0.8091
11000TIP3    H154491   5.782   2.275  16.742  0.3158  0.1962  1.5692
11000TIP3    H254492   5.764   2.426  16.750  1.0638  0.2952  1.4096
11001TIP3   OH254493   5.535   0.511  11.240 -0.1632 -0.4456 -0.0328
11001TIP3    H154494   5.483   0.588  11.263 -2.4745 -2.0705  0.3871
11001TIP3    H254495   5.485   0.467  11.172  2.0258 -0.6524 -1.5502
11002TIP3   OH254496   1.403   4.696   2.626 -0.3335  0.1492  0.0578
11002TIP3    H154497   1.413   4.616   2.677  0.2198  0.1075 -0.1124
11002TIP3    H254498   1.324   4.737   2.661  1.5365  1.5177  2.8787
11003TIP3   OH254499   6.325   5.660   2.727 -0.3030 -0.0598 -0.0237
11003TIP3    H154500   6.278   5.608   2.662  0.0811  0.5133 -0.7726
11003TIP3    H254501   6.314   5.612   2.809  0.4729 -1.5812 -0.8004
11004TIP3   OH254502   5.929   5.238  13.953  0.3628  0.0389  0.5655
11004TIP3    H154503   6.007   5.290  13.969  0.1019  0.9737 -1.1154
11004TIP3    H254504   5.869   5.263  14.023  0.3129  1.8766 -0.1100
11005TIP3   OH254505   3.297   0.291  12.504 -0.0823  0.2429 -0.0435
11005TIP3    H154506   3.209   0.274  12.537 -0.2247 -0.5267 -0.7945
11005TIP3    H254507   3.294   0.263  12.412  0.0372  3.1872 -1.0191
11006TIP3   OH254508   6.684   1.226  12.047  0.2879 -0.1797  0.2607
11006TIP3    H154509   6.637   1.302  12.012 -0.0315 -0.2709  0.4881
11006TIP3    H254510   6.683   1.238  12.142  0.0030 -0.6050  0.3114
11007TIP3   OH254511   5.089   5.681   5.698 -0.2926 -0.4553  0.0638
11007TIP3    H154512   5.034   5.751   5.733  0.5467 -1.0379  2.6940
11007TIP3    H254513   5.036   5.640   5.630 -2.1160  0.5855  0.8307
11008TIP3   OH254514   4.858   4.984  13.935  0.0159 -0.2640  0.1224
11008TIP3    H154515   4.905   5.028  14.006  0.5517  0.4573 -0.6627
11008TIP3    H254516   4.923   4.975  13.865 -0.7751 -0.0546 -0.6483
11009TIP3   OH254517   2.368   0.881   1.980  0.1211 -0.4506 -0.0963
11009TIP3    H154518   2.436   0.922   1.928 -1.3436 -0.3473 -1.9962
11009TIP3    H254519   2.318   0.828   1.917 -0.5390 -1.8496  1.5492
11010TIP3   OH254520   1.088   1.231  16.396 -0.0661 -0.2005  0.6788
11010TIP3    H154521   1.132   1.315  16.390 -0.1069 -0.2615 -0.5870
11010TIP3    H254522   1.135   1.174  16.334 -2.6997  0.0995 -1.7065
11011TIP3   OH254523   0.029   1.077   3.976 -0.9681 -0.1027 -0.2883
11011TIP3    H154524   0.039   0.991   3.935  0.4544 -0.7076  1.2385
11011TIP3    H254525  -0.061   1.104   3.955 -0.1484 -0.1533 -4.1146
11012TIP3   OH254526   3.159   3.093   2.053 -0.1001 -0.5561 -0.1074
11012TIP3    H154527   3.164   3.035   1.977  1.2656  1.3071 -1.4693
11012TIP3    H254528   3.148   3.033   2.127  2.3523 -2.6209 -1.3377
11013TIP3   OH254529   1.504   6.603  14.426  0.2593 -0.7401  0.4596
11013TIP3    H154530   1.577   6.599  14.363 -1.3838 -1.6081 -1.4416
11013TIP3    H254531   1.507   6.518  14.471  0.9125 -0.4477  0.9855
11014TIP3   OH254532   3.365   0.929   1.315  0.2217  0.2896  0.0487
11014TIP3    H154533   3.457   0.905   1.310  0.4501  1.2751 -0.7062
11014TIP3    H254534   3.360   0.993   1.387  0.1042  0.1259  0.1866
11015TIP3   OH254535   5.127   2.455  15.448 -0.4160  0.1751  0.2203
11015TIP3    H154536   5.184   2.511  15.501 -0.5387  1.6928 -1.2047
11015TIP3    H254537   5.148   2.478  15.358 -1.8515 -0.7099 -0.3539
11016TIP3   OH254538   4.333   5.578  16.151  0.4875  0.5573  0.4054
11016TIP3    H154539   4.297   5.651  16.200  0.5681  1.6049 -1.0544
11016TIP3    H254540   4.392   5.618  16.087  2.2104 -0.9305  1.0064
11017TIP3   OH254541   3.571   1.449   5.461 -0.2618 -0.4219 -0.5799
11017TIP3    H154542   3.635   1.449   5.533 -0.6335 -0.5575 -0.2471
11017TIP3    H254543   3.603   1.516   5.401  1.5442 -2.2061 -1.6444
11018TIP3   OH254544   1.346   1.320   2.790 -0.3004  0.1993  0.0865
11018TIP3    H154545   1.383   1.392   2.740  1.4525 -1.2741 -0.7705
11018TIP3    H254546   1.359   1.242   2.735 -0.0812 -1.1296  1.9619
11019TIP3   OH254547   6.581   6.340  15.886  0.0022  0.6464 -1.4197
11019TIP3    H154548   6.517   6.392  15.837 -0.2574  0.6583 -1.0772
11019TIP3    H254549   6.645   6.404  15.917  1.3894  0.3526 -3.5840
11020TIP3   OH254550   4.841   4.508   2.849  0.2064  0.2416 -0.9642
11020TIP3    H154551   4.915   4.482   2.795  0.2668 -0.4654 -0.5495
11020TIP3    H254552   4.790   4.428   2.861 -1.6024  1.0926 -2.7283
11021TIP3   OH254553   0.717   5.133   6.105 -0.1411  0.0746  0.2257
11021TIP3    H154554   0.751   5.102   6.189 -0.6985 -0.7811  0.1394
11021TIP3    H254555   0.689   5.223   6.123  1.6329  0.5969  0.4320
11022TIP3   OH254556   1.763   1.719   2.639 -0.0508  0.0456  0.0477
11022TIP3    H154557   1.817   1.650   2.601 -0.9516  0.2013 -1.5561
11022TIP3    H254558   1.709   1.673   2.703  0.2329 -0.5268 -0.1122
11023TIP3   OH254559   1.686   1.764  15.331  0.3236  0.3599 -0.7342
11023TIP3    H154560   1.635   1.797  15.405  1.5496  0.1676  0.2063
11023TIP3    H254561   1.670   1.828  15.261  0.0723  1.1758  0.0544
11024TIP3   OH254562   6.727   4.669   1.484  0.5267 -0.1556  0.3289
11024TIP3    H154563   6.682   4.708   1.409 -0.4597  1.2188  1.6112
11024TIP3    H254564   6.733   4.576   1.462 -0.2306  0.1401 -1.2141
11025TIP3   OH254565   3.319   5.149   1.295  0.4489  0.2828 -0.0699
11025TIP3    H154566   3.389   5.087   1.273  0.7517 -0.2967  2.4192
11025TIP3    H254567   3.283   5.116   1.377 -2.4916  0.8175 -1.0865
11026TIP3   OH254568   5.234   6.630  11.419 -0.2130  0.0066 -0.0788
11026TIP3    H154569   5.158   6.654  11.472  0.5184  1.9959  0.1464
11026TIP3    H254570   5.252   6.539  11.442 -0.8470  0.3609  1.9567
11027TIP3   OH254571   5.281   2.763   0.907 -0.5484 -0.1056 -1.0005
11027TIP3    H154572   5.337   2.840   0.908  0.7687 -1.0387 -0.8288
11027TIP3    H254573   5.262   2.746   0.999 -0.3098 -0.3623 -0.9992
11028TIP3   OH254574   6.041   3.252  13.224  0.2929  0.9639  0.3749
11028TIP3    H154575   5.947   3.269  13.221  0.1019  0.3878  2.2393
11028TIP3    H254576   6.051   3.186  13.293  1.8178 -0.7749 -1.4420
11029TIP3   OH254577   5.694   2.903   4.776  0.1244  0.3108 -0.7414
11029TIP3    H154578   5.776   2.923   4.731 -0.4548 -0.0062 -1.9578
11029TIP3    H254579   5.626   2.944   4.723 -0.6334 -0.7204 -0.5888
11030TIP3   OH254580   0.691   0.919   3.262  0.3923 -0.3459  0.1066
11030TIP3    H154581   0.746   0.984   3.306  0.1374 -1.3399  1.9799
11030TIP3    H254582   0.603   0.955   3.267  0.4982 -0.0191 -0.4239
11031TIP3   OH254583   4.407   6.450  11.975 -0.4355  0.5398 -0.9203
11031TIP3    H154584   4.419   6.469  12.068 -0.0545  1.5117 -1.1637
11031TIP3    H254585   4.400   6.354  11.971 -2.8663  0.6180  0.3663
11032TIP3   OH254586   2.882   1.455   4.212 -0.0385  0.0167 -0.0152
11032TIP3    H154587   2.832   1.480   4.289 -0.9922 -0.6746 -0.4056
11032TIP3    H254588   2.817   1.439   4.144  0.6182 -1.7367 -0.2820
11033TIP3   OH254589   4.403   3.032  12.889  0.1926  0.2516 -0.7833
11033TIP3    H154590   4.381   3.120  12.920  1.8178 -0.0062  1.1831
11033TIP3    H254591   4.476   3.045  12.829  0.8291  0.2165 -0.0335
11034TIP3   OH254592   4.040   5.673   4.841 -0.4113 -0.2914  0.1391
11034TIP3    H154593   4.110   5.643   4.783 -0.6596 -1.8378  0.6054
11034TIP3    H254594   4.075   5.659   4.929 -0.4276  1.0921  0.3673
11035TIP3   OH254595   5.713   5.633  13.751 -0.5288  0.2121  0.0184
11035TIP3    H154596   5.685   5.640  13.660 -1.5817 -0.7479  0.2681
11035TIP3    H254597   5.800   5.594  13.746 -0.9099 -0.5748 -0.5306
11036TIP3   OH254598   0.466   2.765   3.997 -0.2879  0.1564 -0.1077
11036TIP3    H154599   0.390   2.726   3.954 -0.2236 -0.6508  0.4926
11036TIP3    H254600   0.461   2.734   4.088  0.6515  0.2610 -0.0120
11037TIP3   OH254601   4.735   2.492   0.625 -0.0744 -0.7303 -0.0405
11037TIP3    H154602   4.701   2.505   0.536 -1.9240  0.1750  0.7643
11037TIP3    H254603   4.714   2.573   0.671 -0.8045 -1.8742  1.7235
11038TIP3   OH254604   0.294   5.545   6.084 -0.5645  0.4531 -0.0807
11038TIP3    H154605   0.282   5.498   6.167  0.9973 -0.8297 -0.5547
11038TIP3    H254606   0.338   5.626   6.108  2.3700 -1.1326  0.0825
11039TIP3   OH254607   2.840   6.115  14.613 -0.2312 -0.2041  0.0277
11039TIP3    H154608   2.894   6.180  14.657 -0.8949  0.8467 -0.6701
11039TIP3    H254609   2.789   6.166  14.549 -0.4062 -1.4724 -0.8652
11040TIP3   OH254610   0.148   0.167  12.178  0.0065  0.3199 -0.1638
11040TIP3    H154611   0.195   0.123  12.106  0.5402 -1.1265  1.0560
11040TIP3    H254612   0.081   0.218  12.134  0.6019 -0.2171 -1.7441
11041TIP3   OH254613   3.833   6.208  12.152 -0.4071 -0.1432  0.2933
11041TIP3    H154614   3.844   6.168  12.238 -0.0816 -0.3083  0.1763
11041TIP3    H254615   3.897   6.280  12.151 -1.0452  0.4379  0.5323
11042TIP3   OH254616   5.692   4.628  13.148  0.1369  0.1008  0.6924
11042TIP3    H154617   5.688   4.694  13.217  1.2831 -0.1621  1.0164
11042TIP3    H254618   5.708   4.545  13.194  2.4638  0.1354  0.0432
11043TIP3   OH254619   0.974   0.639  15.714  0.4239 -0.2850 -0.0681
11043TIP3    H154620   1.004   0.667  15.801  0.6464 -0.3162 -0.1336
11043TIP3    H254621   0.885   0.606  15.729 -1.0897  3.3140 -0.4755
11044TIP3   OH254622   5.777   5.882   4.890 -1.0208 -0.1116  0.2984
11044TIP3    H154623   5.708   5.948   4.902 -0.3471  0.5954  0.3160
11044TIP3    H254624   5.804   5.892   4.798 -0.1001  0.4447  0.6233
11045TIP3   OH254625   4.571   3.483  15.708  0.5058 -0.0530  0.4130
11045TIP3    H154626   4.618   3.536  15.773 -1.6051 -0.2534  2.1820
11045TIP3    H254627   4.568   3.395  15.747 -1.1777 -0.0711  0.2721
11046TIP3   OH254628   2.410   1.986  12.610  0.1232  0.3873 -0.5804
11046TIP3    H154629   2.411   1.945  12.523  2.0134 -0.2784 -0.2636
11046TIP3    H254630   2.421   2.080  12.592  0.9085  0.2111 -1.0457
11047TIP3   OH254631   6.259   4.270  16.963  0.4369 -0.1507 -0.5185
11047TIP3    H154632   6.196   4.279  16.892  2.4886 -1.9468 -2.6593
11047TIP3    H254633   6.332   4.328  16.937 -0.5158  2.4024  2.2242
11048TIP3   OH254634   3.074   2.312   5.764 -0.2151 -0.7244  0.0316
11048TIP3    H154635   2.992   2.342   5.725  0.1904 -0.8192 -0.9197
11048TIP3    H254636   3.107   2.388   5.811  0.2404 -0.0077 -1.4189
11049TIP3   OH254637   3.337   4.103  12.893 -0.0192  0.3429  0.4273
11049TIP3    H154638   3.317   4.137  12.980  0.8524 -0.3404  0.8934
11049TIP3    H254639   3.411   4.044  12.906  0.2806  0.4362 -0.8152
11050TIP3   OH254640   3.337   1.700  12.609 -0.8693 -0.3419  0.6333
11050TIP3    H154641   3.355   1.714  12.516  2.8700  0.7663  1.4515
11050TIP3    H254642   3.253   1.745  12.624 -0.5301  1.1669 -1.7864
11051TIP3   OH254643   1.775   5.415   3.469  0.2008  0.0194 -0.0390
11051TIP3    H154644   1.852   5.369   3.503 -0.1920  0.3963  1.3836
11051TIP3    H254645   1.793   5.507   3.483 -0.6376  0.0970  0.6214
11052TIP3   OH254646   6.598   2.045   2.475  0.3838  0.2678 -0.1583
11052TIP3    H154647   6.603   1.999   2.558 -0.6972 -0.3556 -0.4283
11052TIP3    H254648   6.530   2.111   2.489 -2.3798 -2.1623 -1.6262
11053TIP3   OH254649   4.640   1.033  12.267 -0.3657  0.5011  0.1923
11053TIP3    H154650   4.571   1.063  12.207  1.1195  0.3328 -1.6525
11053TIP3    H254651   4.686   0.965  12.218  0.3032 -0.2906  1.9042
11054TIP3   OH254652   2.366   0.034   0.728 -0.0398 -0.3153  0.1670
11054TIP3    H154653   2.381   0.056   0.636 -0.7288 -1.5737 -0.2589
11054TIP3    H254654   2.454   0.030   0.767  0.2930 -0.4711 -0.5986
11055TIP3   OH254655   4.328   3.557  15.575 -0.6467 -0.2692  0.0575
11055TIP3    H154656   4.284   3.600  15.648 -0.1591  0.2409  0.0516
11055TIP3    H254657   4.419   3.548  15.603  0.1279  2.2806 -1.5118
11056TIP3   OH254658   5.436   0.458  14.595 -0.2422  0.1366 -0.4474
11056TIP3    H154659   5.476   0.371  14.590 -0.7293 -0.3112  2.3936
11056TIP3    H254660   5.372   0.459  14.524  1.2314 -1.0310 -1.8285
11057TIP3   OH254661   3.332   5.061   2.917  0.4664  0.3137  0.0283
11057TIP3    H154662   3.403   5.114   2.879  0.7418 -0.3011 -0.3179
11057TIP3    H254663   3.377   4.990   2.961  0.1249  0.7808  1.1444
11058TIP3   OH254664   0.660   1.806  11.722  0.0784 -0.3990  0.5246
11058TIP3    H154665   0.619   1.814  11.808 -0.1514 -1.5475  0.5214
11058TIP3    H254666   0.656   1.713  11.701 -1.1119  0.0125 -1.3202
11059TIP3   OH254667   4.437   2.435   3.475 -0.6084  0.2983  0.1031
11059TIP3    H154668   4.348   2.403   3.486  0.0423 -0.8500  2.3901
11059TIP3    H254669   4.439   2.471   3.387 -3.0319 -0.6132 -0.3603
11060TIP3   OH254670   4.344   1.351  15.740 -0.0313 -0.8804  0.6452
11060TIP3    H154671   4.273   1.291  15.762 -1.2546  0.1458 -0.4124
11060TIP3    H254672   4.338   1.362  15.645  0.7023  0.2328  0.7134
11061TIP3   OH254673   4.229   2.323  12.324 -0.3828  0.0031  0.0438
11061TIP3    H154674   4.182   2.388  12.376  0.9514  0.4722  0.6837
11061TIP3    H254675   4.265   2.263  12.389  2.9509  1.6999 -0.1638
11062TIP3   OH254676   1.812   5.569   0.423  0.2214  0.0396  0.2251
11062TIP3    H154677   1.874   5.619   0.476  1.9928 -0.8125 -0.9898
11062TIP3    H254678   1.775   5.634   0.363 -0.8999  0.7680  1.7021
11063TIP3   OH254679   3.260   4.779  13.685 -0.1446 -0.1874  0.3575
11063TIP3    H154680   3.203   4.817  13.752  0.4885 -0.2496  0.9382
11063TIP3    H254681   3.333   4.741  13.734 -0.0943 -0.9736 -0.3133
11064TIP3   OH254682   0.755   5.974   3.973  0.8900 -0.4728  0.5256
11064TIP3    H154683   0.661   5.957   3.981  1.0029 -0.9629  0.8145
11064TIP3    H254684   0.769   6.055   4.022 -0.0156  1.6757 -2.6708
11065TIP3   OH254685   0.957   2.069  13.952 -0.2054  0.8389 -0.2704
11065TIP3    H154686   0.934   1.998  14.012  0.5049 -0.3623 -1.4231
11065TIP3    H254687   1.039   2.104  13.987 -0.8414  1.4921  0.6201
11066TIP3   OH254688   6.462   3.511  13.282 -0.5667 -0.4744 -0.5282
11066TIP3    H154689   6.397   3.573  13.315 -0.1003  0.6371 -1.7040
11066TIP3    H254690   6.472   3.447  13.354 -3.8616 -1.3807 -0.7946
11067TIP3   OH254691   4.124   4.741  15.177  0.7259 -0.0587 -0.1516
11067TIP3    H154692   4.105   4.655  15.141 -0.5299  0.6986 -1.3539
11067TIP3    H254693   4.108   4.732  15.271 -0.4901 -0.8454 -0.4181
11068TIP3   OH254694   3.412   3.969   4.031  0.0446 -0.4024 -0.5691
11068TIP3    H154695   3.486   3.912   4.011  0.6863 -0.6337  2.2263
11068TIP3    H254696   3.358   3.919   4.092 -1.2540  0.6301 -0.8298
11069TIP3   OH254697   1.628   2.162   6.219 -0.3962  0.9228 -0.1943
11069TIP3    H154698   1.551   2.115   6.250  0.2048  0.5900  0.8171
11069TIP3    H254699   1.622   2.157   6.124 -1.0938  0.0392 -0.1129
11070TIP3   OH254700   4.242   1.797   1.591 -0.0714 -0.1370  0.3513
11070TIP3    H154701   4.274   1.708   1.576  0.8990  0.4336 -1.0133
11070TIP3    H254702   4.208   1.795   1.680 -1.6816 -2.3588 -0.2568
11071TIP3   OH254703   3.633   2.404  16.757 -0.3094 -0.3176 -0.3301
11071TIP3    H154704   3.595   2.490  16.743  0.0856 -0.1485 -0.3518
11071TIP3    H254705   3.602   2.352  16.683 -0.6013 -0.2158 -0.2811
11072TIP3   OH254706   0.598   5.180  14.958  0.0172  0.5904  0.1227
11072TIP3    H154707   0.562   5.268  14.952 -0.6503  0.3519  0.5868
11072TIP3    H254708   0.602   5.150  14.867 -2.0688  0.1788  0.1370
11073TIP3   OH254709   3.176   5.154   2.605  0.1345  0.1079 -0.2020
11073TIP3    H154710   3.265   5.122   2.590  0.4237  1.2035 -0.8253
11073TIP3    H254711   3.169   5.234   2.553 -1.4468 -0.3447 -0.7327
11074TIP3   OH254712   4.590   0.896   0.289  0.1670 -0.6151  0.2951
11074TIP3    H154713   4.663   0.937   0.335 -0.7273  1.8447 -0.3602
11074TIP3    H254714   4.622   0.882   0.200 -0.2082  0.7293 -0.0715
11075TIP3   OH254715   5.932   5.031   0.892 -0.0702  0.5574 -0.6441
11075TIP3    H154716   6.015   4.985   0.904  0.6812  1.4525 -2.1862
11075TIP3    H254717   5.955   5.124   0.896 -1.0677  0.8091 -0.6342
11076TIP3   OH254718   0.788   4.623  16.416  0.0231  0.0254 -0.8243
11076TIP3    H154719   0.857   4.562  16.389 -0.7657 -1.0919 -0.3547
11076TIP3    H254720   0.733   4.572  16.475  1.2899  2.2099  2.3997
11077TIP3   OH254721   4.108   0.223   2.674  0.1896 -0.4941  0.7008
11077TIP3    H154722   4.049   0.234   2.599 -0.9499 -0.4568  1.5865
11077TIP3    H254723   4.192   0.200   2.635  0.4252  2.5271 -0.7703
11078TIP3   OH254724   0.838   0.484   3.245 -0.5516 -0.1217  0.4833
11078TIP3    H154725   0.840   0.392   3.273  0.3227  0.0853  1.1255
11078TIP3    H254726   0.864   0.534   3.323  0.5260  0.5562 -0.2858
11079TIP3   OH254727   3.912   4.466  12.176  0.6107  0.3114 -0.0848
11079TIP3    H154728   3.913   4.387  12.122 -0.4041  1.3522 -1.6667
11079TIP3    H254729   3.915   4.434  12.266 -0.4180 -1.5536 -0.6928
11080TIP3   OH254730   6.686   0.446  13.033 -0.7357  0.5970  0.2740
11080TIP3    H154731   6.629   0.405  13.098  2.0580 -1.3805  1.5724
11080TIP3    H254732   6.638   0.438  12.950 -1.5674 -2.6853  1.0271
11081TIP3   OH254733   1.093   2.619   3.605  0.2326 -0.0325  0.4634
11081TIP3    H154734   1.175   2.569   3.600  0.6513  0.5872  1.0055
11081TIP3    H254735   1.056   2.614   3.517  0.7464 -0.4993  0.2714
11082TIP3   OH254736   6.491   6.816   5.904  0.1954  0.1765 -0.7811
11082TIP3    H154737   6.445   6.860   5.976  0.3318 -0.7223 -0.1419
11082TIP3    H254738   6.421   6.779   5.850  0.1476 -1.2517  0.2292
11083TIP3   OH254739   2.608   2.712  14.444 -0.2291 -0.0722  0.2359
11083TIP3    H154740   2.639   2.750  14.362  1.7368  0.9779  1.4325
11083TIP3    H254741   2.530   2.763  14.466 -0.9281 -0.5353 -1.0770
11084TIP3   OH254742   5.047   5.108   4.192  0.3171 -0.0767 -0.3461
11084TIP3    H154743   5.097   5.181   4.228 -0.6966  0.6881 -0.4746
11084TIP3    H254744   4.996   5.075   4.266  0.3821 -0.3173 -0.4093
11085TIP3   OH254745   4.109   2.299  13.092 -0.6244  0.1162  0.0142
11085TIP3    H154746   4.190   2.272  13.135 -1.3883 -0.6429  0.9934
11085TIP3    H254747   4.062   2.218  13.075 -1.5692  0.6125  0.2218
11086TIP3   OH254748   2.879   4.016   4.727 -0.5043 -0.7386 -0.1408
11086TIP3    H154749   2.857   4.109   4.719  1.7704 -0.1082  0.4803
11086TIP3    H254750   2.845   3.991   4.813 -2.9216 -1.0410 -1.1497
11087TIP3   OH254751   4.531   3.183  15.730 -0.1083 -0.4960  0.3402
11087TIP3    H154752   4.438   3.201  15.717  0.1736 -0.1849 -1.4715
11087TIP3    H254753   4.549   3.109  15.672  1.0412  0.2941 -0.3485
11088TIP3   OH254754   3.277   0.753   2.257  0.0108 -0.1627  0.2912
11088TIP3    H154755   3.366   0.732   2.227 -0.1733 -0.6846  0.1092
11088TIP3    H254756   3.265   0.845   2.232 -0.6140 -0.9433 -2.4442
11089TIP3   OH254757   5.840   2.404  12.568  0.6199 -0.3531  1.0716
11089TIP3    H154758   5.908   2.464  12.538  0.2344  0.4845  1.8746
11089TIP3    H254759   5.818   2.434  12.656  0.2509 -1.5178  1.3884
11090TIP3   OH254760   0.793   3.580  13.731 -0.2826  0.0596 -0.1561
11090TIP3    H154761   0.764   3.524  13.660 -0.3122  1.8413 -1.6006
11090TIP3    H254762   0.802   3.667  13.691 -0.0787  1.0542  1.9530
11091TIP3   OH254763   6.628   5.033   5.452  0.0730  0.2544 -0.0794
11091TIP3    H154764   6.649   4.961   5.392 -0.9447  0.3855 -0.6094
11091TIP3    H254765   6.621   4.991   5.538 -2.1516 -0.5951 -0.6305
11092TIP3   OH254766   4.848   4.284  16.290 -0.4616  0.4508  0.2362
11092TIP3    H154767   4.816   4.217  16.230  0.8768 -1.7620  1.9484
11092TIP3    H254768   4.913   4.333  16.239 -0.6057 -0.2773 -0.6471
11093TIP3   OH254769   3.680   4.694  14.964  0.0909  0.4052  0.2056
11093TIP3    H154770   3.759   4.744  14.988 -0.4883  1.4295 -0.0328
11093TIP3    H254771   3.613   4.725  15.025 -0.4324  0.3537 -0.3466
11094TIP3   OH254772   5.445   0.301  15.849  0.3303  0.7148  0.1987
11094TIP3    H154773   5.351   0.289  15.836  0.2641  2.2693 -0.9145
11094TIP3    H254774   5.465   0.252  15.929 -1.3649  0.1393  0.2821
11095TIP3   OH254775   2.973   3.057  12.176  0.6934 -0.4120  0.0253
11095TIP3    H154776   2.926   3.093  12.101  0.4276  0.3034  0.5225
11095TIP3    H254777   3.046   3.009  12.139  0.8445  0.3525 -0.6692
11096TIP3   OH254778   1.172   2.359  13.811  0.8400 -0.3760  0.2383
11096TIP3    H154779   1.077   2.361  13.800  0.6658  0.5849  1.8032
11096TIP3    H254780   1.206   2.342  13.723 -0.7920 -1.2029 -0.2526
11097TIP3   OH254781   3.780   6.073   3.596 -0.0342  0.4662  0.8351
11097TIP3    H154782   3.862   6.119   3.577  0.1871  0.0312  0.7302
11097TIP3    H254783   3.789   5.988   3.552 -1.8738  1.6303 -1.9675
11098TIP3   OH254784   5.818   4.137  14.822  0.3569  0.3458  0.1283
11098TIP3    H154785   5.814   4.209  14.886 -1.1246 -0.2731  0.7564
11098TIP3    H254786   5.758   4.164  14.752 -1.6010 -1.0417  1.2049
11099TIP3   OH254787   6.147   6.359   4.960 -0.1277  0.0275 -0.1445
11099TIP3    H154788   6.110   6.406   5.035  2.5018  0.6544  0.8232
11099TIP3    H254789   6.150   6.267   4.988 -1.7620 -0.1723 -0.5872
11100TIP3   OH254790   3.427   5.799  13.930  0.1595 -0.6299 -0.4834
11100TIP3    H154791   3.417   5.872  13.869  0.3474  0.0791  0.3298
11100TIP3    H254792   3.342   5.754  13.927 -0.2814  0.1819 -0.2650
11101TIP3   OH254793   1.757   5.756   0.724 -0.0357  0.2182 -0.0732
11101TIP3    H154794   1.742   5.849   0.738 -1.4466  0.3996 -2.4628
11101TIP3    H254795   1.843   5.751   0.683 -0.1009  0.5230 -0.2527
11102TIP3   OH254796   6.749   2.992  11.748  0.4735  0.1351  0.4785
11102TIP3    H154797   6.758   3.060  11.814  0.2328 -0.6304  1.3133
11102TIP3    H254798   6.741   2.911  11.798 -1.1739 -0.3082 -0.4320
11103TIP3   OH254799   2.750   3.367  13.189 -0.0609  0.2003  0.1397
11103TIP3    H154800   2.701   3.428  13.135  0.4954  1.4487  1.0289
11103TIP3    H254801   2.795   3.422  13.253  1.5372 -1.0080  0.1003
11104TIP3   OH254802   5.320   6.644  14.525  0.3644 -0.0588  0.1501
11104TIP3    H154803   5.290   6.553  14.522  2.0820 -0.6273 -0.1014
11104TIP3    H254804   5.322   6.666  14.618 -0.5266 -0.1152  0.1850
11105TIP3   OH254805   2.112   2.556  12.873 -0.1456  0.1368 -0.2293
11105TIP3    H154806   2.111   2.473  12.824 -0.7298  0.2727 -0.4488
11105TIP3    H254807   2.190   2.601  12.841  0.1680 -0.3199 -0.1229
11106TIP3   OH254808   4.758   1.871   2.614  0.2703  0.0275  0.6580
11106TIP3    H154809   4.771   1.806   2.683 -0.1582  0.5877  1.2686
11106TIP3    H254810   4.845   1.883   2.576  0.0477 -2.3015 -0.7334
11107TIP3   OH254811   4.393   2.520   3.876  0.4882  0.7883 -0.1196
11107TIP3    H154812   4.467   2.509   3.936  1.0975  1.1400 -0.7966
11107TIP3    H254813   4.340   2.441   3.888  1.4361  0.1252 -0.2668
11108TIP3   OH254814   1.088   2.345   0.178  0.1907 -0.0443 -0.1364
11108TIP3    H154815   1.044   2.276   0.128 -0.2803  0.6316 -0.6664
11108TIP3    H254816   1.018   2.406   0.202  0.7858  0.8988 -0.7529
11109TIP3   OH254817   3.670   3.363  16.615 -0.0128 -0.3386 -0.2788
11109TIP3    H154818   3.607   3.435  16.614  1.0921  0.6547 -1.0037
11109TIP3    H254819   3.754   3.405  16.636  0.7178 -1.3336 -1.1033
11110TIP3   OH254820   4.881   6.820  16.374 -0.4127  0.0058 -0.7153
11110TIP3    H154821   4.808   6.768  16.339 -0.9864  0.2381  0.1230
11110TIP3    H254822   4.920   6.764  16.442 -0.7421  0.4793 -0.1319
11111TIP3   OH254823   5.678   2.577  10.962  0.0185  0.0093 -0.7824
11111TIP3    H154824   5.698   2.668  10.940  0.2764  0.7457  2.3494
11111TIP3    H254825   5.583   2.571  10.957  0.0737  0.0915 -2.2082
11112TIP3   OH254826   4.510   4.542   3.878 -0.3943  1.2032 -0.2275
11112TIP3    H154827   4.544   4.522   3.965 -0.3894  1.5830 -0.1429
11112TIP3    H254828   4.539   4.632   3.860 -2.3874  1.9927  0.3595
11113TIP3   OH254829   5.741   5.065   3.116 -0.3259  0.0654 -0.3367
11113TIP3    H154830   5.810   5.078   3.051  0.1333  1.3588  0.4052
11113TIP3    H254831   5.747   5.141   3.173 -1.0923 -0.7911  0.8965
11114TIP3   OH254832   4.362   4.569  15.371 -0.4921  0.6216 -0.5740
11114TIP3    H154833   4.402   4.574  15.458 -0.1501 -0.9303 -0.6115
11114TIP3    H254834   4.376   4.655  15.333  1.6298  0.5455 -0.0561
11115TIP3   OH254835   2.964   3.864   1.486  0.3517  0.3435 -0.6860
11115TIP3    H154836   2.978   3.770   1.500  1.0812  0.3224 -1.5122
11115TIP3    H254837   2.997   3.880   1.398 -0.0908  1.3162 -0.6816
11116TIP3   OH254838   3.551   1.907  15.609  0.0672 -0.0369 -0.3127
11116TIP3    H154839   3.604   1.966  15.662 -0.7227  1.1100 -0.7745
11116TIP3    H254840   3.591   1.909  15.522 -0.3735  0.3645 -0.5084
11117TIP3   OH254841   5.480   1.496   1.870  0.6897 -0.0294  0.3409
11117TIP3    H154842   5.456   1.404   1.882  1.7771 -0.5645 -1.3395
11117TIP3    H254843   5.567   1.503   1.909  1.6618 -0.3358 -1.7032
11118TIP3   OH254844   0.159   1.534   1.408  0.0839 -0.0102  0.0598
11118TIP3    H154845   0.167   1.629   1.399  1.7627 -0.1700 -0.3036
11118TIP3    H254846   0.144   1.503   1.318 -1.9643  0.0331  0.3737
11119TIP3   OH254847   4.975   5.660   3.677 -1.2379 -0.1511  0.0298
11119TIP3    H154848   4.997   5.746   3.642 -0.3085 -1.3488 -2.4628
11119TIP3    H254849   5.032   5.649   3.753  2.0986 -0.4422 -2.3886
11120TIP3   OH254850   3.419   2.425   4.357 -0.2247  0.1466  0.5124
11120TIP3    H154851   3.440   2.348   4.305 -1.0187 -0.2961  0.8271
11120TIP3    H254852   3.503   2.466   4.376  0.2622 -1.0498  0.9622
11121TIP3   OH254853   2.706   6.347   0.673  0.2282 -0.0580  0.6910
11121TIP3    H154854   2.738   6.361   0.584 -0.2314 -1.1737  0.3341
11121TIP3    H254855   2.777   6.301   0.718  0.8860  1.4487  1.2292
11122TIP3   OH254856   3.791   3.619  15.656 -0.0352 -0.0266 -0.0908
11122TIP3    H154857   3.721   3.682  15.676 -0.2033 -0.8324  1.9079
11122TIP3    H254858   3.746   3.535  15.646  0.8512 -1.0362  3.6797
11123TIP3   OH254859   3.650   3.826   3.989  0.8749  0.3198 -0.0837
11123TIP3    H154860   3.730   3.805   4.038  1.4840 -0.3654 -1.3621
11123TIP3    H254861   3.645   3.759   3.921 -0.5555  0.6230 -0.2939
11124TIP3   OH254862   3.716   6.409  13.069 -0.4157 -0.1173 -0.5806
11124TIP3    H154863   3.777   6.481  13.079 -2.3713  1.6279 -0.9358
11124TIP3    H254864   3.693   6.384  13.159 -2.1641  1.8506 -0.4433
11125TIP3   OH254865   4.753   4.893   0.287  0.3517 -0.5158 -0.7685
11125TIP3    H154866   4.771   4.941   0.368  1.1038 -1.0629 -0.6126
11125TIP3    H254867   4.802   4.941   0.220  1.5228 -1.3566 -0.5272
11126TIP3   OH254868   0.163   2.588  11.258 -0.4271 -0.7974  0.1850
11126TIP3    H154869   0.155   2.611  11.165 -0.0221 -0.0199  0.3401
11126TIP3    H254870   0.073   2.583  11.289 -0.5396 -0.1609 -0.0324
11127TIP3   OH254871   6.669   0.282   0.282 -0.9795  0.5071  0.2892
11127TIP3    H154872   6.676   0.348   0.350  0.2944  0.5270  0.1486
11127TIP3    H254873   6.695   0.200   0.325  0.7831  0.6830 -0.4007
11128TIP3   OH254874   2.452   5.102   0.157 -0.2822 -0.0461  0.1914
11128TIP3    H154875   2.389   5.162   0.198 -0.3366 -0.4255  0.6679
11128TIP3    H254876   2.469   5.035   0.224 -0.4721 -0.7433 -0.4466
11129TIP3   OH254877   0.749   0.907   0.819  0.3558  0.3207  0.0998
11129TIP3    H154878   0.824   0.966   0.817 -0.2586  1.1175  0.3748
11129TIP3    H254879   0.676   0.961   0.850 -0.2615 -0.5241  0.1504
11130TIP3   OH254880   3.660   2.805   5.619 -0.0167  0.0351 -0.2653
11130TIP3    H154881   3.705   2.875   5.571 -1.0608  0.4412 -0.6605
11130TIP3    H254882   3.567   2.825   5.609 -0.3115 -1.2367 -0.1061
11131TIP3   OH254883   2.089   4.041   3.867 -0.2443  0.1227  0.1063
11131TIP3    H154884   2.054   3.960   3.829  0.7972 -0.4291  0.3107
11131TIP3    H254885   2.050   4.111   3.814  0.5318 -0.5961 -1.4343
11132TIP3   OH254886   4.661   0.114   3.851  0.3160  0.1392  0.6578
11132TIP3    H154887   4.716   0.183   3.814 -1.2026  0.2256 -1.4602
11132TIP3    H254888   4.714   0.078   3.923  1.3825  3.0447  1.3829
11133TIP3   OH254889   6.652   3.273  16.811  0.4948  0.3990 -0.4325
11133TIP3    H154890   6.660   3.320  16.728 -0.9428  0.0660 -0.7817
11133TIP3    H254891   6.618   3.187  16.786  2.9783 -0.8114  0.2133
11134TIP3   OH254892   5.473   3.766   4.943 -0.4176  0.3017  0.2324
11134TIP3    H154893   5.475   3.836   5.008 -0.0828 -0.9371  1.5674
11134TIP3    H254894   5.455   3.687   4.993 -1.0392 -0.5478 -1.2926
11135TIP3   OH254895   4.300   5.959   3.251  0.3452 -0.4532  0.4103
11135TIP3    H154896   4.261   5.959   3.338  0.7975 -1.0436  0.6141
11135TIP3    H254897   4.392   5.982   3.266  0.3041 -0.0223  0.0327
11136TIP3   OH254898   1.589   4.803   3.163  0.3245  0.1399  0.1882
11136TIP3    H154899   1.649   4.818   3.236  1.6120  0.6181 -0.9526
11136TIP3    H254900   1.501   4.811   3.202  0.9872 -1.1418  1.9758
11137TIP3   OH254901   1.811   3.996   5.338  0.7002 -0.3409  0.0592
11137TIP3    H154902   1.869   4.071   5.354  0.5357  0.0228 -1.0383
11137TIP3    H254903   1.734   4.034   5.297  0.6686 -1.1368 -0.6212
11138TIP3   OH254904   4.869   1.762   2.876 -0.1286 -0.3543  0.0367
11138TIP3    H154905   4.960   1.752   2.905  0.2116  0.8805 -0.5650
11138TIP3    H254906   4.827   1.809   2.948 -0.1106 -0.2640 -0.0117
11139TIP3   OH254907   5.499   2.711   4.528  0.5236  0.8673 -0.1621
11139TIP3    H154908   5.506   2.651   4.602  0.2102  0.4296 -0.4852
11139TIP3    H254909   5.586   2.750   4.520  0.4723  1.1394  0.6264
11140TIP3   OH254910   2.777   2.520   6.118  0.8498  0.4280 -0.5862
11140TIP3    H154911   2.769   2.545   6.210  0.3140 -3.3958  0.4851
11140TIP3    H254912   2.846   2.454   6.117 -1.0903 -1.6507 -2.4623
11141TIP3   OH254913   1.649   3.205   2.141 -0.1315 -0.0902  0.0572
11141TIP3    H154914   1.666   3.168   2.055 -0.4865  0.3456 -0.2028
11141TIP3    H254915   1.582   3.147   2.179  0.8972 -0.9824  0.5227
11142TIP3   OH254916   3.366   1.948  10.830  0.1775 -0.0674  0.2528
11142TIP3    H154917   3.423   1.873  10.845 -0.5107 -0.4686  0.9041
11142TIP3    H254918   3.277   1.913  10.838 -0.1746  0.4277 -1.3943
11143TIP3   OH254919   1.220   4.604   2.933 -0.6439  0.2888 -0.2372
11143TIP3    H154920   1.153   4.539   2.913  0.0775 -0.5384 -0.0165
11143TIP3    H254921   1.295   4.579   2.878  0.7931 -1.0356  2.2634
11144TIP3   OH254922   2.983   1.256   1.374  0.1083 -0.4073 -0.2834
11144TIP3    H154923   3.020   1.305   1.300 -1.4669  0.3097 -0.6175
11144TIP3    H254924   2.907   1.210   1.337 -0.4978 -0.3080  0.8110
11145TIP3   OH254925   4.993   5.495  16.788  0.1819 -0.1539 -0.2541
11145TIP3    H154926   4.979   5.580  16.746 -1.8421  0.3642  1.4280
11145TIP3    H254927   4.917   5.443  16.762  0.4142 -0.8062  0.3711
11146TIP3   OH254928   5.964   0.838  11.767  0.7177 -0.2795 -0.3987
11146TIP3    H154929   5.975   0.751  11.730  0.7443  0.3493 -1.9250
11146TIP3    H254930   5.869   0.850  11.770  0.7182 -0.2860 -0.3506
11147TIP3   OH254931   4.965   2.449   6.437  0.1747  0.4158 -0.6227
11147TIP3    H154932   4.886   2.439   6.385  0.2040  0.6262 -0.7056
11147TIP3    H254933   4.936   2.441   6.527  0.0858  0.3134 -0.6597
11148TIP3   OH254934   0.170   4.719   4.977  0.1418 -0.3272 -0.2164
11148TIP3    H154935   0.261   4.739   4.952  0.9118 -1.7363  1.4143
11148TIP3    H254936   0.126   4.804   4.974  1.1781  0.1824 -2.2926
11149TIP3   OH254937   2.910   6.356   4.470 -0.0285 -0.3239 -0.1482
11149TIP3    H154938   2.993   6.327   4.431  0.5948  0.0167  0.8814
11149TIP3    H254939   2.867   6.407   4.402  1.8010  1.6702  0.1105
11150TIP3   OH254940   3.684   1.367   4.665 -0.6464  0.1139 -0.7366
11150TIP3    H154941   3.655   1.276   4.675 -0.4260  0.0599 -0.5949
11150TIP3    H254942   3.613   1.419   4.702  0.2145 -0.0860  1.2258
11151TIP3   OH254943   4.464   0.729  12.652  0.2693  0.0260 -0.0322
11151TIP3    H154944   4.441   0.772  12.734  0.8891 -1.2750  0.8402
11151TIP3    H254945   4.528   0.787  12.611 -0.5526  1.0199  0.0604
11152TIP3   OH254946   2.010   6.300  12.777 -0.3565  0.1463 -0.1603
11152TIP3    H154947   1.929   6.345  12.753 -0.4942 -0.8524 -1.6189
11152TIP3    H254948   1.986   6.208  12.781  0.8100 -0.2031 -1.0246
11153TIP3   OH254949   3.708   1.239  11.396  0.1937  0.0994 -0.0420
11153TIP3    H154950   3.801   1.259  11.411  0.8042 -0.4011 -2.7794
11153TIP3    H254951   3.680   1.304  11.331 -1.6495  0.8175  1.4407
11154TIP3   OH254952   1.661   6.191   7.083  0.1064 -0.0362 -0.0204
11154TIP3    H154953   1.699   6.114   7.041  2.1156  1.0953 -0.3068
11154TIP3    H254954   1.592   6.220   7.022  0.7622 -0.3562 -0.9218
11155TIP3   OH254955   5.250   0.998  10.966  0.6197 -0.0778  0.3449
11155TIP3    H154956   5.316   1.067  10.973  1.1342 -0.6918  1.7344
11155TIP3    H254957   5.234   0.990  10.872  1.9313  0.6384  0.0403
11156TIP3   OH254958   4.188   5.527   4.650 -0.5875 -0.0408  0.0239
11156TIP3    H154959   4.254   5.480   4.701 -0.9590  0.1893  0.7232
11156TIP3    H254960   4.212   5.511   4.559  1.5036  1.5298  0.2610
11157TIP3   OH254961   4.575   0.407   6.580  0.7615  0.0603 -0.2089
11157TIP3    H154962   4.601   0.356   6.503 -1.1325 -0.9590 -0.2112
11157TIP3    H254963   4.537   0.487   6.544  0.0478 -0.3320 -0.3289
11158TIP3   OH254964   5.593   4.235   2.185  0.0062 -0.8366  0.2009
11158TIP3    H154965   5.506   4.224   2.224  0.0491 -3.6443 -0.3797
11158TIP3    H254966   5.621   4.146   2.164  2.6649  0.1144 -0.4328
11159TIP3   OH254967   3.806   1.258  13.787  0.1940  0.2064  0.5811
11159TIP3    H154968   3.887   1.254  13.737 -0.4754 -2.3138 -0.4014
11159TIP3    H254969   3.802   1.174  13.834 -1.8686  0.2334  0.5177
11160TIP3   OH254970   0.701   2.228   3.291 -0.0911  0.7097  0.2377
11160TIP3    H154971   0.661   2.166   3.352  0.4474  0.1602  0.0341
11160TIP3    H254972   0.742   2.173   3.224  1.4952  1.2384  0.7472
11161TIP3   OH254973   1.296   1.009   2.954 -0.6591 -0.1029 -0.1130
11161TIP3    H154974   1.345   1.066   3.013 -1.6660  0.5102  0.1359
11161TIP3    H254975   1.316   0.920   2.985 -0.4314  0.1784  0.5568
11162TIP3   OH254976   2.943   5.952   0.246  0.2327  0.5991 -0.6971
11162TIP3    H154977   2.948   5.896   0.168 -3.4153 -1.3358  0.3655
11162TIP3    H254978   2.894   6.029   0.216 -0.5050  0.1987 -0.5388
11163TIP3   OH254979   2.704   3.944   6.128  0.4698 -0.2382 -0.0640
11163TIP3    H154980   2.690   3.948   6.223 -4.4654  0.4348 -0.7067
11163TIP3    H254981   2.723   4.035   6.104 -0.7414  0.0385 -0.0116
11164TIP3   OH254982   0.892   0.245  13.028  0.0678  0.0741  0.3963
11164TIP3    H154983   0.931   0.229  13.114 -0.6910  0.7885  0.8883
11164TIP3    H254984   0.815   0.299  13.047 -0.5479 -0.4234 -0.6549
11165TIP3   OH254985   0.669   4.800  14.987  0.3290 -0.0556 -0.1743
11165TIP3    H154986   0.661   4.795  14.891 -0.0348 -0.2422 -0.1365
11165TIP3    H254987   0.740   4.740  15.008  0.4380  0.0167 -0.3334
11166TIP3   OH254988   4.579   3.473  17.172  0.0320  0.3296  0.0536
11166TIP3    H154989   4.643   3.530  17.130  0.5847 -0.9907 -0.9624
11166TIP3    H254990   4.528   3.530  17.229  1.7750  1.4908  0.4712
11167TIP3   OH254991   3.019   1.988   0.749  0.7664 -0.7038 -0.0186
11167TIP3    H154992   3.103   2.023   0.779  0.8745 -1.0388  0.0673
11167TIP3    H254993   3.001   1.914   0.806 -0.7503  0.7848  1.4957
11168TIP3   OH254994   6.025   1.147  12.537 -0.3650 -0.2845  0.1906
11168TIP3    H154995   6.107   1.099  12.549 -1.2366 -1.5771  1.1368
11168TIP3    H254996   6.045   1.237  12.564  0.9711 -0.3735 -0.4789
11169TIP3   OH254997   1.213   3.783  13.393  0.3906  0.2289  0.2830
11169TIP3    H154998   1.220   3.871  13.430 -0.0353  0.6065 -0.5098
11169TIP3    H254999   1.135   3.746  13.436  0.8570  0.0464  0.9884
11170TIP3   OH255000   1.688   0.535  14.741 -0.5095  0.2282 -0.9407
11170TIP3    H155001   1.688   0.631  14.733  1.0265  0.2411 -1.0573
11170TIP3    H255002   1.620   0.516  14.806  0.7177  1.5682  0.8002
11171TIP3   OH255003   5.650   3.208  14.451  0.1974 -0.1001 -0.1886
11171TIP3    H155004   5.656   3.116  14.426  0.7928 -0.4752  1.2558
11171TIP3    H255005   5.639   3.206  14.546 -0.0199  1.3203 -0.1670
11172TIP3   OH255006   4.702   1.607  12.393 -0.7058 -0.1525 -0.2614
11172TIP3    H155007   4.655   1.678  12.437 -0.9421 -0.9239  0.7194
11172TIP3    H255008   4.793   1.618  12.422 -0.6238  0.1328 -0.6163
11173TIP3   OH255009   3.035   4.346  10.690  0.0317 -0.1342 -0.1719
11173TIP3    H155010   3.003   4.294  10.616  0.7888 -1.6275  0.5050
11173TIP3    H255011   3.006   4.435  10.672  0.9765 -0.2933 -2.7360
11174TIP3   OH255012   5.465   3.402   3.527  0.1303  0.0712 -1.0037
11174TIP3    H155013   5.522   3.339   3.571  1.7214  2.0722 -0.1506
11174TIP3    H255014   5.378   3.362   3.532  0.5393 -0.5467  2.4899
11175TIP3   OH255015   3.670   1.553   0.446  0.2507  0.5546  0.1071
11175TIP3    H155016   3.746   1.545   0.504  0.6582 -0.4818 -0.5493
11175TIP3    H255017   3.684   1.636   0.399  1.4928 -0.1014 -0.7167
11176TIP3   OH255018   6.132   0.057  17.249  0.1394 -0.5209 -0.1375
11176TIP3    H155019   6.142   0.024  17.339  0.1098 -1.6671 -0.5502
11176TIP3    H255020   6.037   0.064  17.236  0.1601  2.0170  0.7601
11177TIP3   OH255021   1.459   1.050   6.182 -0.0811 -0.3804 -0.2186
11177TIP3    H155022   1.372   1.011   6.190 -0.3482  0.0629 -0.9119
11177TIP3    H255023   1.441   1.143   6.164  0.5108 -0.8439 -3.4047
11178TIP3   OH255024   0.282   3.121  11.707  0.1590 -0.1623  0.1099
11178TIP3    H155025   0.310   3.055  11.645  2.7867  1.3401 -0.3642
11178TIP3    H255026   0.240   3.188  11.654 -2.4909 -1.3572  0.5872
11179TIP3   OH255027   4.641   2.786  16.004  0.0808 -0.2168  0.0650
11179TIP3    H155028   4.719   2.760  15.956  0.0084 -0.4745  0.0870
11179TIP3    H255029   4.673   2.828  16.083  0.1927 -0.4533  0.1435
11180TIP3   OH255030   4.412   0.107   0.632 -0.0434 -0.1454 -0.0062
11180TIP3    H155031   4.442   0.159   0.706  1.6408  0.1283 -0.8469
11180TIP3    H255032   4.423   0.165   0.556 -0.6646 -0.8098 -0.6133
11181TIP3   OH255033   5.425   4.721  15.664 -0.4031  0.1623 -0.3266
11181TIP3    H155034   5.409   4.627  15.657 -0.8176  0.2668 -0.7871
11181TIP3    H255035   5.346   4.762  15.628 -0.2805  0.6873 -0.0071
11182TIP3   OH255036   5.243   6.533   1.588  0.4605 -0.0191  0.1717
11182TIP3    H155037   5.212   6.540   1.498 -2.8368 -0.5239  1.1871
11182TIP3    H255038   5.244   6.439   1.606  0.9274  0.0880  0.7061
11183TIP3   OH255039   3.579   1.138   0.482 -0.0218 -0.2760  0.4686
11183TIP3    H155040   3.504   1.197   0.473 -1.3775 -2.0607 -0.0920
11183TIP3    H255041   3.634   1.157   0.406 -1.2181 -0.8231 -0.5422
11184TIP3   OH255042   1.046   6.799  12.531 -0.0230  0.8411  0.6299
11184TIP3    H155043   1.077   6.815  12.442  1.0844 -0.4337  0.7736
11184TIP3    H255044   1.097   6.723  12.561  0.6681  2.1496  2.8721
11185TIP3   OH255045   1.187   5.778   4.736 -0.3595  0.0584  0.0723
11185TIP3    H155046   1.271   5.734   4.750  0.1691  1.2052  0.5116
11185TIP3    H255047   1.206   5.871   4.742 -1.3249  0.4041 -1.7022
11186TIP3   OH255048   2.337   1.638   1.713 -0.0738 -0.3900 -0.1320
11186TIP3    H155049   2.395   1.627   1.788  1.0736  0.7399 -0.8419
11186TIP3    H255050   2.263   1.688   1.747  0.5833  0.3767  0.1744
11187TIP3   OH255051   1.780   0.535  15.711 -0.2160  0.4294  0.1469
11187TIP3    H155052   1.842   0.585  15.764 -0.5712  0.3536  0.6404
11187TIP3    H255053   1.811   0.445  15.716 -0.3241  0.4024  0.3351
11188TIP3   OH255054   3.075   6.576   2.951  0.5127  0.0790  0.1043
11188TIP3    H155055   2.980   6.572   2.953  0.5830 -2.0917  1.1074
11188TIP3    H255056   3.100   6.634   3.022 -0.0465  0.4292  0.0115
11189TIP3   OH255057   2.141   1.659   4.102  0.4734 -0.2130  0.0760
11189TIP3    H155058   2.122   1.673   4.009  1.4597  0.3522 -0.0564
11189TIP3    H255059   2.153   1.748   4.137 -1.1002 -0.3599  1.0113
11190TIP3   OH255060   1.988   6.284  15.967  0.5599 -0.3305  0.9952
11190TIP3    H155061   2.011   6.231  16.043 -2.2867 -4.3906 -0.7907
11190TIP3    H255062   1.898   6.313  15.985  0.7396  0.7034  0.2461
11191TIP3   OH255063   4.522   0.576   2.195  0.6125 -0.6709 -0.5990
11191TIP3    H155064   4.439   0.578   2.147 -0.9235  0.5307  1.9836
11191TIP3    H255065   4.551   0.667   2.196 -0.0519 -0.4319  1.7528
11192TIP3   OH255066   2.560   6.301   1.749  0.2126  0.4867  0.0459
11192TIP3    H155067   2.600   6.356   1.682 -0.1351  0.9582  0.2235
11192TIP3    H255068   2.485   6.260   1.705 -0.5304  1.4634  0.3763
11193TIP3   OH255069   6.018   6.008  15.606 -0.2130 -0.0995  0.0560
11193TIP3    H155070   6.015   5.924  15.652 -0.9282 -0.3343 -0.4042
11193TIP3    H255071   5.928   6.040  15.607 -0.3577 -0.3752 -1.6505
11194TIP3   OH255072   0.147   1.115   4.733  0.2692  0.3118 -0.0508
11194TIP3    H155073   0.095   1.159   4.666 -0.6187 -0.5392  0.0748
11194TIP3    H255074   0.117   1.024   4.732  1.5337 -0.1181  0.2446
11195TIP3   OH255075   2.310   6.505   5.678 -0.0437 -0.0379  0.2570
11195TIP3    H155076   2.344   6.418   5.698 -1.6063 -0.6975  0.0427
11195TIP3    H255077   2.230   6.512   5.729 -0.0124  1.2165  0.1438
11196TIP3   OH255078   4.689   4.898   2.651  0.3989  0.2660  0.0577
11196TIP3    H155079   4.662   4.909   2.560  1.2245  2.0243 -0.0011
11196TIP3    H255080   4.777   4.934   2.654  0.2716  0.4739  1.6132
11197TIP3   OH255081   3.830   2.668   1.132 -0.1486  0.1848 -0.0399
11197TIP3    H155082   3.750   2.631   1.169  0.2115 -0.6246 -0.0725
11197TIP3    H255083   3.833   2.635   1.043  0.3649 -0.0038  0.0490
11198TIP3   OH255084   4.642   5.178  15.776  0.1664  0.2708  0.2366
11198TIP3    H155085   4.675   5.099  15.820  0.2575  0.4639  0.5152
11198TIP3    H255086   4.699   5.189  15.700 -0.2850 -0.3335 -0.1918
11199TIP3   OH255087   0.370   4.404  12.164 -0.3585  0.1131 -0.0395
11199TIP3    H155088   0.399   4.492  12.140 -0.3898 -0.3139 -1.6772
11199TIP3    H255089   0.301   4.383  12.101 -1.3722 -0.5233  1.2343
11200TIP3   OH255090   5.891   0.667   5.137 -0.4845 -0.2510 -0.3877
11200TIP3    H155091   5.941   0.594   5.175 -0.1388  0.0239 -0.3175
11200TIP3    H255092   5.879   0.642   5.045 -0.1005 -0.2520 -0.4384
11201TIP3   OH255093   4.914   2.478   1.761 -0.0437  0.1521  0.6395
11201TIP3    H155094   4.980   2.410   1.751  1.3506  1.0125  3.3587
11201TIP3    H255095   4.832   2.431   1.776  0.5187 -0.9286  0.3427
11202TIP3   OH255096   0.498   1.159   2.583  0.4082  0.2102  0.2509
11202TIP3    H155097   0.590   1.170   2.561  0.1623  0.7771 -0.5200
11202TIP3    H255098   0.476   1.070   2.554  0.5107  0.3553 -0.2586
11203TIP3   OH255099   3.776   5.821   4.452  0.0305  0.1907  0.1519
11203TIP3    H155100   3.695   5.773   4.468  0.9602 -1.6290 -0.5122
11203TIP3    H255101   3.750   5.895   4.397 -1.2397 -0.1504  0.2802
11204TIP3   OH255102   2.474   1.635   5.468  0.8601  0.5728  0.0691
11204TIP3    H155103   2.528   1.638   5.388 -0.1435 -1.0206 -0.7026
11204TIP3    H255104   2.516   1.569   5.522  0.4943  0.3408  0.0705
11205TIP3   OH255105   4.665   3.149  11.932 -0.0510 -0.4568 -0.1177
11205TIP3    H155106   4.672   3.164  12.026 -1.5338  1.3596 -0.2657
11205TIP3    H255107   4.661   3.053  11.923 -0.3018 -0.6343  1.6854
11206TIP3   OH255108   1.779   1.276  14.985  0.1106 -0.1514 -0.1708
11206TIP3    H155109   1.693   1.316  14.973 -0.1176 -1.7283 -4.5542
11206TIP3    H255110   1.798   1.287  15.078 -3.8866  2.0858  0.4635
11207TIP3   OH255111   1.425   3.810   1.117  0.4094  0.1120  0.8415
11207TIP3    H155112   1.477   3.866   1.174  0.0617  0.8607  0.4406
11207TIP3    H255113   1.440   3.844   1.029 -0.5537  0.1863  0.6952
11208TIP3   OH255114   0.124   1.522   0.378 -0.2434 -0.2034  0.7590
11208TIP3    H155115   0.206   1.557   0.412 -0.3066  0.6146  0.0777
11208TIP3    H255116   0.063   1.595   0.383 -0.5001 -0.3415 -0.2360
11209TIP3   OH255117   5.135   1.694   6.234  0.2629 -0.1840 -0.2240
11209TIP3    H155118   5.218   1.661   6.199  0.4913  0.1962 -0.0480
11209TIP3    H255119   5.068   1.638   6.195  0.4844  0.5100 -1.6202
11210TIP3   OH255120   3.811   3.997  12.783  0.2337  0.0666 -0.2503
11210TIP3    H155121   3.906   4.005  12.780  0.2034  0.2700 -0.7291
11210TIP3    H255122   3.795   3.927  12.847  0.7994 -1.4382 -1.7022
11211TIP3   OH255123   6.431   6.729   4.926 -0.1713 -0.0406 -0.4825
11211TIP3    H155124   6.349   6.697   4.888 -0.1058 -0.4954 -0.2339
11211TIP3    H255125   6.410   6.747   5.017  0.0241 -0.2041 -0.4071
11212TIP3   OH255126   5.464   6.231  16.114  0.6672  0.4076  0.3610
11212TIP3    H155127   5.479   6.140  16.090 -0.9861 -0.1239  1.2920
11212TIP3    H255128   5.400   6.227  16.185 -0.1902  2.3445 -0.2651
11213TIP3   OH255129   5.134   0.996   5.966 -0.0543 -0.2939  0.9333
11213TIP3    H155130   5.219   1.039   5.962 -0.7040  0.9366 -0.1343
11213TIP3    H255131   5.095   1.027   6.047  0.0134  0.1250  0.8061
11214TIP3   OH255132   3.228   6.046  13.276 -0.5688 -0.2097  0.3584
11214TIP3    H155133   3.229   6.141  13.266 -1.8598 -0.2174  0.0735
11214TIP3    H255134   3.161   6.030  13.343 -0.9716 -0.9790 -0.2257
11215TIP3   OH255135   6.450   6.685  12.691 -0.7598 -0.0673  0.2843
11215TIP3    H155136   6.402   6.613  12.732 -0.0268 -0.1227  1.0510
11215TIP3    H255137   6.523   6.703  12.751 -1.2982  1.7329  0.4276
11216TIP3   OH255138   6.308   4.498  17.276  0.3127  0.0882  0.0472
11216TIP3    H155139   6.298   4.406  17.255  0.8198 -0.1294  0.7621
11216TIP3    H255140   6.289   4.504  17.369 -0.3351  0.8037 -0.1243
11217TIP3   OH255141   0.413   1.417  13.903 -0.7170  0.2100  0.1118
11217TIP3    H155142   0.411   1.326  13.931 -2.1420  0.5000  0.9975
11217TIP3    H255143   0.477   1.459  13.960 -3.1060  0.6513  2.5634
11218TIP3   OH255144   1.047   0.091  14.157  0.3199 -0.0057 -0.0317
11218TIP3    H155145   0.991   0.167  14.140 -0.4914 -0.7453 -0.7053
11218TIP3    H255146   1.128   0.110  14.111  0.2415  0.5944  0.0714
11219TIP3   OH255147   5.653   2.498   5.378  0.4849  0.2501  0.0605
11219TIP3    H155148   5.656   2.564   5.309 -0.3034 -0.3134 -0.5220
11219TIP3    H255149   5.742   2.496   5.412  1.0336  0.1315 -1.3346
11220TIP3   OH255150   0.712   1.368   2.797  0.4841  0.3513 -0.4000
11220TIP3    H155151   0.763   1.305   2.847  0.6504  1.1024  0.3986
11220TIP3    H255152   0.732   1.348   2.706 -0.3231 -1.4548 -0.2082
11221TIP3   OH255153   3.282   5.486  16.579  0.2891  0.2349  0.2769
11221TIP3    H155154   3.215   5.470  16.512  0.0557  0.5024  0.4486
11221TIP3    H255155   3.242   5.458  16.661  0.0668  1.2093  0.5069
11222TIP3   OH255156   1.947   3.296   0.821 -0.8131  0.1240  0.1800
11222TIP3    H155157   1.906   3.335   0.898 -1.7359 -1.6199  0.5907
11222TIP3    H255158   1.939   3.202   0.834  0.4575 -0.2133 -1.2852
11223TIP3   OH255159   3.539   3.515   5.794 -0.2833 -0.2465 -0.5382
11223TIP3    H155160   3.630   3.536   5.818 -0.1806 -1.4670  0.1944
11223TIP3    H255161   3.546   3.475   5.707 -0.2930  1.1231 -1.1710
11224TIP3   OH255162   1.672   3.551   1.936  0.3170  0.0871  0.2980
11224TIP3    H155163   1.611   3.610   1.892  0.1705  0.1179  0.5369
11224TIP3    H255164   1.624   3.468   1.941  0.7784 -0.2390 -0.6323
11225TIP3   OH255165   0.474   3.726   3.854  0.2032 -0.3013 -0.5897
11225TIP3    H155166   0.394   3.678   3.834  0.0121 -0.1128 -0.2800
11225TIP3    H255167   0.462   3.811   3.810  0.3245 -0.3514 -0.7198
11226TIP3   OH255168   2.885   1.830  14.154  0.0605 -0.5923 -0.3782
11226TIP3    H155169   2.859   1.883  14.229  1.9345  0.0070 -0.1269
11226TIP3    H255170   2.905   1.895  14.086 -0.1167 -1.0860 -0.9046
11227TIP3   OH255171   0.334   3.631   0.115 -0.3303 -0.4952 -0.5491
11227TIP3    H155172   0.262   3.687   0.087 -0.5429 -0.2750  0.4321
11227TIP3    H255173   0.320   3.619   0.208  0.3833 -1.2181 -0.5328
11228TIP3   OH255174   2.273   2.480   1.768  0.2658 -0.2576  0.4788
11228TIP3    H155175   2.271   2.433   1.685 -1.6378  1.5933 -0.5769
11228TIP3    H255176   2.190   2.456   1.811  1.1874 -1.1287  1.8143
11229TIP3   OH255177   5.813   2.348  14.172 -0.2506 -0.3876 -0.5749
11229TIP3    H155178   5.736   2.374  14.222 -0.2958  0.0631 -0.8720
11229TIP3    H255179   5.846   2.270  14.216  0.0305  0.3205  0.4898
11230TIP3   OH255180   0.581   1.263  14.558  0.0031 -0.2789  0.7086
11230TIP3    H155181   0.597   1.169  14.565 -0.6515 -0.3694  0.9707
11230TIP3    H255182   0.487   1.271  14.542  0.5808  0.1613 -3.0332
11231TIP3   OH255183   6.631   3.174  16.018  0.0326 -0.3054 -0.3758
11231TIP3    H155184   6.670   3.151  15.933 -0.0563 -0.3731 -0.3991
11231TIP3    H255185   6.632   3.270  16.019 -1.4270 -0.2485 -1.1530
11232TIP3   OH255186   1.202   4.547  16.543  0.0489  0.1796 -0.5530
11232TIP3    H155187   1.228   4.636  16.566 -0.4296  0.4843 -1.1607
11232TIP3    H255188   1.214   4.496  16.623 -0.5479  0.9857  0.0565
11233TIP3   OH255189   2.037   1.365   5.320  0.0447 -0.1656 -0.0987
11233TIP3    H155190   1.973   1.335   5.255 -1.1531  0.2193  0.8759
11233TIP3    H255191   2.095   1.291   5.334 -0.9017 -0.9130 -0.1354
11234TIP3   OH255192   0.469   4.075   0.634  0.4716  0.5082  0.5381
11234TIP3    H155193   0.509   4.158   0.609  2.1479  0.1381  1.9237
11234TIP3    H255194   0.541   4.022   0.667 -1.0253 -0.4794  2.3286
11235TIP3   OH255195   2.653   4.910   0.362 -0.3482 -0.1404  0.4284
11235TIP3    H155196   2.745   4.908   0.339 -0.8530 -1.1201 -1.5840
11235TIP3    H255197   2.635   5.002   0.381  1.4759 -0.2091  2.8640
11236TIP3   OH255198   4.939   6.579   5.070  0.4184 -0.0010  0.1832
11236TIP3    H155199   4.907   6.566   5.159 -1.1129 -0.3707 -0.3989
11236TIP3    H255200   5.008   6.513   5.059 -0.4299 -0.9739  0.5985
11237TIP3   OH255201   1.993   0.579   3.945 -0.4227 -0.8928 -0.0172
11237TIP3    H155202   1.919   0.519   3.953 -0.9546 -0.1176  1.0778
11237TIP3    H255203   2.024   0.590   4.035 -0.9440  1.2055 -0.0611
11238TIP3   OH255204   6.442   4.400   1.402 -0.4044  0.1450 -0.1882
11238TIP3    H155205   6.413   4.492   1.407  0.0917  0.2256  1.9349
11238TIP3    H255206   6.537   4.405   1.411 -0.2566 -0.4997 -1.3637
11239TIP3   OH255207   3.442   2.819  12.266  0.6033 -0.4989 -0.7902
11239TIP3    H155208   3.383   2.776  12.328 -0.2327  1.3325 -0.3071
11239TIP3    H255209   3.518   2.760  12.261  1.2523 -0.1047  2.9349
11240TIP3   OH255210   4.994   1.329   6.404  0.0049  0.3171  0.3111
11240TIP3    H155211   4.917   1.288   6.366  0.8602 -0.3468 -0.7194
11240TIP3    H255212   5.051   1.346   6.329  1.2717 -0.0849  1.1797
11241TIP3   OH255213   0.583   6.441  14.292  0.2329 -0.2086 -0.4896
11241TIP3    H155214   0.675   6.469  14.288 -0.1528  1.1511  0.0427
11241TIP3    H255215   0.542   6.483  14.217  0.1456 -1.2396 -1.0305
11242TIP3   OH255216   0.841   6.555  16.552  0.6374 -0.1183  0.1967
11242TIP3    H155217   0.845   6.542  16.457  1.5782  1.0672  0.0683
11242TIP3    H255218   0.900   6.489  16.588  1.2834  0.2874 -0.1181
11243TIP3   OH255219   4.570   1.859  16.235 -0.2666 -0.0146 -0.3447
11243TIP3    H155220   4.557   1.799  16.309  0.7998  0.2192  0.0352
11243TIP3    H255221   4.512   1.933  16.255 -0.3599 -0.1776 -0.0000
11244TIP3   OH255222   2.802   3.100  11.517 -0.7151 -0.3022  0.1637
11244TIP3    H155223   2.759   3.099  11.432  0.7497  1.8785 -0.6400
11244TIP3    H255224   2.894   3.085  11.497 -0.4469 -0.3932  1.4383
11245TIP3   OH255225   5.417   2.627   3.417 -0.1762 -0.2685  0.9272
11245TIP3    H155226   5.424   2.550   3.473 -1.2637 -0.9560  0.1395
11245TIP3    H255227   5.378   2.694   3.474 -0.8258 -0.8219  1.1397
11246TIP3   OH255228   4.839   3.728  16.632 -0.2633 -0.5512 -0.5665
11246TIP3    H155229   4.760   3.713  16.579 -1.1252  1.0447  0.2601
11246TIP3    H255230   4.868   3.815  16.607 -0.1065 -0.1895  0.8660
11247TIP3   OH255231   0.050   1.379  14.212  0.0288 -0.4804  0.7805
11247TIP3    H155232  -0.034   1.353  14.174  0.8086 -1.0031 -0.6279
11247TIP3    H255233   0.072   1.461  14.168  0.6082 -0.7383  0.5764
11248TIP3   OH255234   6.173   2.113  13.466 -0.0707  0.4179  0.5243
11248TIP3    H155235   6.264   2.104  13.435 -0.4848 -0.2968 -0.5316
11248TIP3    H255236   6.139   2.023  13.465 -1.2881  0.8731 -0.6687
11249TIP3   OH255237   1.485   5.764  11.057 -0.0801 -0.0443 -0.2330
11249TIP3    H155238   1.542   5.831  11.097 -0.6595  0.0487  0.4444
11249TIP3    H255239   1.535   5.732  10.982  0.8008  0.1646  0.2567
11250TIP3   OH255240   5.544   6.612   2.798 -0.0762  0.7844  0.0574
11250TIP3    H155241   5.544   6.600   2.893 -0.2754 -1.3512 -0.1763
11250TIP3    H255242   5.631   6.647   2.779  0.9551 -1.2388  0.7944
11251TIP3   OH255243   4.130   6.212  10.715  0.5101 -0.0041  0.1383
11251TIP3    H155244   4.150   6.233  10.624  0.0938  2.0266  0.4906
11251TIP3    H255245   4.169   6.125  10.729  0.4085 -0.4211 -2.0128
11252TIP3   OH255246   1.426   2.481   0.767  0.2071  0.7766 -0.1268
11252TIP3    H155247   1.427   2.432   0.685 -1.1262 -0.6581  0.6882
11252TIP3    H255248   1.449   2.571   0.742  1.4858  0.0018 -1.8129
11253TIP3   OH255249   3.144   2.029   5.374  0.4600 -0.0797 -0.3024
11253TIP3    H155250   3.059   1.984   5.369 -0.0991  0.8739  0.2925
11253TIP3    H255251   3.148   2.061   5.464  1.0203  0.7011 -0.6049
11254TIP3   OH255252   6.723   3.389  11.672  0.1547  0.4145 -0.2632
11254TIP3    H155253   6.674   3.429  11.600  1.5593 -0.1395 -1.5525
11254TIP3    H255254   6.705   3.445  11.748  0.1259  2.0794 -1.4694
11255TIP3   OH255255   4.437   6.187  12.031  0.3549 -0.3804  0.1072
11255TIP3    H155256   4.487   6.106  12.022  0.5712 -0.1533 -0.7780
11255TIP3    H255257   4.448   6.212  12.123  0.4185 -1.2669  0.3470
11256TIP3   OH255258   3.763   5.399   3.892 -0.0443  0.0982 -0.0521
11256TIP3    H155259   3.714   5.402   3.811  0.4489  0.4254 -0.3369
11256TIP3    H255260   3.855   5.406   3.866  0.1529 -0.3933  0.4836
11257TIP3   OH255261   2.384   1.656   0.148 -0.3913 -0.0672 -0.4339
11257TIP3    H155262   2.316   1.722   0.149 -0.5085 -0.1840 -0.6274
11257TIP3    H255263   2.339   1.574   0.128 -0.6110 -0.6368  2.2205
11258TIP3   OH255264   2.884   2.178  14.008 -0.1267 -0.1437  0.4387
11258TIP3    H155265   2.817   2.187  14.076  1.8060  1.6472  2.1746
11258TIP3    H255266   2.851   2.230  13.935 -2.2748 -2.1707 -0.1317
11259TIP3   OH255267   3.327   4.478  10.737  0.9456 -0.0265  0.7438
11259TIP3    H155268   3.314   4.447  10.827  0.2115 -0.7564  0.3986
11259TIP3    H255269   3.259   4.544  10.725  0.2186 -0.8324  0.3220
11260TIP3   OH255270   4.036   2.700   4.471 -0.4833 -0.1635 -0.0599
11260TIP3    H155271   3.992   2.782   4.447 -0.7052 -0.3964 -0.4524
11260TIP3    H255272   4.128   2.715   4.451 -0.7660 -0.6025 -1.7340
11261TIP3   OH255273   1.564   5.397   3.694 -0.2030 -0.3405  0.5733
11261TIP3    H155274   1.590   5.384   3.603 -1.0306 -0.8783  0.4063
11261TIP3    H255275   1.587   5.315   3.738 -1.0688 -0.6104  0.5415
11262TIP3   OH255276   2.022   1.527  12.923 -0.3196  0.8580  0.0660
11262TIP3    H155277   2.063   1.448  12.957 -0.2611  0.5122 -0.8091
11262TIP3    H255278   1.985   1.569  13.000 -0.2958  0.0150  0.5437
11263TIP3   OH255279   3.212   1.050   1.762 -0.3286  0.2762  0.0857
11263TIP3    H155280   3.238   1.054   1.670 -0.2635  2.6068  0.1791
11263TIP3    H255281   3.199   1.141   1.788 -1.4255 -0.4049  2.0915
11264TIP3   OH255282   2.765   1.132   5.008 -0.6064 -0.0472  0.9802
11264TIP3    H155283   2.821   1.192   4.958 -0.3272 -1.3091 -0.2742
11264TIP3    H255284   2.700   1.102   4.944 -3.5769  2.3650  2.7006
11265TIP3   OH255285   0.944   2.697   1.804  0.0389  0.2981  0.1267
11265TIP3    H155286   0.988   2.628   1.755  1.2025  1.2493 -0.1961
11265TIP3    H255287   0.964   2.678   1.895 -2.9915 -2.0686  0.3503
11266TIP3   OH255288   0.137   4.550  12.491  0.5823 -0.5717  0.8212
11266TIP3    H155289   0.223   4.508  12.493  0.3607 -1.0373  0.5540
11266TIP3    H255290   0.094   4.519  12.571  0.4938 -0.6900  0.7266
11267TIP3   OH255291   0.205   4.131   5.402 -0.3095 -0.3660 -0.3480
11267TIP3    H155292   0.165   4.121   5.489  0.4826  0.7160  0.1656
11267TIP3    H255293   0.133   4.160   5.346 -0.8794 -1.3103 -0.1089
11268TIP3   OH255294   0.391   4.862   3.559 -0.0289 -0.6008 -0.3003
11268TIP3    H155295   0.450   4.875   3.633 -0.5660  0.9342 -0.1228
11268TIP3    H255296   0.329   4.795   3.589  0.1275 -0.4270  0.4109
11269TIP3   OH255297   3.211   0.571  11.721  0.4425 -0.1288 -0.4744
11269TIP3    H155298   3.141   0.559  11.657 -0.0789  0.6465 -0.0426
11269TIP3    H255299   3.168   0.607  11.799  1.2273 -0.1628 -0.0173
11270TIP3   OH255300   0.640   2.708  15.227  0.1008  0.4186 -0.2406
11270TIP3    H155301   0.591   2.645  15.175 -1.7583 -0.7599  2.7772
11270TIP3    H255302   0.596   2.708  15.312  3.4521  1.6375  1.6088
11271TIP3   OH255303   6.005   0.010   2.191  0.6101 -0.0845  0.2397
11271TIP3    H155304   5.918  -0.008   2.156  0.8939 -0.3849 -0.3263
11271TIP3    H255305   5.990   0.065   2.268 -0.0972 -0.3899  0.3219
11272TIP3   OH255306   3.733   0.147  14.017  0.2531  0.0905  0.0596
11272TIP3    H155307   3.750   0.108  14.103  0.5387 -0.3708 -0.2047
11272TIP3    H255308   3.786   0.226  14.015  0.3462  0.0330  0.2527
11273TIP3   OH255309   0.764   6.021   1.826  0.2957 -0.1339 -0.2175
11273TIP3    H155310   0.805   5.959   1.765 -1.4572 -1.2222 -0.3071
11273TIP3    H255311   0.729   6.090   1.770  0.1566 -0.2727 -0.3007
11274TIP3   OH255312   0.530   5.464  11.514  0.1562 -0.7699 -0.8840
11274TIP3    H155313   0.515   5.407  11.590  0.2158  1.5860  0.9291
11274TIP3    H255314   0.625   5.471  11.507  0.1499  0.6425  0.1199
11275TIP3   OH255315   3.992   2.956  15.238 -0.3947 -0.0760  0.5987
11275TIP3    H155316   4.082   2.947  15.269 -0.4938 -2.3122  0.2788
11275TIP3    H255317   3.962   3.039  15.275  1.6597  0.4938  1.0251
11276TIP3   OH255318   5.498   6.029   4.271 -0.0716 -0.4407  0.2219
11276TIP3    H155319   5.520   6.078   4.349 -1.1745 -0.9188  0.8459
11276TIP3    H255320   5.408   5.998   4.286  0.3817 -2.1449 -0.3910
11277TIP3   OH255321   2.930   0.274   1.603  0.2986  0.3405  0.1472
11277TIP3    H155322   2.947   0.368   1.612 -0.0686  0.3676  0.5687
11277TIP3    H255323   2.994   0.245   1.539  0.8962  0.7384  0.5551
11278TIP3   OH255324   4.164   1.620   2.953 -0.5295 -0.4252 -0.0934
11278TIP3    H155325   4.113   1.580   2.882  0.0133 -0.1257 -0.6600
11278TIP3    H255326   4.200   1.545   3.000 -1.2986 -0.6349  0.1701
11279TIP3   OH255327   6.089   2.656  16.885  0.1885  0.6213  0.1481
11279TIP3    H155328   6.134   2.692  16.809  0.3959  2.2240  0.9878
11279TIP3    H255329   6.107   2.562  16.883 -0.5246  0.5242 -2.2369
11280TIP3   OH255330   1.003   2.087   0.993  0.4733 -0.2135 -0.0186
11280TIP3    H155331   1.050   2.090   1.076  1.4257 -0.8873 -0.5321
11280TIP3    H255332   0.951   2.006   0.997  0.2807 -0.0891  0.0405
11281TIP3   OH255333   3.936   0.835   1.438  0.5518 -0.1256  0.0917
11281TIP3    H155334   3.965   0.795   1.356 -0.3981 -0.4949 -0.0656
11281TIP3    H255335   3.849   0.799   1.453  1.6176 -1.7551  2.4408
11282TIP3   OH255336   5.101   4.338   2.909  0.0911  0.4974  0.2180
11282TIP3    H155337   5.092   4.244   2.891  0.2096  0.7980 -1.5268
11282TIP3    H255338   5.058   4.351   2.993 -2.8284 -0.5551 -1.0592
11283TIP3   OH255339   6.206   3.223   4.944 -0.1226  0.0150  0.2949
11283TIP3    H155340   6.118   3.256   4.929 -0.0052 -0.0904 -0.6484
11283TIP3    H255341   6.195   3.129   4.960 -0.1801 -0.0026  0.1499
11284TIP3   OH255342   2.875   4.795   1.033  0.0547  0.6202 -0.1158
11284TIP3    H155343   2.850   4.706   1.006  1.0619  0.2421  0.1517
11284TIP3    H255344   2.838   4.805   1.120  1.4198 -0.2024  0.5711
11285TIP3   OH255345   3.672   4.611   3.763  0.6102  0.5828  0.2049
11285TIP3    H155346   3.674   4.554   3.840 -1.4317 -0.6570 -0.6101
11285TIP3    H255347   3.643   4.696   3.798 -2.1250 -0.4497  0.5934
11286TIP3   OH255348   0.676   4.206   0.454  0.2758 -0.2986  0.2911
11286TIP3    H155349   0.749   4.146   0.471 -0.5364 -1.4565 -0.1895
11286TIP3    H255350   0.636   4.172   0.373  1.5918  2.6622 -1.7113
11287TIP3   OH255351   2.533   0.039  12.605 -0.3801  0.1107  0.0937
11287TIP3    H155352   2.624   0.014  12.618  0.2399  3.2179  2.3271
11287TIP3    H255353   2.482  -0.028  12.650  0.7396 -1.9655 -1.6712
11288TIP3   OH255354   1.807   2.377   1.383 -0.1292 -0.2623  0.1229
11288TIP3    H155355   1.840   2.424   1.307 -1.6796 -0.4388 -0.6748
11288TIP3    H255356   1.818   2.438   1.456  1.0854  0.0165 -0.2928
11289TIP3   OH255357   5.732   4.941   0.710 -0.0590 -0.2179 -0.6219
11289TIP3    H155358   5.693   4.856   0.731 -0.2045  0.1652  0.6994
11289TIP3    H255359   5.787   4.961   0.786 -1.7748  1.9074  0.0953
11290TIP3   OH255360   0.176   1.163  15.579 -0.3900  0.1916  0.7675
11290TIP3    H155361   0.103   1.191  15.635 -2.1256  0.7288 -1.6936
11290TIP3    H255362   0.145   1.083  15.538  0.4403  0.3914 -0.2594
11291TIP3   OH255363   6.141   5.344  16.926 -0.0961  0.5144 -0.0149
11291TIP3    H155364   6.076   5.376  16.865 -0.5793  1.7335  1.1166
11291TIP3    H255365   6.215   5.317  16.871 -0.5716  1.4654 -1.1271
11292TIP3   OH255366   3.190   5.466   2.142 -0.2405  0.3766 -0.0603
11292TIP3    H155367   3.134   5.489   2.068 -0.9305 -0.4208  0.2028
11292TIP3    H255368   3.265   5.421   2.103 -0.8359 -0.4701 -0.2349
11293TIP3   OH255369   2.210   1.913   0.213  0.0374 -0.3228  0.0255
11293TIP3    H155370   2.296   1.946   0.238 -0.3371 -0.4217  1.5240
11293TIP3    H255371   2.151   1.946   0.281 -0.9371 -1.0413 -0.4560
11294TIP3   OH255372   2.363   4.556   3.154  0.1802  0.3283 -0.5754
11294TIP3    H155373   2.353   4.524   3.244  2.1809  0.1209 -0.4027
11294TIP3    H255374   2.444   4.607   3.155  0.3891  0.0787 -2.3102
11295TIP3   OH255375   3.023   0.053   2.164 -0.1428 -0.8898  0.5869
11295TIP3    H155376   3.012   0.146   2.184  0.2842 -0.6660 -0.1639
11295TIP3    H255377   2.939   0.026   2.127  0.5397 -0.1293 -1.6391
11296TIP3   OH255378   4.089   3.931   3.999  0.1666  0.0561  0.1766
11296TIP3    H155379   4.160   3.983   3.961 -2.0016  2.2850 -1.0110
11296TIP3    H255380   4.037   3.902   3.923 -1.8945  1.0471  1.1576
11297TIP3   OH255381   1.775   4.966  15.200  0.2149  0.6561  0.2884
11297TIP3    H155382   1.746   4.990  15.111 -0.3527  0.0895  0.3139
11297TIP3    H255383   1.851   4.909  15.186 -1.3616 -1.4657  0.0673
11298TIP3   OH255384   4.753   2.672   3.980 -0.0304  0.2088 -0.2224
11298TIP3    H155385   4.835   2.636   3.946 -0.7183 -1.6496  0.0322
11298TIP3    H255386   4.696   2.677   3.904 -0.0638  0.3761 -0.1853
11299TIP3   OH255387   2.740   1.135   1.250  0.0428  0.4146  0.6086
11299TIP3    H155388   2.742   1.122   1.155 -0.5959 -2.3801  0.9309
11299TIP3    H255389   2.671   1.200   1.265 -2.1387 -1.5546 -0.6259
11300TIP3   OH255390   0.858   0.908  13.833 -0.7907 -0.0527 -0.0152
11300TIP3    H155391   0.813   0.990  13.848 -0.9504 -0.1253 -0.0934
11300TIP3    H255392   0.813   0.844  13.888 -0.6640 -0.0867  0.0496
11301TIP3   OH255393   2.110   5.722  15.992  0.2500  0.3327 -0.2037
11301TIP3    H155394   2.093   5.713  15.898  0.0831  0.1989 -0.1597
11301TIP3    H255395   2.177   5.656  16.011 -1.0756 -0.9424  0.1411
11302TIP3   OH255396   6.695   6.709   2.460  0.6760  0.2954 -0.4308
11302TIP3    H155397   6.777   6.741   2.498  1.1710 -1.5256  0.0995
11302TIP3    H255398   6.635   6.783   2.466  2.1150  1.4714 -0.2955
11303TIP3   OH255399   4.313   4.076   5.913 -0.7773 -0.3248  0.4737
11303TIP3    H155400   4.384   4.013   5.925 -1.2432 -1.0827 -0.6253
11303TIP3    H255401   4.247   4.029   5.862 -2.0367  0.4057  1.3861
11304TIP3   OH255402   6.715   6.021  14.817 -0.3349  0.1278  0.1729
11304TIP3    H155403   6.736   5.928  14.812 -1.1826 -0.1097  0.8352
11304TIP3    H255404   6.623   6.023  14.845 -0.7494  1.1439 -1.2142
11305TIP3   OH255405   2.122   3.263   4.281  0.3383 -0.0268  0.5767
11305TIP3    H155406   2.065   3.204   4.231 -0.9013  0.6678  1.1522
11305TIP3    H255407   2.169   3.205   4.341 -1.4119 -0.3658  1.6521
11306TIP3   OH255408   2.143   2.143  12.599  0.5277 -0.3346  0.7729
11306TIP3    H155409   2.174   2.144  12.508  1.6693 -1.6685  1.1398
11306TIP3    H255410   2.096   2.061  12.608 -2.4619  1.2679  0.4833
11307TIP3   OH255411   2.202   5.393  15.538  0.2041  0.4896 -0.0709
11307TIP3    H155412   2.234   5.458  15.476  0.5805  1.0972  0.7526
11307TIP3    H255413   2.139   5.341  15.488  0.9506  0.5894 -1.1219
11308TIP3   OH255414   1.553   4.466  15.710  0.2913  0.6016 -0.0699
11308TIP3    H155415   1.626   4.434  15.762 -1.0961 -1.4284  0.7045
11308TIP3    H255416   1.593   4.514  15.638  2.4628 -1.7888 -0.5275
11309TIP3   OH255417   2.818   0.850   1.774 -0.8357  0.5867  0.1062
11309TIP3    H155418   2.827   0.884   1.685 -0.4905 -0.0988 -0.1244
11309TIP3    H255419   2.902   0.808   1.792 -1.1973  0.0093  0.4475
11310TIP3   OH255420   1.873   4.222   5.887 -0.7234 -0.1125  0.0114
11310TIP3    H155421   1.899   4.161   5.956  1.2089  2.2264  1.4284
11310TIP3    H255422   1.945   4.218   5.823 -0.7416  0.4358 -0.0448
11311TIP3   OH255423   3.812   0.779   0.820  0.2650  0.0417  0.4947
11311TIP3    H155424   3.776   0.691   0.810 -0.0560  0.1952  0.2905
11311TIP3    H255425   3.774   0.811   0.902  0.9373 -0.2719  0.9421
11312TIP3   OH255426   0.833   3.677   5.146 -0.3853 -0.0660  0.4032
11312TIP3    H155427   0.865   3.743   5.085 -1.5946  0.6364  0.5099
11312TIP3    H255428   0.900   3.672   5.214  1.0372 -0.9537 -1.0373
11313TIP3   OH255429   0.739   3.501   4.906  0.1234  0.6472  0.0800
11313TIP3    H155430   0.645   3.485   4.916  0.6083 -2.4837  0.1772
11313TIP3    H255431   0.765   3.544   4.987 -1.1628  1.3141  0.1551
11314TIP3   OH255432   1.759   1.302  13.159  0.2422  0.5601 -0.2276
11314TIP3    H155433   1.741   1.243  13.232 -1.0653  0.3709 -0.6756
11314TIP3    H255434   1.749   1.247  13.081  1.2188  0.8565 -0.5646
11315TIP3   OH255435   4.790   2.911  15.361 -0.4714 -0.0449  0.0178
11315TIP3    H155436   4.781   3.002  15.388 -1.2888  0.0708 -0.6196
11315TIP3    H255437   4.787   2.914  15.265  1.8957 -0.4953 -0.0912
11316TIP3   OH255438   4.556   2.635   2.167  0.1171 -0.7921  0.0561
11316TIP3    H155439   4.546   2.704   2.233  0.9665  0.0025 -0.6362
11316TIP3    H255440   4.650   2.617   2.165  0.4789  1.0469 -2.7780
11317TIP3   OH255441   3.009   1.808  13.687  0.5566 -0.6759  0.0953
11317TIP3    H155442   3.035   1.864  13.760 -0.4973 -1.0177  0.7495
11317TIP3    H255443   3.008   1.719  13.725  0.5347 -0.9223 -0.4784
11318TIP3   OH255444   5.652   0.681   5.305 -0.1255  0.8179 -0.2528
11318TIP3    H155445   5.650   0.745   5.376  2.1014 -1.3410  1.8836
11318TIP3    H255446   5.740   0.690   5.268  1.5070 -3.1968  2.3125
11319TIP3   OH255447   4.222   4.963  15.705 -0.1000 -0.1836  0.5340
11319TIP3    H155448   4.232   4.909  15.784 -1.6823 -0.7508  0.3865
11319TIP3    H255449   4.284   5.034  15.715 -0.3964 -0.1694  2.3770
11320TIP3   OH255450   0.620   3.219  14.852  1.1203  0.2566 -0.2246
11320TIP3    H155451   0.560   3.193  14.783 -0.1817  2.3851  0.0764
11320TIP3    H255452   0.707   3.212  14.812  0.5654 -1.0601 -1.2294
11321TIP3   OH255453   1.906   4.260  11.599 -0.1030  0.2405 -0.8013
11321TIP3    H155454   1.868   4.307  11.524 -0.1792 -0.2316 -1.0590
11321TIP3    H255455   1.999   4.279  11.594 -0.4104  2.2751  0.4445
11322TIP3   OH255456   6.789   3.478  15.152  0.1156 -0.2514  0.3612
11322TIP3    H155457   6.717   3.526  15.193  0.0341 -0.4079  0.3991
11322TIP3    H255458   6.753   3.392  15.131 -0.0842  0.0970 -0.7660
11323TIP3   OH255459   0.221   5.761   1.051  0.0787  0.1504 -0.0602
11323TIP3    H155460   0.237   5.853   1.029  1.1403 -0.1356 -0.5061
11323TIP3    H255461   0.308   5.724   1.064 -0.3075 -0.9477 -0.5238
11324TIP3   OH255462   4.809   4.499   4.300  0.1337  0.4508  0.4699
11324TIP3    H155463   4.780   4.496   4.391 -2.0946 -0.3707 -0.2311
11324TIP3    H255464   4.859   4.418   4.288 -0.6278 -0.0535  0.6444
11325TIP3   OH255465   4.102   2.937   0.020 -0.1136  0.4095 -0.2598
11325TIP3    H155466   4.145   2.880   0.084  0.4933  0.5594 -0.5259
11325TIP3    H255467   4.161   2.935  -0.056  0.2374  1.8844 -0.0337
11326TIP3   OH255468   2.714   6.399  14.152 -0.1414 -0.2003 -1.0779
11326TIP3    H155469   2.743   6.312  14.124  1.5002  0.6485 -2.0847
11326TIP3    H255470   2.785   6.431  14.207 -1.2051  0.1086  0.1459
11327TIP3   OH255471   2.383   2.267   2.550  0.7249  0.0071 -0.1664
11327TIP3    H155472   2.420   2.349   2.517  0.1413 -0.1129 -1.1534
11327TIP3    H255473   2.291   2.287   2.566  1.2663  0.4440  2.7391
11328TIP3   OH255474   3.224   0.132  11.354 -0.7058  0.1616  0.0861
11328TIP3    H155475   3.271   0.183  11.421  2.3601 -0.9330 -1.1253
11328TIP3    H255476   3.169   0.196  11.310  0.1563  1.6689  1.1415
11329TIP3   OH255477   2.163   5.603  14.382 -0.4421 -0.1023  0.3565
11329TIP3    H155478   2.117   5.618  14.465 -1.8153 -1.0242 -0.2351
11329TIP3    H255479   2.252   5.636  14.398 -1.0559  0.8917  1.7815
11330TIP3   OH255480   3.234   3.524  11.931 -0.3010  0.6976 -0.6437
11330TIP3    H155481   3.321   3.486  11.929 -0.8127 -0.5162 -0.2099
11330TIP3    H255482   3.232   3.574  12.013 -0.1369  0.4414 -0.4827
11331TIP3   OH255483   5.267   6.293  14.210 -0.5922 -0.0044 -0.4404
11331TIP3    H155484   5.257   6.198  14.205 -2.4172  0.0795  0.7476
11331TIP3    H255485   5.340   6.314  14.152  0.8760 -2.2971  0.5170
11332TIP3   OH255486   3.899   2.554   3.515  0.1650 -0.4101  0.1400
11332TIP3    H155487   3.851   2.623   3.561  0.1073  2.0014 -3.3362
11332TIP3    H255488   3.835   2.518   3.454  0.9657 -1.7293  0.0764
11333TIP3   OH255489   6.129   4.213  14.677 -0.0654  0.4274  0.0602
11333TIP3    H155490   6.105   4.172  14.761  0.8715  0.5899  0.4119
11333TIP3    H255491   6.126   4.141  14.614 -0.5262  0.2520  0.2794
11334TIP3   OH255492   6.358   0.501   5.612 -0.1538 -0.2310  0.3888
11334TIP3    H155493   6.354   0.557   5.689 -0.7766 -1.6616  1.4109
11334TIP3    H255494   6.325   0.556   5.541  2.7402  1.9374  0.5827
11335TIP3   OH255495   0.041   4.003   1.675  0.3147 -0.0824 -0.0050
11335TIP3    H155496   0.051   3.916   1.716 -1.1114  0.1935  0.9626
11335TIP3    H255497   0.069   4.064   1.744  0.4050  0.2664 -0.3540
11336TIP3   OH255498   2.025   1.261   4.058  0.6222 -0.1655  0.6400
11336TIP3    H155499   1.944   1.294   4.096  0.3490  0.6081 -0.5825
11336TIP3    H255500   2.091   1.326   4.082  0.5659  0.0278  0.2615
11337TIP3   OH255501   3.157   3.203   2.556  0.3962  0.3240  0.4132
11337TIP3    H155502   3.112   3.251   2.626 -0.8873  0.2661 -0.3571
11337TIP3    H255503   3.108   3.122   2.547  0.9977  0.0112 -0.0534
11338TIP3   OH255504   5.547   1.420  11.279  0.1959  0.1425  0.2516
11338TIP3    H155505   5.458   1.389  11.293  0.7342 -1.1129  0.9511
11338TIP3    H255506   5.556   1.424  11.183  0.0800 -1.8084  0.1363
11339TIP3   OH255507   5.487   0.689  13.545 -0.4776 -0.2162  0.4360
11339TIP3    H155508   5.402   0.649  13.565  0.2279 -1.0828  1.7818
11339TIP3    H255509   5.545   0.657  13.615  0.3137  2.4668  1.0593
11340TIP3   OH255510   3.480   6.543  16.500  0.0748  0.3984  0.2117
11340TIP3    H155511   3.479   6.467  16.558  0.2313  1.4550  1.6400
11340TIP3    H255512   3.415   6.524  16.433 -0.7958 -0.4523  1.2790
11341TIP3   OH255513   1.328   0.429  13.669 -0.1150 -0.2379  0.5890
11341TIP3    H155514   1.238   0.398  13.667 -0.5599  1.0616  0.5266
11341TIP3    H255515   1.360   0.407  13.757 -1.0636  0.9578  1.2285
11342TIP3   OH255516   2.505   6.201   3.108 -0.1684  0.1265  0.3545
11342TIP3    H155517   2.512   6.232   3.017 -1.0172  1.1884  0.6490
11342TIP3    H255518   2.578   6.243   3.153  0.0194 -0.0928  0.2584
11343TIP3   OH255519   6.534   4.883  14.606  0.6454 -0.1886  0.3486
11343TIP3    H155520   6.458   4.933  14.576  2.0316  1.4554 -0.5447
11343TIP3    H255521   6.560   4.832  14.529  0.4937 -0.7029  0.6363
11344TIP3   OH255522   2.939   5.316  12.220  0.2494  0.3503 -0.9416
11344TIP3    H155523   3.014   5.376  12.216  0.2662  0.4701  1.0108
11344TIP3    H255524   2.972   5.238  12.264 -1.0151  0.8137  0.9042
11345TIP3   OH255525   4.304   2.655  12.031  0.6629  0.4701 -0.3605
11345TIP3    H155526   4.303   2.566  12.066  0.8027  0.5632 -0.1181
11345TIP3    H255527   4.260   2.707  12.098  1.5675  0.7717  0.0022
11346TIP3   OH255528   5.941   2.638   3.085 -0.4073 -0.1322  0.7756
11346TIP3    H155529   5.934   2.573   3.155  0.1919  1.1637  2.0507
11346TIP3    H255530   6.035   2.641   3.065 -0.7331 -1.5399 -1.0996
11347TIP3   OH255531   6.776   2.573   3.662 -0.2936 -0.8736 -0.2164
11347TIP3    H155532   6.785   2.569   3.757  1.5312 -1.4518 -0.3842
11347TIP3    H255533   6.722   2.650   3.646 -0.4890 -0.6814  1.2738
11348TIP3   OH255534   3.856   5.205   0.346 -0.3506  0.4188  0.2232
11348TIP3    H155535   3.811   5.192   0.429 -0.2480  3.2315  0.7821
11348TIP3    H255536   3.904   5.287   0.357  1.2486 -0.1724 -1.9469
11349TIP3   OH255537   3.732   1.748  12.964 -0.2139 -0.0607  0.2750
11349TIP3    H155538   3.659   1.712  12.914  0.3485 -0.7831 -0.0394
11349TIP3    H255539   3.810   1.723  12.914  0.2875  0.1350  0.9485
11350TIP3   OH255540   3.915   6.154   6.450  0.1034  0.2008  0.3452
11350TIP3    H155541   3.983   6.202   6.497 -1.0301  2.5696 -0.3585
11350TIP3    H255542   3.962   6.085   6.402  1.8706  1.1738  0.6495
11351TIP3   OH255543   5.511   5.531  13.186 -0.6832  0.2607  0.6885
11351TIP3    H155544   5.545   5.550  13.274 -0.7220  1.0706  0.5305
11351TIP3    H255545   5.529   5.438  13.173  2.2037  0.8391  0.2894
11352TIP3   OH255546   4.902   2.461  13.137  0.6396 -0.0722  0.2063
11352TIP3    H155547   4.936   2.549  13.118 -0.8337  0.3325 -0.6128
11352TIP3    H255548   4.854   2.471  13.219  1.9801 -0.5260  1.0702
11353TIP3   OH255549   0.527   2.262  14.437 -0.0173 -0.0300 -0.1900
11353TIP3    H155550   0.545   2.338  14.493 -1.4058  0.3532 -0.2561
11353TIP3    H255551   0.478   2.297  14.363  0.5374 -0.7821 -0.9298
11354TIP3   OH255552   1.907   5.009   4.710  0.0113 -0.4526  0.0909
11354TIP3    H155553   1.855   5.030   4.787 -1.9633 -2.4001 -0.6368
11354TIP3    H255554   1.879   5.072   4.644 -0.1958 -0.4142  0.2141
11355TIP3   OH255555   0.544   2.442   2.553  0.2587 -0.2519 -0.4055
11355TIP3    H155556   0.567   2.535   2.555 -1.1368  0.0958  0.2758
11355TIP3    H255557   0.460   2.439   2.507  1.0615 -1.3582 -1.8435
11356TIP3   OH255558   0.169   2.324   1.011  0.1516  0.1474  0.5364
11356TIP3    H155559   0.249   2.373   0.991  0.7561 -0.1494  2.1493
11356TIP3    H255560   0.149   2.347   1.101  0.5586 -2.6800  1.4121
11357TIP3   OH255561   2.191   3.164  17.119  0.3174  0.2305 -0.1198
11357TIP3    H155562   2.156   3.126  17.200  2.2823  1.2816  1.2624
11357TIP3    H255563   2.233   3.090  17.075  0.2645 -0.1108  0.3978
11358TIP3   OH255564   0.405   1.487  14.267 -0.1293  0.0851  0.1843
11358TIP3    H155565   0.326   1.529  14.232  0.5047 -0.1746 -1.6361
11358TIP3    H255566   0.437   1.548  14.333 -2.2990 -0.2075  1.5301
11359TIP3   OH255567   3.723   6.012   6.090 -0.3442 -0.0388 -0.2397
11359TIP3    H155568   3.683   5.998   6.004 -0.3690  2.9972 -0.7835
11359TIP3    H255569   3.658   6.065   6.137  1.0821  1.0761  0.4823
11360TIP3   OH255570   5.411   1.967  12.785 -0.7144 -0.0935 -0.0703
11360TIP3    H155571   5.481   1.905  12.764  0.2082  0.5654  1.0418
11360TIP3    H255572   5.413   2.030  12.713  0.4243  0.4263  0.4051
11361TIP3   OH255573   0.047   1.864  14.875  0.2804  0.2752 -0.9586
11361TIP3    H155574  -0.041   1.904  14.872  0.3071  0.3090 -1.2923
11361TIP3    H255575   0.041   1.799  14.945 -0.4333 -0.7201 -1.9322
11362TIP3   OH255576   1.184   6.012   5.816  0.2830 -0.0715 -0.3219
11362TIP3    H155577   1.251   5.958   5.773  0.5278  0.0880 -0.1410
11362TIP3    H255578   1.217   6.101   5.809 -0.0494  0.0381 -0.4829
11363TIP3   OH255579   1.365   3.336   6.023 -0.1630  0.8233  0.0659
11363TIP3    H155580   1.280   3.293   6.014 -0.3326  1.1140  0.2734
11363TIP3    H255581   1.428   3.271   5.992 -0.4105  0.3936  0.4513
11364TIP3   OH255582   3.862   3.486  11.431  0.2774  0.3302  0.0933
11364TIP3    H155583   3.878   3.553  11.364 -0.8532  0.7140  0.2005
11364TIP3    H255584   3.937   3.493  11.490  1.2466  0.0431 -1.0762
11365TIP3   OH255585   3.388   4.775  15.425 -0.6576 -0.1892  0.0958
11365TIP3    H155586   3.349   4.710  15.367 -1.8174  0.2759  0.3443
11365TIP3    H255587   3.332   4.852  15.415  1.4395  1.2110 -1.1763
11366TIP3   OH255588   5.411   2.476   1.700 -0.1472 -0.0824 -0.2019
11366TIP3    H155589   5.382   2.530   1.627 -0.2701  1.3035  0.8434
11366TIP3    H255590   5.391   2.528   1.778 -4.1825 -3.3434  1.1556
11367TIP3   OH255591   1.132   5.215   3.007 -0.8312  0.4201 -0.7494
11367TIP3    H155592   1.196   5.167   3.060 -1.4471  1.7936  1.2720
11367TIP3    H255593   1.185   5.278   2.958 -0.6641  2.2019  1.6263
11368TIP3   OH255594   3.571   5.837   1.674 -0.1796 -0.4678  0.0250
11368TIP3    H155595   3.639   5.793   1.725  0.6595  1.1189  0.3204
11368TIP3    H255596   3.513   5.767   1.644  0.4617 -1.6162  1.4583
11369TIP3   OH255597   5.824   6.726  16.660 -0.0860 -0.6049  0.2762
11369TIP3    H155598   5.880   6.653  16.686  1.1898 -0.1377 -1.0687
11369TIP3    H255599   5.836   6.792  16.729  2.5717  0.2700 -0.9236
11370TIP3   OH255600   2.587   4.043   5.871  0.0456  0.0796  0.2773
11370TIP3    H155601   2.548   4.125   5.841 -0.5993 -0.3660 -0.1349
11370TIP3    H255602   2.638   4.067   5.948 -0.5520  0.7807  0.4604
11371TIP3   OH255603   6.215   5.343   3.871  0.4327 -0.2105 -0.1125
11371TIP3    H155604   6.128   5.304   3.883 -0.0849  0.0035 -2.8216
11371TIP3    H255605   6.210   5.427   3.917 -1.2750  0.4325 -1.4346
11372TIP3   OH255606   2.905   2.875   1.718  0.2449 -0.4886  0.3466
11372TIP3    H155607   2.954   2.806   1.674 -0.7030 -1.0858  0.2198
11372TIP3    H255608   2.835   2.829   1.765 -0.2420  0.3607  0.4611
11373TIP3   OH255609   2.573   4.324  15.747  0.2244 -0.1025 -0.0474
11373TIP3    H155610   2.501   4.294  15.692 -1.5720  0.2141  2.0567
11373TIP3    H255611   2.590   4.413  15.718  0.4926 -0.5336 -1.2457
11374TIP3   OH255612   4.637   4.072  14.762 -0.1880 -0.4337  0.0183
11374TIP3    H155613   4.659   3.978  14.758  2.2126  0.0046  1.6544
11374TIP3    H255614   4.652   4.095  14.854 -0.1872  1.6995 -0.5082
11375TIP3   OH255615   4.050   6.373   5.788 -0.4820 -0.4385  0.6137
11375TIP3    H155616   4.000   6.438   5.740 -0.1281 -0.4872  0.1790
11375TIP3    H255617   4.007   6.368   5.874 -1.0344 -0.2653  0.3446
11376TIP3   OH255618   0.711   0.994   1.481  0.1466 -0.5924 -0.6027
11376TIP3    H155619   0.795   1.039   1.484  0.2446 -0.8332  0.9528
11376TIP3    H255620   0.708   0.952   1.396  0.3058  1.8844 -1.8948
11377TIP3   OH255621   3.778   6.701  11.632 -0.7269 -0.2364 -0.0773
11377TIP3    H155622   3.693   6.673  11.598 -1.7909  1.4185  1.1373
11377TIP3    H255623   3.758   6.739  11.717  1.4793 -1.3991  0.9956
11378TIP3   OH255624   2.876   4.683  12.039  0.1979 -0.3657 -0.1263
11378TIP3    H155625   2.785   4.658  12.024  0.1620 -0.8781  0.9520
11378TIP3    H255626   2.887   4.682  12.134  0.2640  3.5240 -0.0160
11379TIP3   OH255627   0.031   1.599   4.527  0.2876 -0.2235 -0.4081
11379TIP3    H155628  -0.043   1.654   4.553  1.1606  0.9652 -0.3567
11379TIP3    H255629   0.066   1.565   4.609 -1.4972 -2.5295 -0.5824
11380TIP3   OH255630   1.141   4.491   5.700  0.1577  0.4283  0.3187
11380TIP3    H155631   1.193   4.571   5.696  3.1243 -1.4855 -0.7362
11380TIP3    H255632   1.105   4.481   5.612  0.3434  0.2457  0.2633
11381TIP3   OH255633   4.930   1.758  11.685 -0.1939 -0.4463  0.1397
11381TIP3    H155634   4.917   1.685  11.624 -2.0310  1.1544 -1.4725
11381TIP3    H255635   4.876   1.829  11.649  0.2643  1.1910  2.5517
11382TIP3   OH255636   6.133   1.294  13.797  0.3310  0.1912  0.2008
11382TIP3    H155637   6.172   1.207  13.802 -0.3172 -0.0790  0.5733
11382TIP3    H255638   6.067   1.286  13.728  1.1963  0.7549 -0.7093
11383TIP3   OH255639   1.255   4.212   2.606 -0.7432 -0.3216 -0.1389
11383TIP3    H155640   1.326   4.169   2.557 -0.6563 -0.6938  0.3135
11383TIP3    H255641   1.294   4.293   2.639 -0.6091 -0.3907 -0.1251
11384TIP3   OH255642   5.410   1.677  14.913  0.0050  0.0015  0.7514
11384TIP3    H155643   5.369   1.757  14.880  0.8892  0.8028  1.5779
11384TIP3    H255644   5.503   1.695  14.913  0.5143 -2.2623 -2.3115
11385TIP3   OH255645   1.877   5.361   4.054 -0.7835 -0.2746  0.3546
11385TIP3    H155646   1.893   5.299   4.126  0.0708  0.8881  1.1788
11385TIP3    H255647   1.807   5.418   4.086 -0.2032  0.4285  0.3687
11386TIP3   OH255648   4.791   2.331  11.435  0.1806 -0.1411 -0.3786
11386TIP3    H155649   4.850   2.257  11.422  1.0050  0.4215  0.1283
11386TIP3    H255650   4.708   2.301  11.399  0.9242 -0.7099 -1.6626
11387TIP3   OH255651   6.610   5.883   4.565  0.4762 -0.2622 -0.6376
11387TIP3    H155652   6.556   5.847   4.635 -0.1172  1.7214 -0.0616
11387TIP3    H255653   6.682   5.820   4.556 -1.2167 -2.2694 -0.5549
11388TIP3   OH255654   1.265   2.121   0.311  0.3096 -0.0895 -0.0846
11388TIP3    H155655   1.340   2.145   0.365 -0.6576 -0.5080  1.4878
11388TIP3    H255656   1.258   2.192   0.247  2.7375 -0.6506 -1.0205
11389TIP3   OH255657   1.929   2.464  11.258 -0.5844 -0.0558 -0.0560
11389TIP3    H155658   1.869   2.537  11.244 -1.2826 -0.5115  0.4641
11389TIP3    H255659   1.899   2.395  11.198  1.0788  0.6400 -1.7293
11390TIP3   OH255660   3.113   4.744   3.899  0.5458 -0.5825  0.1664
11390TIP3    H155661   3.068   4.673   3.853  0.4408 -0.2655 -0.2227
11390TIP3    H255662   3.174   4.779   3.834  0.8089 -0.5102  0.4523
11391TIP3   OH255663   1.180   3.563   5.964  0.5141  0.1345 -0.4004
11391TIP3    H155664   1.187   3.655   5.991 -1.2811  0.1427  0.1012
11391TIP3    H255665   1.248   3.518   6.014  1.3265  1.1706 -0.5636
11392TIP3   OH255666   4.957   6.615   0.884  0.5184 -0.2966  0.3085
11392TIP3    H155667   4.958   6.683   0.951  1.2548  0.7186 -0.7131
11392TIP3    H255668   4.869   6.619   0.847  0.2231 -0.6222  0.9755
11393TIP3   OH255669   4.000   4.165   4.128  0.3043  0.3675 -0.3522
11393TIP3    H155670   3.920   4.191   4.173 -1.0009  1.2581 -3.1020
11393TIP3    H255671   4.003   4.069   4.139 -0.2575  0.4928  1.1132
11394TIP3   OH255672   1.938   6.331   0.571 -0.7769 -0.0543 -0.0299
11394TIP3    H155673   2.003   6.266   0.599 -0.5933  0.2783  0.3093
11394TIP3    H255674   1.972   6.415   0.602  0.1957  0.5250 -2.5166
11395TIP3   OH255675   5.165   2.505   4.468 -0.1165  0.2328 -0.0027
11395TIP3    H155676   5.142   2.485   4.377 -1.1067  2.6729 -0.3184
11395TIP3    H255677   5.248   2.459   4.482  1.9402  2.6777 -3.2889
11396TIP3   OH255678   1.734   5.914  15.217  0.3100 -0.9013 -0.6601
11396TIP3    H155679   1.644   5.888  15.231  0.5757 -1.1024  0.7849
11396TIP3    H255680   1.743   5.996  15.267  0.9313 -0.8976 -0.7730
11397TIP3   OH255681   5.684   1.341   1.171  0.1008 -0.2561 -0.3692
11397TIP3    H155682   5.591   1.342   1.147  0.3983 -0.0189 -1.5856
11397TIP3    H255683   5.703   1.431   1.199  0.0014 -0.2579 -0.2972
11398TIP3   OH255684   1.372   1.099   3.822  0.0023  0.1919 -0.1095
11398TIP3    H155685   1.350   1.190   3.842 -0.8892  0.2416 -1.2603
11398TIP3    H255686   1.338   1.049   3.896  0.6836  0.8074  0.6254
11399TIP3   OH255687   2.414   3.926   1.805  0.5619  0.1376  0.4561
11399TIP3    H155688   2.453   3.860   1.863 -0.0135  1.3981  2.3168
11399TIP3    H255689   2.325   3.893   1.788  1.2142 -0.9664 -0.9379
11400TIP3   OH255690   6.194   5.724   3.452  0.0537  0.2402 -0.3754
11400TIP3    H155691   6.111   5.767   3.468  0.5722  0.6086  1.3917
11400TIP3    H255692   6.260   5.790   3.471  0.7912 -0.5903 -0.0026
11401TIP3   OH255693   0.421   3.119   5.060  0.4963  0.3966 -0.0655
11401TIP3    H155694   0.455   3.041   5.017 -1.2386 -0.6159  0.3462
11401TIP3    H255695   0.434   3.104   5.153  0.8517  0.9348 -0.0253
11402TIP3   OH255696   6.217   2.967   3.852 -0.7496 -0.4151 -0.5838
11402TIP3    H155697   6.224   2.947   3.759  1.2855 -2.2589 -0.0947
11402TIP3    H255698   6.303   3.001   3.876 -0.7340 -1.4411  0.9162
11403TIP3   OH255699   3.539   0.342  12.132 -0.5611  0.0242  0.3574
11403TIP3    H155700   3.570   0.294  12.056 -1.4326 -1.9165  1.1985
11403TIP3    H255701   3.502   0.275  12.190 -3.0734  1.8360  0.9398
11404TIP3   OH255702   5.935   6.761   3.772 -0.7943  0.0260 -0.3046
11404TIP3    H155703   6.028   6.748   3.788 -0.3842  2.5698 -0.3483
11404TIP3    H255704   5.893   6.681   3.804  1.3118 -0.7743  0.5259
11405TIP3   OH255705   4.877   1.035   6.274  0.2612  0.5710  0.0485
11405TIP3    H155706   4.819   1.100   6.233  0.3407  0.1072 -0.8078
11405TIP3    H255707   4.965   1.065   6.253  0.2906 -0.0522 -0.7182
11406TIP3   OH255708   6.563   4.550   2.995 -0.0798 -0.3471  0.6628
11406TIP3    H155709   6.559   4.542   3.090 -1.5253  1.4937  0.7942
11406TIP3    H255710   6.566   4.645   2.979  2.3537 -0.6481 -1.0736
11407TIP3   OH255711   1.210   3.799  10.824  0.7359  0.2787  0.5277
11407TIP3    H155712   1.182   3.880  10.782  2.0850  0.7775  0.5518
11407TIP3    H255713   1.185   3.730  10.763  3.2095  1.0327 -1.4441
11408TIP3   OH255714   5.192   4.415   1.716 -0.2192  0.3340  0.3816
11408TIP3    H155715   5.117   4.362   1.743 -0.3628  0.0075 -0.6623
11408TIP3    H255716   5.165   4.505   1.732 -0.4288  0.1605  1.0184
11409TIP3   OH255717   0.013   4.713   1.842 -0.3419  0.0214  0.9148
11409TIP3    H155718   0.075   4.700   1.770  2.4717  1.4626  3.0247
11409TIP3    H255719  -0.062   4.658   1.818  2.8259 -3.9694 -0.3723
11410TIP3   OH255720   3.695   4.785   2.350 -0.7977 -0.1485  0.5556
11410TIP3    H155721   3.677   4.778   2.444  0.1493  0.1561  0.7615
11410TIP3    H255722   3.706   4.694   2.322 -0.6156 -0.2169  0.8395
11411TIP3   OH255723   1.772   6.524  17.269 -0.3362 -0.2476  0.3253
11411TIP3    H155724   1.810   6.443  17.302 -0.2956 -1.1554 -1.8378
11411TIP3    H255725   1.762   6.509  17.175 -0.4580  2.1979 -0.0929
11412TIP3   OH255726   1.198   2.059  14.420  0.3098 -0.4271  0.7972
11412TIP3    H155727   1.207   2.021  14.508  0.2608  0.2283  1.0868
11412TIP3    H255728   1.114   2.024  14.388  0.4425 -0.8552  0.9163
11413TIP3   OH255729   3.115   4.432  12.067 -0.0142 -0.0267 -0.0829
11413TIP3    H155730   3.059   4.392  12.133 -0.8791 -1.6632 -1.7580
11413TIP3    H255731   3.053   4.473  12.006  0.7654  1.1705 -0.0847
11414TIP3   OH255732   6.187   3.403  13.817 -0.1488 -0.3561  0.5441
11414TIP3    H155733   6.167   3.425  13.725 -0.4223  0.7451  0.8523
11414TIP3    H255734   6.141   3.321  13.833  0.1883 -0.7453 -0.4094
11415TIP3   OH255735   4.871   3.494   1.459 -0.1764  0.1662  0.2941
11415TIP3    H155736   4.800   3.461   1.514 -1.5646  2.6072  0.0836
11415TIP3    H255737   4.950   3.481   1.512 -1.1254 -0.1355  1.6826
11416TIP3   OH255738   0.070   0.205  16.107 -0.1573  0.0708  0.3903
11416TIP3    H155739   0.131   0.278  16.096 -0.7287  0.4846 -0.0639
11416TIP3    H255740   0.123   0.135  16.146  0.5013  0.5724  0.4034
11417TIP3   OH255741   5.787   3.115  16.621  0.1829 -0.3384 -0.7219
11417TIP3    H155742   5.751   3.044  16.568 -1.8495 -0.4236  0.7468
11417TIP3    H255743   5.756   3.195  16.578 -0.5195 -0.3909 -0.3146
11418TIP3   OH255744   0.358   1.605   2.537  0.1672  0.1050  0.5592
11418TIP3    H155745   0.427   1.546   2.507  0.0056  0.2190 -0.0359
11418TIP3    H255746   0.387   1.633   2.624 -0.1776 -1.5356  1.2232
11419TIP3   OH255747   4.838   3.584  10.130 -0.2480  0.6392  0.2149
11419TIP3    H155748   4.837   3.612  10.039  0.9677 -0.8986 -0.2902
11419TIP3    H255749   4.894   3.647  10.174 -2.2425  2.4334  0.2866
11420TIP3   OH255750   1.248   1.360  13.955  0.3743  0.2674  0.3398
11420TIP3    H155751   1.227   1.450  13.931  2.0283  0.9784  1.4522
11420TIP3    H255752   1.342   1.362  13.975  1.0156 -2.2388 -2.0403
11421TIP3   OH255753   6.057   3.998   5.155 -0.6489 -0.1268 -0.3388
11421TIP3    H155754   6.059   4.009   5.250 -0.3262  0.1261 -0.3722
11421TIP3    H255755   6.127   4.056   5.123 -0.1117 -0.9457 -0.6556
11422TIP3   OH255756   3.219   1.131  17.128 -0.1501  0.4935 -0.0395
11422TIP3    H155757   3.160   1.202  17.153 -0.4331  0.4070 -0.4595
11422TIP3    H255758   3.304   1.173  17.119  0.1930  0.3487  2.0922
11423TIP3   OH255759   3.218   0.146  16.290  0.2802  0.5251 -0.5361
11423TIP3    H155760   3.148   0.100  16.244  1.9298 -0.5643 -1.9867
11423TIP3    H255761   3.260   0.200  16.223  1.5853  0.2536  0.0482
11424TIP3   OH255762   6.318   2.753  16.688  0.3240 -0.3900  0.2126
11424TIP3    H155763   6.334   2.671  16.642  1.0504  0.4187 -0.9961
11424TIP3    H255764   6.332   2.821  16.622 -3.2161  0.6168  0.3568
11425TIP3   OH255765   5.196   1.150  11.652  0.2767  0.2443  0.2395
11425TIP3    H155766   5.129   1.132  11.719  0.2500 -1.2029 -0.1543
11425TIP3    H255767   5.239   1.230  11.682 -1.6313  1.2085  0.5060
11426TIP3   OH255768   6.248   1.801  11.321 -0.0291  0.1414  1.0806
11426TIP3    H155769   6.168   1.771  11.364  0.2683 -1.5028  0.5237
11426TIP3    H255770   6.230   1.892  11.299 -2.7821 -0.9160 -1.4339
11427TIP3   OH255771   5.539   6.193   4.488  0.2187  0.0663  0.0568
11427TIP3    H155772   5.576   6.175   4.575 -0.8385  0.5050  0.6049
11427TIP3    H255773   5.488   6.273   4.500 -1.7030 -1.0523 -0.4466
11428TIP3   OH255774   2.201   3.087   5.452 -0.0663  0.0921 -0.2812
11428TIP3    H155775   2.231   3.006   5.410 -1.3389 -0.0792 -0.9065
11428TIP3    H255776   2.228   3.157   5.393 -0.8139 -0.0538 -0.8015
11429TIP3   OH255777   0.972   6.025   3.094 -0.3302  0.4909 -0.6349
11429TIP3    H155778   0.877   6.018   3.094 -0.3526  0.7754 -0.5074
11429TIP3    H255779   1.003   5.942   3.131 -0.5434  0.5563 -0.3080
11430TIP3   OH255780   4.784   5.684  16.365  0.5165  0.3971 -0.3334
11430TIP3    H155781   4.790   5.652  16.275 -0.1579  4.7915 -2.0939
11430TIP3    H255782   4.692   5.671  16.388 -0.0029  1.9389 -1.4310
11431TIP3   OH255783   1.015   0.958  16.169  0.2706 -0.4367 -0.4125
11431TIP3    H155784   1.029   0.924  16.258 -0.3661 -0.3924 -0.2913
11431TIP3    H255785   1.017   0.880  16.114  1.7097 -0.3457 -0.4881
11432TIP3   OH255786   1.613   2.347  11.381  0.9447  0.1161 -0.2268
11432TIP3    H155787   1.531   2.326  11.335  1.1940 -0.4497 -0.4091
11432TIP3    H255788   1.633   2.437  11.353  0.6041  0.1119 -0.4959
11433TIP3   OH255789   6.741   5.858   0.194  0.7987 -0.3936 -0.2334
11433TIP3    H155790   6.683   5.783   0.208  1.0989 -0.8530 -1.3738
11433TIP3    H255791   6.727   5.913   0.270 -0.5509 -0.8847 -0.1045
11434TIP3   OH255792   0.918   0.784   2.054 -0.4477  0.0420 -0.4827
11434TIP3    H155793   0.908   0.866   2.103  0.6579  0.2417 -0.5828
11434TIP3    H255794   0.888   0.805   1.966  2.1102  1.0381 -1.1572
11435TIP3   OH255795   1.028   4.158   2.771  0.0215  0.8834  0.5189
11435TIP3    H155796   1.121   4.170   2.750  0.4542  0.1958  1.9476
11435TIP3    H255797   1.013   4.064   2.762 -0.7132  1.0756 -0.3475
11436TIP3   OH255798   1.903   1.882  12.119 -0.0720 -0.7028  0.0494
11436TIP3    H155799   1.977   1.855  12.065  1.4974  2.1028  0.7081
11436TIP3    H255800   1.890   1.974  12.097 -1.1128 -0.2275  2.5413
11437TIP3   OH255801   5.264   5.109   5.480  0.4547  0.5017  0.6055
11437TIP3    H155802   5.227   5.172   5.418 -0.3303 -1.1311 -0.6542
11437TIP3    H255803   5.353   5.138   5.495 -0.0262  2.1287  0.3692
11438TIP3   OH255804   2.762   5.420  12.042 -0.3620 -0.2421  0.3460
11438TIP3    H155805   2.755   5.507  12.081  0.6408  0.4545 -0.9825
11438TIP3    H255806   2.808   5.368  12.107  1.8734  1.0744 -0.1353
11439TIP3   OH255807   6.458   0.793   6.127 -0.7254 -0.4468 -0.1753
11439TIP3    H155808   6.498   0.709   6.107 -0.6435 -0.0730 -1.6963
11439TIP3    H255809   6.391   0.774   6.192  1.0495 -1.2684  1.4390
11440TIP3   OH255810   1.565   2.025  17.020  0.1829 -0.1286 -0.1603
11440TIP3    H155811   1.621   2.102  17.023 -1.2303  0.9747 -1.4349
11440TIP3    H255812   1.501   2.038  17.090  0.5426 -0.6194  0.2608
11441TIP3   OH255813   1.678   4.466  12.730  0.3266  0.1945 -0.6188
11441TIP3    H155814   1.655   4.383  12.772  1.3224  0.9624  1.5413
11441TIP3    H255815   1.724   4.440  12.650 -0.3316 -1.3292 -0.5207
11442TIP3   OH255816   3.185   6.516   5.529 -0.1831 -0.0459 -0.3343
11442TIP3    H155817   3.245   6.533   5.456  1.1235 -0.5303  0.5926
11442TIP3    H255818   3.133   6.441   5.500  0.8245 -0.6998 -0.5000
11443TIP3   OH255819   3.385   6.425   6.111 -0.4658  0.3658 -0.3234
11443TIP3    H155820   3.474   6.401   6.136 -0.4228  1.1339  0.2691
11443TIP3    H255821   3.339   6.341   6.104 -0.0455  0.0393  0.7082
11444TIP3   OH255822   3.352   6.274   4.183 -0.4253  0.2329  0.0002
11444TIP3    H155823   3.407   6.230   4.117 -0.1796 -0.5120  0.6861
11444TIP3    H255824   3.379   6.366   4.178 -0.0601  0.1037 -0.5974
11445TIP3   OH255825   2.218   5.899   0.775  0.2187  0.4048  0.3896
11445TIP3    H155826   2.126   5.913   0.800  0.2556  0.5350  0.4540
11445TIP3    H255827   2.261   5.874   0.856  0.2061  0.1721  0.3256
11446TIP3   OH255828   2.383   3.973   5.686  0.5336 -0.1117  0.4024
11446TIP3    H155829   2.316   4.039   5.702  2.2402  1.8143 -0.2710
11446TIP3    H255830   2.451   3.991   5.750  1.9894  0.1769 -1.1895
11447TIP3   OH255831   4.463   5.911   5.758 -0.4235 -0.3950 -0.1648
11447TIP3    H155832   4.555   5.896   5.736 -0.8248 -0.9744 -1.4878
11447TIP3    H255833   4.456   5.885   5.850  0.5064 -1.3550 -0.3559
11448TIP3   OH255834   1.670   3.565  10.891  0.1721  0.2341  0.2215
11448TIP3    H155835   1.708   3.653  10.892 -1.6660  1.0796 -0.4735
11448TIP3    H255836   1.675   3.538  10.799 -3.2339  1.4893 -0.4373
11449TIP3   OH255837   1.137   4.345  10.643 -0.0444  0.0929  0.2104
11449TIP3    H155838   1.198   4.332  10.571 -1.9068  0.8367 -1.5405
11449TIP3    H255839   1.190   4.381  10.714  1.7523 -0.4051 -0.8673
11450TIP3   OH255840   3.810   4.049   0.770  0.6097 -0.2458 -0.0498
11450TIP3    H155841   3.850   3.962   0.763 -1.1657 -0.8802 -3.0158
11450TIP3    H255842   3.819   4.086   0.682 -0.7036  1.6403  0.5980
11451TIP3   OH255843   4.656   1.457   3.265 -0.4504  0.5055 -0.8364
11451TIP3    H155844   4.607   1.393   3.214 -0.4969  0.4231 -0.6886
11451TIP3    H255845   4.597   1.533   3.270 -0.0168  0.9241 -1.8246
11452TIP3   OH255846   0.916   0.099  16.140 -0.2387 -0.5130 -0.7095
11452TIP3    H155847   0.970   0.022  16.122  0.3160 -0.0068 -1.2343
11452TIP3    H255848   0.927   0.155  16.063 -1.2584 -0.2602 -0.6755
11453TIP3   OH255849   2.134   2.213  11.242  0.3777 -0.5999  0.0949
11453TIP3    H155850   2.048   2.219  11.201  1.2738  0.3394 -1.6997
11453TIP3    H255851   2.188   2.166  11.179  1.7905  0.9015  0.1324
11454TIP3   OH255852   6.310   2.246  12.123 -0.5228  0.3756  0.0001
11454TIP3    H155853   6.244   2.286  12.066 -0.6087 -0.9674 -0.8744
11454TIP3    H255854   6.275   2.160  12.144 -0.5189  0.8903  2.1840
11455TIP3   OH255855   4.207   0.420   4.509 -0.4290 -0.2019 -0.0598
11455TIP3    H155856   4.194   0.327   4.528  0.0441 -0.2604  0.0064
11455TIP3    H255857   4.256   0.452   4.585 -0.9101  0.1842  0.0856
11456TIP3   OH255858   2.973   1.920  15.209 -0.3437 -0.5545  0.4829
11456TIP3    H155859   2.962   2.013  15.189  0.9534 -0.7023 -0.9995
11456TIP3    H255860   2.932   1.875  15.135  2.6867 -1.1344 -0.9030
11457TIP3   OH255861   5.200   6.711   4.621 -0.4533  0.3324  0.4526
11457TIP3    H155862   5.289   6.739   4.598  0.6733 -2.0981  1.5753
11457TIP3    H255863   5.199   6.714   4.717 -1.1703 -0.8216  0.4830
11458TIP3   OH255864   4.633   1.269  15.210  0.2237 -0.7212  0.2587
11458TIP3    H155865   4.606   1.215  15.136 -0.7519 -2.3044  1.7233
11458TIP3    H255866   4.695   1.213  15.258 -0.0617 -0.1820  1.2720
11459TIP3   OH255867   4.108   4.932   2.757  0.0654 -1.1651  0.6847
11459TIP3    H155868   4.060   4.922   2.839  0.3374  0.2844  1.0250
11459TIP3    H255869   4.200   4.917   2.781  0.2396  0.0858  0.8075
11460TIP3   OH255870   3.691   3.640   2.340 -0.0790 -0.3392  0.5704
11460TIP3    H155871   3.601   3.611   2.331  0.6197 -2.2542 -0.3925
11460TIP3    H255872   3.725   3.640   2.251  1.1553 -0.5502  1.0350
11461TIP3   OH255873   3.475   2.972  15.339 -0.0192 -0.2470 -0.3534
11461TIP3    H155874   3.541   2.987  15.271  0.7072  1.2645  0.6534
11461TIP3    H255875   3.399   3.022  15.309  0.2674  0.3383 -0.1253
11462TIP3   OH255876   3.564   2.726   3.366  0.4351 -0.4000  0.5266
11462TIP3    H155877   3.568   2.671   3.288 -0.6454 -1.1036  0.9542
11462TIP3    H255878   3.537   2.812   3.333 -0.2909 -0.7634  0.1464
11463TIP3   OH255879   1.247   5.288  15.568 -0.1876  0.4953 -0.5479
11463TIP3    H155880   1.194   5.209  15.564  0.3760  0.0172  1.0624
11463TIP3    H255881   1.304   5.283  15.490 -0.2383 -0.6204 -0.5141
11464TIP3   OH255882   3.653   5.763  10.864 -0.9037  0.1942  0.1440
11464TIP3    H155883   3.635   5.778  10.957  0.0053  2.8891 -0.0641
11464TIP3    H255884   3.586   5.813  10.818  0.0706  0.7894 -0.6407
11465TIP3   OH255885   0.048   1.616  13.178 -0.1070  0.6012  0.3450
11465TIP3    H155886   0.102   1.540  13.159 -1.6693 -0.6570  0.7925
11465TIP3    H255887   0.088   1.657  13.255 -0.0968 -0.6297  1.0017
11466TIP3   OH255888   6.713   3.556   5.507 -0.0640  0.2852 -0.7043
11466TIP3    H155889   6.618   3.548   5.523  0.3137 -0.5206  1.3317
11466TIP3    H255890   6.722   3.551   5.412 -2.2600  2.4372 -1.0934
11467TIP3   OH255891   2.957   4.162  15.362 -0.3531 -0.1410 -0.2471
11467TIP3    H155892   3.045   4.148  15.397  0.0052  2.2377 -0.1572
11467TIP3    H255893   2.903   4.098  15.409  1.0004 -0.4176  0.9774
11468TIP3   OH255894   4.129   1.207  14.812  0.4034  0.3013 -0.9206
11468TIP3    H155895   4.148   1.292  14.851  0.2990  0.0998 -0.4354
11468TIP3    H255896   4.170   1.143  14.870 -1.5480 -0.1343  0.0259
11469TIP3   OH255897   3.964   6.467   5.041  0.4125 -0.5473  0.2622
11469TIP3    H155898   3.987   6.510   5.123  0.5679 -0.9422  0.4292
11469TIP3    H255899   4.013   6.514   4.974 -1.6851  1.4301  0.0639
11470TIP3   OH255900   5.179   5.085  16.317 -0.6287  0.1936  0.6624
11470TIP3    H155901   5.250   5.119  16.264 -0.4380 -0.2589  0.6293
11470TIP3    H255902   5.209   5.094  16.407 -1.7219  2.7528  0.8137
11471TIP3   OH255903   1.059   1.618  14.015 -0.0967 -0.3821 -0.6005
11471TIP3    H155904   0.980   1.578  14.051  0.4653 -0.3542  0.6864
11471TIP3    H255905   1.035   1.640  13.924 -1.8030  0.2874 -0.0158
11472TIP3   OH255906   3.410   4.814   4.096 -0.4438 -0.2002  0.5174
11472TIP3    H155907   3.335   4.755   4.108  1.0420 -2.4941 -0.8740
11472TIP3    H255908   3.455   4.813   4.180  0.6623 -2.7329 -0.0508
11473TIP3   OH255909   5.786   6.613  11.603 -0.1657  0.0251 -0.4481
11473TIP3    H155910   5.697   6.589  11.628 -0.3503 -0.7398 -1.7844
11473TIP3    H255911   5.797   6.702  11.637 -1.3549  0.0375 -0.0723
11474TIP3   OH255912   6.455   1.675   0.627 -0.3552  0.1971  0.9402
11474TIP3    H155913   6.459   1.624   0.546  3.5593 -1.5192  2.0870
11474TIP3    H255914   6.508   1.753   0.609 -2.4228  1.6068  0.7543
11475TIP3   OH255915   3.194   5.943  10.395  0.4673  0.6310  0.2420
11475TIP3    H155916   3.132   5.914  10.462  0.4642  0.8496  0.3345
11475TIP3    H255917   3.235   6.021  10.432 -0.1682  1.2635 -0.3785
11476TIP3   OH255918   1.605   5.192  16.221 -0.2548  0.4579 -0.7024
11476TIP3    H155919   1.653   5.246  16.284 -0.3373  1.8731 -1.8282
11476TIP3    H255920   1.646   5.106  16.229  1.8710  1.4005 -0.9588
11477TIP3   OH255921   0.223   2.610   1.542  0.1747 -0.4119  0.0496
11477TIP3    H155922   0.217   2.562   1.625  0.2605 -0.4307  0.0455
11477TIP3    H255923   0.148   2.580   1.491  0.6211 -1.0675 -0.2276
11478TIP3   OH255924   2.092   5.601  13.184 -0.1825 -0.2426 -0.1277
11478TIP3    H155925   2.094   5.521  13.131 -0.3840 -1.4597  1.6868
11478TIP3    H255926   2.067   5.572  13.271  0.9169  1.6559  0.8394
11479TIP3   OH255927   1.929   5.507  12.244 -0.1818 -0.4915  0.2656
11479TIP3    H155928   1.878   5.587  12.236  0.2948 -0.4608 -3.3410
11479TIP3    H255929   1.929   5.488  12.338 -0.6809  3.4617  1.1766
11480TIP3   OH255930   2.974   6.177   1.369 -0.3306 -0.7101  0.1350
11480TIP3    H155931   2.956   6.154   1.278 -1.9761  2.0368 -0.2950
11480TIP3    H255932   3.067   6.199   1.370  0.0878 -2.3281 -0.4831
11481TIP3   OH255933   4.877   1.497   4.103 -0.3274 -0.8756 -1.0375
11481TIP3    H155934   4.831   1.416   4.127  0.3117 -0.5166  1.5351
11481TIP3    H255935   4.806   1.557   4.080 -0.9055 -1.6447 -1.3147
11482TIP3   OH255936   4.839   5.273  13.747 -0.2318 -0.3886 -0.3627
11482TIP3    H155937   4.929   5.248  13.770 -1.3105 -2.0693  2.2299
11482TIP3    H255938   4.831   5.248  13.655  1.5740 -1.4339 -0.2785
11483TIP3   OH255939   3.470   3.110  14.846 -0.7538 -0.3079 -0.0471
11483TIP3    H155940   3.450   3.204  14.843 -1.2702 -0.4062  0.3482
11483TIP3    H255941   3.565   3.106  14.833 -0.6390  0.3055  0.5894
11484TIP3   OH255942   5.142   5.407  16.139 -0.6351 -0.2205 -0.5323
11484TIP3    H155943   5.227   5.364  16.148  0.1389  1.0960 -1.4131
11484TIP3    H255944   5.082   5.337  16.115  0.3952 -0.9943 -0.8846
11485TIP3   OH255945   2.652   0.733   5.501 -0.0976 -0.2817  0.5187
11485TIP3    H155946   2.736   0.731   5.455  0.7357 -2.0040  2.0059
11485TIP3    H255947   2.644   0.645   5.539 -1.3575  0.6544  2.5211
11486TIP3   OH255948   3.352   2.758  14.798  0.2342  0.1477 -0.0459
11486TIP3    H155949   3.374   2.818  14.727  0.5205 -0.0714 -0.1430
11486TIP3    H255950   3.321   2.679  14.753 -2.4994  1.0889  0.0991
11487TIP3   OH255951   3.170   6.040  11.053  0.0080 -0.2731 -0.6832
11487TIP3    H155952   3.139   6.086  11.131  1.1247 -0.0657 -0.3435
11487TIP3    H255953   3.191   5.952  11.083 -1.6856 -0.8743 -1.2362
11488TIP3   OH255954   4.054   5.009  13.447  1.0231 -0.0844  0.4523
11488TIP3    H155955   4.065   5.101  13.424 -0.1055 -0.1561 -0.4529
11488TIP3    H255956   4.033   5.010  13.540  0.4924  0.6317  0.3309
11489TIP3   OH255957   5.615   3.991  15.096 -0.0536  0.2791 -0.1833
11489TIP3    H155958   5.614   3.920  15.160  2.0357 -0.4368 -0.9015
11489TIP3    H255959   5.667   4.060  15.139  1.7436 -0.3767 -1.2411
11490TIP3   OH255960   3.041   6.711  11.928  0.1670 -0.2763 -0.0767
11490TIP3    H155961   2.954   6.671  11.936  1.0090 -2.3212 -0.6468
11490TIP3    H255962   3.100   6.649  11.970  1.2409  1.6190  1.2816
11491TIP3   OH255963   2.498   4.063   3.722 -0.4184  0.0967 -0.2908
11491TIP3    H155964   2.500   3.984   3.776 -1.0432  0.7948  0.7558
11491TIP3    H255965   2.435   4.043   3.653 -0.3688 -0.4159 -0.1910
11492TIP3   OH255966   0.002   6.474   4.655 -0.6045  0.7256 -0.5750
11492TIP3    H155967   0.094   6.452   4.640 -0.5581  0.4129  0.1171
11492TIP3    H255968  -0.026   6.518   4.575 -0.4706 -1.1575 -1.6819
11493TIP3   OH255969   1.224   0.083  12.701 -0.7384  0.2657  0.3127
11493TIP3    H155970   1.161   0.053  12.636 -0.1232 -0.8179  0.2015
11493TIP3    H255971   1.309   0.061  12.663 -0.3569  0.1689  1.2272
11494TIP3   OH255972   5.962   5.213   1.652  0.2721  0.4253  0.2724
11494TIP3    H155973   5.915   5.170   1.723 -1.3558 -2.2537 -2.3486
11494TIP3    H255974   6.048   5.172   1.651  0.3050  0.4852  0.6923
11495TIP3   OH255975   6.807   2.825  14.118  0.1356 -0.0689 -0.2844
11495TIP3    H155976   6.802   2.893  14.185  1.8762 -0.6696  0.5022
11495TIP3    H255977   6.716   2.798  14.103 -0.6171  2.6786 -0.9052
11496TIP3   OH255978   3.122   2.466  12.008  0.4783 -0.0584 -0.0405
11496TIP3    H155979   3.196   2.492  11.954  0.8589 -0.7330  0.1569
11496TIP3    H255980   3.105   2.541  12.065  0.7738  0.2301 -0.3317
11497TIP3   OH255981   4.911   3.105  13.424  0.2512 -0.7293  0.0458
11497TIP3    H155982   4.917   3.025  13.477 -1.4930 -0.8030  0.1676
11497TIP3    H255983   4.890   3.174  13.488 -1.8780 -0.8188 -0.5303
11498TIP3   OH255984   4.299   2.214  14.413 -0.2059  0.2250  0.3663
11498TIP3    H155985   4.237   2.279  14.382  0.7771  1.2327  0.4906
11498TIP3    H255986   4.247   2.134  14.423 -1.0177  0.4853 -1.6092
11499TIP3   OH255987   1.931   0.649  11.794 -0.4232  0.1081  0.0616
11499TIP3    H155988   1.954   0.636  11.701 -0.0522  2.3524 -0.1874
11499TIP3    H255989   1.901   0.563  11.823  0.4921 -0.8991 -1.8521
11500TIP3   OH255990   3.080   2.220   4.498  0.3521  0.4044 -0.1971
11500TIP3    H155991   3.116   2.134   4.475  0.6395  0.7853 -1.1969
11500TIP3    H255992   2.985   2.207   4.497  0.4104 -0.1451  0.6428
11501TIP3   OH255993   5.378   4.467   3.498  0.7563  0.0038 -0.1864
11501TIP3    H155994   5.474   4.467   3.495  0.7696 -1.2661 -0.1068
11501TIP3    H255995   5.356   4.388   3.548 -0.3729 -0.7109 -1.7933
11502TIP3   OH255996   4.179   5.989   1.086  0.1702 -0.0871  0.3349
11502TIP3    H155997   4.229   6.052   1.033 -0.3700  0.3841  0.3915
11502TIP3    H255998   4.145   6.040   1.158 -0.1216 -0.4875  0.4798
11503TIP3   OH255999   4.214   1.433  12.438 -0.2193  0.0867  0.0988
11503TIP3    H156000   4.284   1.368  12.429 -0.8341 -0.6259  0.4645
11503TIP3    H256001   4.227   1.492  12.364 -0.2247 -0.9787 -0.7661
11504TIP3   OH256002   1.024   0.697  14.180  0.9115 -0.5969 -0.2018
11504TIP3    H156003   0.963   0.769  14.167  1.3139 -0.3597 -0.8583
11504TIP3    H256004   1.099   0.737  14.225  0.8989 -0.7174 -0.0771
11505TIP3   OH256005   1.579   1.105   4.664 -0.3770 -0.7100 -0.4868
11505TIP3    H156006   1.670   1.134   4.662 -0.9391  1.0863 -0.4609
11505TIP3    H256007   1.565   1.073   4.753 -0.9973  3.1058  0.8622
11506TIP3   OH256008   3.391   1.069  10.477  0.6465  0.0679 -0.6857
11506TIP3    H156009   3.386   1.162  10.499  0.6985  0.4080 -2.0114
11506TIP3    H256010   3.441   1.029  10.548 -1.0203  0.7181  0.8669
11507TIP3   OH256011   4.429   3.230   2.070  0.5102 -0.0434  0.1630
11507TIP3    H156012   4.453   3.149   2.025  0.8745  0.2511 -0.1646
11507TIP3    H256013   4.358   3.203   2.130  0.8505 -0.6697  0.2925
11508TIP3   OH256014   6.664   3.466   2.682  0.1407 -0.2934 -0.1825
11508TIP3    H156015   6.757   3.451   2.661  0.2347  1.5244 -1.1449
11508TIP3    H256016   6.635   3.530   2.617 -1.4131  0.2647  1.0410
11509TIP3   OH256017   6.505   0.999   5.559  0.0754  0.1858 -0.1915
11509TIP3    H156018   6.526   0.991   5.466  0.5621 -1.1742  0.0384
11509TIP3    H256019   6.579   0.961   5.605 -0.1082  0.9505  0.7759
11510TIP3   OH256020   4.352   2.432  14.018  0.5872 -0.0478  0.0723
11510TIP3    H156021   4.338   2.476  14.102  1.4784 -0.9535  0.7021
11510TIP3    H256022   4.382   2.344  14.042  0.2268 -0.5195 -1.1893
11511TIP3   OH256023   5.420   6.162   2.193  0.3372 -0.0674  1.0800
11511TIP3    H156024   5.474   6.090   2.225  0.5705  0.2634  1.4405
11511TIP3    H256025   5.402   6.215   2.271 -1.4279 -0.7639  1.1707
11512TIP3   OH256026   2.655   5.633  14.978 -0.2469 -0.2729  0.1645
11512TIP3    H156027   2.622   5.588  15.055  0.9635 -0.4695  0.5814
11512TIP3    H256028   2.746   5.603  14.970  0.1496  1.0411 -0.3552
11513TIP3   OH256029   2.650   2.838   3.261  0.0969  0.2550 -0.0436
11513TIP3    H156030   2.734   2.881   3.278  0.2095 -0.0338  0.1451
11513TIP3    H256031   2.660   2.750   3.298 -0.2052  0.1374 -0.2330
11514TIP3   OH256032   1.129   6.613   5.703 -0.2364  0.4743  0.0064
11514TIP3    H156033   1.132   6.672   5.778 -2.4741 -0.1229  0.6091
11514TIP3    H256034   1.065   6.653   5.643  0.0356 -0.0890 -0.6760
11515TIP3   OH256035   0.741   5.895  15.024  0.1747  0.6655 -0.1981
11515TIP3    H156036   0.662   5.878  14.973  0.3334  3.3950 -1.4088
11515TIP3    H256037   0.809   5.846  14.980 -0.3569  0.2821 -0.5989
11516TIP3   OH256038   1.365   6.754  11.982  0.1335  0.2926  0.3547
11516TIP3    H156039   1.319   6.757  12.066 -0.0624 -2.3447  0.4012
11516TIP3    H256040   1.335   6.672  11.942  2.4500  0.0716 -1.0016
11517TIP3   OH256041   5.929   2.430  12.087  0.4102  0.2890 -0.2558
11517TIP3    H156042   5.992   2.492  12.125 -0.3026  1.2179 -0.5574
11517TIP3    H256043   5.844   2.459  12.122  0.0970 -0.6689 -0.2186
11518TIP3   OH256044   4.693   4.460  11.488  0.5764  0.3615  0.2749
11518TIP3    H156045   4.649   4.497  11.412  0.2559  0.1099  0.3314
11518TIP3    H256046   4.751   4.392  11.452 -0.7441 -0.8453  0.3759
11519TIP3   OH256047   0.070   0.367  15.227  0.0204 -0.1265 -0.4541
11519TIP3    H156048   0.131   0.294  15.212 -0.4572 -0.7511  0.5740
11519TIP3    H256049   0.117   0.426  15.286  1.2105  1.4468 -2.9175
11520TIP3   OH256050   4.837   4.856   5.326  0.3637  0.1515 -0.3481
11520TIP3    H156051   4.914   4.806   5.301  0.7794  0.1055  0.9629
11520TIP3    H256052   4.872   4.928   5.379 -0.5414 -0.2448  0.8059
11521TIP3   OH256053   1.418   0.082   4.519  0.3109  0.1013 -0.1601
11521TIP3    H156054   1.358   0.015   4.552 -1.4377  0.9985 -1.4076
11521TIP3    H256055   1.455   0.044   4.439 -0.6602  0.5874 -0.8529
11522TIP3   OH256056   1.396   6.758   4.828  0.0255  0.2278 -0.6019
11522TIP3    H156057   1.357   6.842   4.854  1.6279  0.7010  0.3558
11522TIP3    H256058   1.369   6.697   4.897  0.6657  0.4716 -0.1305
11523TIP3   OH256059   4.823   3.108   0.087 -0.2790 -0.0833  0.6753
11523TIP3    H156060   4.856   3.036   0.034  1.4156  1.2206 -0.0769
11523TIP3    H256061   4.728   3.097   0.085 -0.1531 -0.9990 -1.2900
11524TIP3   OH256062   5.505   5.222   5.516 -0.3479  0.5256  0.4741
11524TIP3    H156063   5.537   5.227   5.606 -0.2175  0.1041  0.4535
11524TIP3    H256064   5.456   5.303   5.503  0.1139  0.8491  0.7381
11525TIP3   OH256065   0.424   6.419  15.813 -0.2358 -0.2641  0.3606
11525TIP3    H156066   0.365   6.356  15.772  0.1560 -0.4015 -0.0009
11525TIP3    H256067   0.450   6.378  15.895  0.6973 -0.9630 -0.2733
11526TIP3   OH256068   5.800   3.320  15.984  0.2989 -0.0180 -0.2847
11526TIP3    H156069   5.771   3.250  15.925  0.6886  1.6650 -2.5364
11526TIP3    H256070   5.719   3.363  16.012  0.1865  0.0566 -0.7187
11527TIP3   OH256071   5.040   1.012  15.845  0.2370  0.7355  0.2764
11527TIP3    H156072   4.956   1.044  15.812 -1.6709 -1.0724  3.1666
11527TIP3    H256073   5.076   0.961  15.772 -0.9452  1.9264 -1.1628
11528TIP3   OH256074   2.239   0.454   4.767 -0.2707 -0.3956 -0.1094
11528TIP3    H156075   2.285   0.386   4.816 -1.9164 -1.9579 -0.6503
11528TIP3    H256076   2.230   0.527   4.829  1.3659 -0.7208  0.5313
11529TIP3   OH256077   2.723   6.208   1.958  0.4465 -0.1854 -0.3261
11529TIP3    H156078   2.665   6.252   1.896 -0.8419  0.1121  1.0836
11529TIP3    H256079   2.784   6.276   1.986 -0.3634  0.2498  0.4083
11530TIP3   OH256080   2.236   1.746  11.991  0.0009  0.1753  0.2335
11530TIP3    H156081   2.249   1.839  12.012 -0.2611 -0.0658  1.4776
11530TIP3    H256082   2.161   1.747  11.931  2.2304  1.0639 -2.6301
11531TIP3   OH256083   4.112   2.770  16.004 -0.0959  0.3755  0.0800
11531TIP3    H156084   4.030   2.797  16.043  0.8153  0.1238  2.2371
11531TIP3    H256085   4.131   2.685  16.044  0.8229  0.0787 -0.9691
11532TIP3   OH256086   2.641   0.755   2.242  0.2251 -0.0181 -0.0043
11532TIP3    H156087   2.709   0.734   2.178 -0.4187 -1.7153 -0.1597
11532TIP3    H256088   2.688   0.761   2.326  0.9689  1.5681 -0.5110
11533TIP3   OH256089   3.149   6.402   5.784 -0.8320  0.5813 -0.4050
11533TIP3    H156090   3.176   6.450   5.706  2.3257 -0.8235 -0.2671
11533TIP3    H256091   3.089   6.335   5.752  0.4002  0.0580 -1.6126
11534TIP3   OH256092   1.341   4.256   1.745  0.5957  0.3144 -0.0309
11534TIP3    H156093   1.301   4.273   1.831  1.5689 -0.6779  0.6360
11534TIP3    H256094   1.435   4.269   1.760  0.8510 -0.6760 -0.7370
11535TIP3   OH256095   0.595   0.561   3.098  0.5288  0.0746  0.3453
11535TIP3    H156096   0.586   0.467   3.117 -0.3689 -0.1690 -1.2446
11535TIP3    H256097   0.687   0.572   3.074  0.4807 -0.5213 -0.1169
11536TIP3   OH256098   1.476   5.565   0.182 -0.3273 -0.1704 -0.3190
11536TIP3    H156099   1.404   5.522   0.228 -0.6637  0.3330 -0.3739
11536TIP3    H256100   1.554   5.518   0.211 -0.2647  1.5922  2.4963
11537TIP3   OH256101   4.234   2.245   0.875 -0.2986  0.2350 -0.0955
11537TIP3    H156102   4.206   2.189   0.803  0.1350  1.0262 -0.8990
11537TIP3    H256103   4.234   2.188   0.952 -3.1250 -0.0451 -0.2469
11538TIP3   OH256104   6.002   1.127   3.995 -0.5115  0.5011 -0.3007
11538TIP3    H156105   5.981   1.150   4.085 -1.4353  0.7265 -0.5630
11538TIP3    H256106   5.924   1.080   3.964  0.5917 -1.3074 -0.3690
11539TIP3   OH256107   1.347   0.373  16.595 -0.3701 -0.3731  0.3132
11539TIP3    H156108   1.261   0.415  16.590  0.2120  0.9640  1.3186
11539TIP3    H256109   1.334   0.298  16.652 -0.4871  0.8229  1.8752
11540TIP3   OH256110   0.789   2.724   3.968  0.4774  0.3711 -0.2652
11540TIP3    H156111   0.876   2.756   3.946  0.9679 -1.6473 -1.4461
11540TIP3    H256112   0.753   2.790   4.027  1.9688  2.2939 -1.4363
11541TIP3   OH256113   6.281   1.389   1.655 -0.1749  0.1714  0.3556
11541TIP3    H156114   6.336   1.429   1.588  0.4792  1.8062  1.8302
11541TIP3    H256115   6.337   1.324   1.697 -0.6339 -0.9649 -0.7544
11542TIP3   OH256116   1.413   0.163  14.236 -0.3430 -0.1878  0.4011
11542TIP3    H156117   1.385   0.248  14.203  0.1021 -0.4301 -0.6154
11542TIP3    H256118   1.446   0.116  14.159 -0.4473 -1.2277  0.9746
11543TIP3   OH256119   6.295   2.445   3.663  0.0143  0.1301 -0.1149
11543TIP3    H156120   6.308   2.476   3.753  1.4720 -0.2087 -0.2059
11543TIP3    H256121   6.324   2.518   3.609 -0.5078  0.1877 -0.3238
11544TIP3   OH256122   2.659   1.899  13.644 -0.1341  0.4221  0.0447
11544TIP3    H156123   2.687   1.990  13.643 -1.9727  1.0220  0.4292
11544TIP3    H256124   2.708   1.858  13.574  0.5224  1.7783 -0.3033
11545TIP3   OH256125   1.101   6.440   2.810  0.4068  0.3887  0.0047
11545TIP3    H156126   1.025   6.404   2.854  0.0479  0.5905 -0.4476
11545TIP3    H256127   1.147   6.364   2.775 -0.2452  0.3533 -0.7782
11546TIP3   OH256128   6.440   3.559   5.288 -0.7186 -0.1107  0.5602
11546TIP3    H156129   6.434   3.478   5.239 -0.0623  0.5957 -0.7103
11546TIP3    H256130   6.497   3.615   5.235  0.9086  0.2863  2.6344
11547TIP3   OH256131   1.990   0.689  15.785  0.7334 -0.6459  0.1163
11547TIP3    H156132   2.029   0.672  15.699  2.0413 -3.4928  1.2386
11547TIP3    H256133   2.057   0.739  15.832  1.1427 -1.4718  0.4179
11548TIP3   OH256134   4.003   1.609   1.562  0.0051 -0.4286 -0.1563
11548TIP3    H156135   3.950   1.674   1.517  2.4021  1.7440  0.0675
11548TIP3    H256136   3.985   1.623   1.655 -0.4243 -0.9484 -0.1555
11549TIP3   OH256137   6.092   4.711  14.203 -0.2881 -0.5244  0.0277
11549TIP3    H156138   6.016   4.678  14.155  1.0211 -1.9674 -1.1001
11549TIP3    H256139   6.108   4.643  14.269 -1.7759  1.2041  2.2500
11550TIP3   OH256140   4.425   2.150  17.070 -0.0809  0.3099 -0.2024
11550TIP3    H156141   4.361   2.106  17.127  0.2166 -0.2908 -0.3287
11550TIP3    H256142   4.406   2.243  17.081 -0.9529  0.1418 -0.2011
11551TIP3   OH256143   0.398   3.442  13.658 -0.5874  0.3023 -0.1733
11551TIP3    H156144   0.408   3.503  13.585  1.3877  0.3833  0.1525
11551TIP3    H256145   0.477   3.454  13.711 -1.2117 -0.9661  1.0716
11552TIP3   OH256146   0.566   5.578   3.095  0.0353  0.5071  0.1761
11552TIP3    H156147   0.599   5.512   3.156 -0.9165 -0.9980 -0.8883
11552TIP3    H256148   0.558   5.531   3.012 -1.2845  1.7918 -0.4388
11553TIP3   OH256149   6.353   6.485   0.131  0.2557 -0.2609  0.7583
11553TIP3    H156150   6.409   6.438   0.191  0.6711 -0.5022  0.1862
11553TIP3    H256151   6.267   6.444   0.141  1.0294 -2.4688 -1.1321
11554TIP3   OH256152   2.384   0.718   0.182 -0.1633 -0.6094  0.1184
11554TIP3    H156153   2.461   0.772   0.170 -0.4433 -0.2634 -0.1373
11554TIP3    H256154   2.362   0.687   0.094 -0.2928 -0.7435  0.1965
11555TIP3   OH256155   6.669   6.074   3.294  0.1660  0.1001  0.3511
11555TIP3    H156156   6.688   6.151   3.239  0.3843 -0.9405 -1.0499
11555TIP3    H256157   6.651   6.111   3.381  0.1727  1.7471 -0.3241
11556TIP3   OH256158   6.402   4.851   1.638 -0.0425 -0.5823  0.7601
11556TIP3    H156159   6.424   4.937   1.601 -2.5723 -0.5789 -0.8608
11556TIP3    H256160   6.359   4.870   1.721 -0.3243 -0.2972  0.5487
11557TIP3   OH256161   1.140   3.853   3.296 -0.0807  0.3208 -0.6348
11557TIP3    H156162   1.084   3.875   3.370  0.6070  1.6755 -0.5109
11557TIP3    H256163   1.156   3.759   3.306 -1.9864 -0.0063 -0.4580
11558TIP3   OH256164   6.019   1.555  14.885  0.7774 -0.1546 -0.4204
11558TIP3    H156165   5.946   1.498  14.862  2.3344 -1.5447 -2.0212
11558TIP3    H256166   5.985   1.644  14.874 -1.1784 -0.7685  0.5563
11559TIP3   OH256167   5.688   1.323   5.131 -0.6319 -0.5571 -0.1402
11559TIP3    H156168   5.665   1.416   5.126 -0.3494 -0.5760 -2.1923
11559TIP3    H256169   5.775   1.318   5.091 -0.1144 -1.5393  1.0715
11560TIP3   OH256170   3.529   2.073  14.222  0.6135 -0.7070 -0.0272
11560TIP3    H156171   3.599   2.017  14.255  2.1703  1.3505  0.2813
11560TIP3    H256172   3.573   2.132  14.160 -0.6826  1.1385  0.7516
11561TIP3   OH256173   3.262   0.093  15.091  0.4951 -0.2344 -0.2545
11561TIP3    H156174   3.319   0.038  15.037  0.8236 -1.2985  1.1366
11561TIP3    H256175   3.302   0.180  15.087 -0.8628  0.3159 -3.6812
11562TIP3   OH256176   1.013   2.232  11.158  0.0404  0.1565  0.5583
11562TIP3    H156177   0.946   2.264  11.218  0.1680  0.7804  0.3688
11562TIP3    H256178   0.966   2.210  11.078 -0.1795 -0.9854  0.9869
11563TIP3   OH256179   4.236   5.793  15.570 -0.4065  0.2299 -0.0730
11563TIP3    H156180   4.158   5.803  15.515 -0.1666 -0.7633 -0.5983
11563TIP3    H256181   4.304   5.844  15.526 -0.4326  0.1086 -0.2506
11564TIP3   OH256182   0.119   5.291  11.849 -0.0579  0.3496 -0.3081
11564TIP3    H156183   0.032   5.261  11.822 -0.0632  0.6369 -0.6094
11564TIP3    H256184   0.122   5.272  11.943 -0.1092 -0.4858 -0.4726
11565TIP3   OH256185   2.779   1.399   6.072  0.2032  0.3417 -0.5066
11565TIP3    H156186   2.730   1.332   6.119  2.9057 -2.3940 -1.4091
11565TIP3    H256187   2.868   1.393   6.106  0.6451  3.0834 -1.0481
11566TIP3   OH256188   1.466   4.093   5.959  0.1634  0.0687  0.4395
11566TIP3    H156189   1.390   4.106   6.016  2.4238  0.3676  3.4925
11566TIP3    H256190   1.521   4.170   5.973  3.2622 -2.3015  1.9600
11567TIP3   OH256191   0.183   3.211   1.309 -0.1400  0.4201 -0.3618
11567TIP3    H156192   0.270   3.250   1.316 -1.3698  2.9740  1.6520
11567TIP3    H256193   0.136   3.269   1.249 -1.3922  0.9645  1.1059
11568TIP3   OH256194   1.773   0.049  16.068  0.5215  0.2081  0.2402
11568TIP3    H156195   1.709   0.050  16.139  0.9320 -0.4148  0.6320
11568TIP3    H256196   1.836   0.117  16.092  0.0848  0.7286 -0.0770
11569TIP3   OH256197   1.141   0.476   1.731 -0.1567  0.0643  0.0223
11569TIP3    H156198   1.065   0.531   1.749 -1.0423 -0.9052 -0.7011
11569TIP3    H256199   1.136   0.406   1.795  0.3643  0.2221  0.2409
11570TIP3   OH256200   1.598   2.647   2.787 -0.3896  0.3199  0.8581
11570TIP3    H156201   1.630   2.717   2.845 -1.4835  0.0314  1.8344
11570TIP3    H256202   1.602   2.685   2.699 -0.8614  1.5929  1.3635
11571TIP3   OH256203   0.349   3.095  13.767  0.0435 -0.4554 -0.3829
11571TIP3    H156204   0.278   3.145  13.809  0.2759 -0.5935  0.1647
11571TIP3    H256205   0.400   3.162  13.720  1.1066  0.0072  1.3984
11572TIP3   OH256206   2.708   0.372   4.320  0.4108  0.0464 -0.2394
11572TIP3    H156207   2.675   0.462   4.315 -2.0318 -0.7443  0.6670
11572TIP3    H256208   2.755   0.368   4.403 -0.7270  0.1142  0.4183
11573TIP3   OH256209   5.628   1.147   5.838 -0.8501  0.3274 -0.0530
11573TIP3    H156210   5.686   1.143   5.914 -0.9087 -2.9142 -0.1255
11573TIP3    H256211   5.540   1.140   5.875 -0.9370  0.0601 -0.3084
11574TIP3   OH256212   0.584   6.245   0.265 -0.1211  0.3774 -0.5763
11574TIP3    H156213   0.570   6.207   0.351 -2.0498  0.3617 -0.8666
11574TIP3    H256214   0.615   6.172   0.211 -2.2170 -0.4333 -0.7233
11575TIP3   OH256215   0.116   4.148  10.324  0.2891  0.1850 -0.2777
11575TIP3    H156216   0.203   4.122  10.353  0.5857  1.2068 -0.2658
11575TIP3    H256217   0.127   4.236  10.289 -0.5854  0.0115 -1.0111
11576TIP3   OH256218   5.909   3.629   6.098  0.4044  0.2509 -0.1500
11576TIP3    H156219   5.906   3.697   6.031 -0.5195  0.6345  0.2764
11576TIP3    H256220   6.002   3.608   6.105  0.5042  0.1182 -1.6267
11577TIP3   OH256221   4.473   1.693   5.792 -0.3361 -0.1526  0.0038
11577TIP3    H156222   4.481   1.740   5.709  1.2115 -1.4053 -0.5904
11577TIP3    H256223   4.383   1.661   5.792 -0.8393  1.2133 -0.4439
11578TIP3   OH256224   6.100   0.202   5.377  0.1121  0.7004  0.2016
11578TIP3    H156225   6.128   0.282   5.331 -0.6937  1.5970  1.2328
11578TIP3    H256226   6.055   0.234   5.455  2.3186 -0.7949  2.1494
11579TIP3   OH256227   0.729   3.982   0.757  0.4000 -0.4537 -0.1808
11579TIP3    H156228   0.800   3.934   0.715 -0.4337 -3.1391  1.4198
11579TIP3    H256229   0.737   3.961   0.850 -1.2890  0.8227  0.2772
11580TIP3   OH256230   1.348   2.308  15.951  0.0976  0.2659  0.4348
11580TIP3    H156231   1.443   2.300  15.963  0.1219  0.2917  0.2631
11580TIP3    H256232   1.312   2.310  16.040  0.2738  0.4426  0.5005
11581TIP3   OH256233   0.199   4.884  12.501 -0.1373  0.7424 -0.3115
11581TIP3    H156234   0.131   4.836  12.453 -0.6361 -0.3062  1.4248
11581TIP3    H256235   0.161   4.971  12.513 -0.6986  0.5064 -0.3456
11582TIP3   OH256236   3.145   5.590  13.602 -0.8527  0.2466 -0.9148
11582TIP3    H156237   3.240   5.599  13.595 -0.6134 -1.0393  0.2830
11582TIP3    H256238   3.133   5.513  13.659 -2.5990  1.0438 -0.1751
11583TIP3   OH256239   6.100   5.376   0.376 -1.0359  0.0683  0.3104
11583TIP3    H156240   6.006   5.392   0.369 -0.9908 -0.2475 -1.0499
11583TIP3    H256241   6.140   5.455   0.341 -0.7875 -0.0007  0.4407
11584TIP3   OH256242   4.922   3.981  12.176 -0.0112  0.0959  0.2215
11584TIP3    H156243   4.955   4.066  12.149 -0.1236 -0.1088 -0.5813
11584TIP3    H256244   4.971   3.918  12.121  0.1326 -0.3546  0.8647
11585TIP3   OH256245   0.179   4.426   5.605 -0.6891  0.1190 -0.2521
11585TIP3    H156246   0.179   4.521   5.609 -0.0354  0.1835 -1.5986
11585TIP3    H256247   0.163   4.405   5.513  0.2508 -1.0572 -0.1691
11586TIP3   OH256248   0.890   3.856  14.954 -0.8410 -0.5430  0.2426
11586TIP3    H156249   0.921   3.934  14.908 -0.0549 -1.2360 -0.4337
11586TIP3    H256250   0.838   3.889  15.027  1.6123  0.6661  1.4846
11587TIP3   OH256251   6.269   5.275   2.812  0.9128 -0.2091 -0.2828
11587TIP3    H156252   6.254   5.358   2.859  3.4649  1.1863 -1.8189
11587TIP3    H256253   6.364   5.272   2.800  0.7231 -2.7904 -1.3542
11588TIP3   OH256254   1.462   5.857   0.466 -0.4555  0.1217  0.0171
11588TIP3    H156255   1.489   5.844   0.557  0.3166  2.2931  0.1375
11588TIP3    H256256   1.534   5.819   0.414  0.0614  0.6578  0.3320
11589TIP3   OH256257   1.408   1.785  14.376 -0.7297  0.0704  0.0432
11589TIP3    H156258   1.454   1.722  14.320 -0.6408  1.0204 -0.9566
11589TIP3    H256259   1.319   1.788  14.340 -0.0889  2.3118 -1.4198
11590TIP3   OH256260   6.448   1.157  12.744  0.0340  0.3043 -0.0267
11590TIP3    H156261   6.540   1.173  12.766  0.3781 -1.4958 -0.0694
11590TIP3    H256262   6.426   1.076  12.790 -1.7803  1.1379  0.6352
11591TIP3   OH256263   1.046   3.085  16.760 -0.1291 -0.2442  0.2725
11591TIP3    H156264   1.006   3.000  16.742 -0.5129 -0.7375  3.2241
11591TIP3    H256265   1.139   3.072  16.742 -0.5062 -0.5379 -1.6572
11592TIP3   OH256266   3.208   2.213   0.046 -0.1663 -0.0856 -0.5818
11592TIP3    H156267   3.186   2.130   0.089 -0.8059  0.9744  1.1695
11592TIP3    H256268   3.246   2.187  -0.038 -0.6987 -2.1434 -0.2102
11593TIP3   OH256269   1.209   2.742   5.474 -0.0043 -0.1652 -0.0750
11593TIP3    H156270   1.255   2.733   5.390  0.0996  1.0679 -0.1628
11593TIP3    H256271   1.273   2.713   5.539  0.1998 -0.3418 -0.3500
11594TIP3   OH256272   6.523   0.427   0.993  0.1318  0.4062  0.4003
11594TIP3    H156273   6.440   0.406   0.950  1.1282  0.9320 -1.8290
11594TIP3    H256274   6.513   0.519   1.020 -0.1172  0.3857  0.3774
11595TIP3   OH256275   0.873   1.187  11.626  0.0921 -0.6246 -0.6048
11595TIP3    H156276   0.790   1.139  11.630 -1.0781  1.2230 -1.6627
11595TIP3    H256277   0.926   1.138  11.563 -1.4254 -0.0561 -2.3710
11596TIP3   OH256278   3.000   2.147   3.518  0.1812 -0.7151 -0.1616
11596TIP3    H156279   3.087   2.145   3.477  0.6354 -1.1355  0.7876
11596TIP3    H256280   2.946   2.093   3.461  0.2455  0.4704 -1.3861
11597TIP3   OH256281   0.901   4.552  15.855  0.1377  0.0668 -0.2803
11597TIP3    H156282   0.884   4.634  15.901  2.9143  0.8424 -0.5371
11597TIP3    H256283   0.967   4.507  15.908 -1.5409 -2.1643 -0.0050
11598TIP3   OH256284   2.874   5.221   3.778 -0.6612 -0.0679 -0.0531
11598TIP3    H156285   2.951   5.177   3.813 -0.9542 -0.2147  0.4193
11598TIP3    H256286   2.897   5.314   3.776 -0.8601  0.0178  1.1269
11599TIP3   OH256287   6.740   2.385   0.350 -0.4211  0.5209  0.2095
11599TIP3    H156288   6.677   2.456   0.359 -0.8262  0.2388 -0.3674
11599TIP3    H256289   6.737   2.340   0.435 -1.7887 -0.1295 -0.1580
11600TIP3   OH256290   4.661   4.705  10.776  0.2899  0.0633 -0.6895
11600TIP3    H156291   4.607   4.776  10.741  2.0363  0.9184 -1.7081
11600TIP3    H256292   4.648   4.632  10.714  0.5979  0.3908 -1.1409
11601TIP3   OH256293   5.953   4.605   0.073  0.2467 -0.1246 -0.8219
11601TIP3    H156294   6.006   4.555   0.010  0.4498 -0.1079 -0.6645
11601TIP3    H256295   5.863   4.592   0.044  0.2731 -0.9154 -0.5363
11602TIP3   OH256296   4.395   6.015  13.090 -0.4199 -0.6414  0.0113
11602TIP3    H156297   4.468   6.058  13.135 -2.1610  1.3386  1.0546
11602TIP3    H256298   4.434   5.980  13.010  1.9578 -0.8785  1.2092
11603TIP3   OH256299   3.362   3.595   3.637 -0.1903 -0.1617  0.4560
11603TIP3    H156300   3.287   3.545   3.669 -1.4396  1.5433  0.2867
11603TIP3    H256301   3.371   3.568   3.546 -1.1167  0.1849  0.2467
11604TIP3   OH256302   5.788   1.053   4.870  0.1510  0.0223 -0.3842
11604TIP3    H156303   5.845   1.124   4.900  0.0240 -0.1945  0.3602
11604TIP3    H256304   5.752   1.015   4.950  0.1096 -0.7979 -0.7902
11605TIP3   OH256305   3.853   2.728   1.936 -0.5853  0.3296 -0.6627
11605TIP3    H156306   3.863   2.642   1.895  0.8809  0.5217 -0.7378
11605TIP3    H256307   3.857   2.790   1.863 -4.4073  0.3710 -0.9622
11606TIP3   OH256308   0.708   0.723  10.616 -0.6405  0.5323 -0.1528
11606TIP3    H156309   0.620   0.745  10.585 -2.2490 -4.3409  0.5368
11606TIP3    H256310   0.695   0.690  10.704  1.8509 -0.4297 -0.1058
11607TIP3   OH256311   3.810   3.734  11.696  0.1464 -0.3123 -0.8178
11607TIP3    H156312   3.732   3.707  11.647  0.7392 -0.7613 -1.5268
11607TIP3    H256313   3.863   3.654  11.702 -1.1097 -0.9486  2.8891
11608TIP3   OH256314   4.017   2.736   1.660 -0.3576  0.4634  0.4486
11608TIP3    H156315   4.098   2.699   1.625 -0.5457  0.9711 -0.5387
11608TIP3    H256316   3.979   2.783   1.586 -0.1650  2.5713  1.6541
11609TIP3   OH256317   1.947   1.023  17.154  0.0829  0.7712  0.3493
11609TIP3    H156318   1.901   0.999  17.073  0.9500  0.9050 -0.1864
11609TIP3    H256319   1.898   1.099  17.187 -1.0819 -0.1077  0.6719
11610TIP3   OH256320   1.851   0.495  17.116  0.6845 -0.0115  0.5867
11610TIP3    H156321   1.921   0.504  17.180  0.3974 -1.1276  1.0627
11610TIP3    H256322   1.806   0.414  17.140 -0.2244  0.2321 -0.2460
11611TIP3   OH256323   1.088   3.243   0.758  0.5650  0.0420  0.2690
11611TIP3    H156324   1.063   3.317   0.702  1.2439 -0.5045 -0.7820
11611TIP3    H256325   1.083   3.167   0.700 -0.1792 -0.7548  1.3505
11612TIP3   OH256326   5.776   3.893  13.195 -0.0413 -0.9925 -0.1142
11612TIP3    H156327   5.699   3.857  13.239  1.1816 -2.1372  1.1332
11612TIP3    H256328   5.768   3.987  13.206 -1.4762 -1.0732 -0.3660
11613TIP3   OH256329   5.733   3.663   2.681 -0.1003  0.5931 -0.3499
11613TIP3    H156330   5.776   3.657   2.596 -2.0000  0.9835 -1.3793
11613TIP3    H256331   5.658   3.720   2.665 -0.4025  0.7730  1.6301
11614TIP3   OH256332   1.977   0.908   1.576  0.7123  0.1731  0.2982
11614TIP3    H156333   1.976   0.913   1.672 -2.5646 -0.0184  0.3307
11614TIP3    H256334   1.942   0.992   1.548 -0.2178 -0.5346 -0.6788
11615TIP3   OH256335   6.768   2.810   4.078  0.1312  0.5459 -0.5644
11615TIP3    H156336   6.759   2.904   4.094 -0.8458  0.5830 -1.3316
11615TIP3    H256337   6.776   2.772   4.166  0.3462  1.3231 -0.2428
11616TIP3   OH256338   6.696   3.169  16.487 -0.5991 -0.3526  0.8474
11616TIP3    H156339   6.791   3.171  16.479 -0.4551 -0.7359  2.2344
11616TIP3    H256340   6.665   3.236  16.426  0.5085 -0.8081 -0.2394
11617TIP3   OH256341   2.994   1.029  16.983 -0.1950 -0.4379  0.5288
11617TIP3    H156342   3.020   0.995  16.897 -1.7262 -1.1033  0.3072
11617TIP3    H256343   3.076   1.034  17.032  0.7063 -0.0037 -0.9761
11618TIP3   OH256344   0.654   3.416  11.955  0.3367 -0.0122  0.1082
11618TIP3    H156345   0.740   3.445  11.985  0.2228  1.2633 -0.7754
11618TIP3    H256346   0.603   3.406  12.036  1.1503 -0.3000  0.5971
11619TIP3   OH256347   2.239   6.111   5.070  0.2461  0.2086  0.7901
11619TIP3    H156348   2.236   6.166   4.991 -2.1994 -0.3466  0.4786
11619TIP3    H256349   2.323   6.065   5.063 -0.1320 -0.1576 -1.7117
11620TIP3   OH256350   3.661   5.368  13.716  0.1309  0.0818 -0.3621
11620TIP3    H156351   3.686   5.343  13.627 -0.6346 -0.7070 -0.3615
11620TIP3    H256352   3.667   5.463  13.716 -0.8173  0.1605 -1.5613
11621TIP3   OH256353   4.552   6.270   5.005  0.1596  0.2838  0.1016
11621TIP3    H156354   4.550   6.348   5.060 -0.8197  0.7715 -0.6189
11621TIP3    H256355   4.608   6.295   4.931 -0.2642  0.3514 -0.1973
11622TIP3   OH256356   0.276   0.396  16.221 -0.2085 -0.1112  0.0001
11622TIP3    H156357   0.297   0.407  16.313  0.3755 -3.0667  0.2618
11622TIP3    H256358   0.359   0.409  16.175 -0.3589  0.6721 -0.0511
11623TIP3   OH256359   2.301   0.494   4.099  0.1387 -0.6627  0.4881
11623TIP3    H156360   2.353   0.416   4.083  1.5302  0.4689 -0.6899
11623TIP3    H256361   2.363   0.556   4.138 -0.7992  0.0568  0.8591
11624TIP3   OH256362   0.079   5.286   4.399  0.4011  0.3513 -0.0214
11624TIP3    H156363   0.159   5.304   4.350  1.6179 -0.6071  1.5586
11624TIP3    H256364   0.108   5.274   4.490 -1.0619 -3.4130  0.0287
11625TIP3   OH256365   6.450   5.160  13.898 -0.0254  0.1144  0.3506
11625TIP3    H156366   6.427   5.165  13.805  1.0639  0.0730  0.0681
11625TIP3    H256367   6.477   5.248  13.921 -1.6157  0.4507  1.0015
11626TIP3   OH256368   3.571   4.362   1.880  0.2298 -0.1222 -0.2659
11626TIP3    H156369   3.576   4.268   1.869  0.2359  0.1511 -2.9186
11626TIP3    H256370   3.493   4.376   1.935  0.6838 -1.6695  0.8019
11627TIP3   OH256371   6.642   5.669   3.024 -0.2305  0.1786  0.8728
11627TIP3    H156372   6.593   5.750   3.008  1.0414  0.8828  0.5315
11627TIP3    H256373   6.691   5.654   2.943 -1.5972 -1.7536  0.3609
11628TIP3   OH256374   0.887   6.015   4.329  0.6070  0.1152  0.3957
11628TIP3    H156375   0.944   5.989   4.257  0.5114  0.2681  0.2645
11628TIP3    H256376   0.932   6.089   4.370  0.1643  0.6821 -0.1396
11629TIP3   OH256377   4.554   2.030   2.121 -0.5542 -0.2763  0.4898
11629TIP3    H156378   4.566   2.122   2.147 -3.6617  0.4473 -0.4596
11629TIP3    H256379   4.505   2.034   2.040  0.6457 -2.8017 -0.4163
11630TIP3   OH256380   1.060   0.858  15.163 -0.4185 -0.2075 -0.4011
11630TIP3    H156381   1.048   0.832  15.072  1.7302  1.0524 -1.0871
11630TIP3    H256382   0.972   0.882  15.193 -1.6257 -3.2714 -1.2422
11631TIP3   OH256383   6.342   4.118   1.838 -0.0630 -0.1818  0.1916
11631TIP3    H156384   6.281   4.113   1.765  0.1319  1.7693 -0.1445
11631TIP3    H256385   6.424   4.083   1.804 -0.1988 -0.0492 -0.2743
11632TIP3   OH256386   4.678   5.624   5.579 -0.1855 -0.1311  0.5461
11632TIP3    H156387   4.692   5.624   5.673 -1.0986 -0.3308  0.6830
11632TIP3    H256388   4.675   5.531   5.555 -1.9033 -0.1147  0.6222
11633TIP3   OH256389   0.621   1.692   2.208 -0.3995 -0.5570 -0.2647
11633TIP3    H156390   0.700   1.743   2.188  0.0906 -1.9460 -2.0449
11633TIP3    H256391   0.562   1.755   2.249  2.1925  0.1516  2.5824
11634TIP3   OH256392   1.382   5.462   5.957  0.2303 -0.4282  0.7501
11634TIP3    H156393   1.428   5.414   6.026  0.6825 -1.1629 -0.0517
11634TIP3    H256394   1.290   5.453   5.978  0.3235 -1.4194  0.7685
11635TIP3   OH256395   2.449   4.054   6.344  0.1649  0.3210 -0.6747
11635TIP3    H156396   2.482   4.117   6.280 -1.0056  2.0144  0.3492
11635TIP3    H256397   2.357   4.078   6.355 -0.1081 -1.1405  0.2543
11636TIP3   OH256398   5.312   0.646  13.025 -0.1026  0.5139 -0.0511
11636TIP3    H156399   5.250   0.683  13.088 -1.0626 -2.2194  0.7074
11636TIP3    H256400   5.393   0.635  13.075 -0.3349 -0.0110  0.2122
11637TIP3   OH256401   2.768   6.145   2.699  0.1503  0.7181 -0.1965
11637TIP3    H156402   2.835   6.133   2.632  0.8414  2.8065  0.0519
11637TIP3    H256403   2.714   6.216   2.665 -1.2623 -0.1901  0.1349
11638TIP3   OH256404   1.357   5.765   1.898  0.3943 -0.4038 -0.4551
11638TIP3    H156405   1.395   5.746   1.983 -2.0825 -1.0479  0.5463
11638TIP3    H256406   1.411   5.715   1.836  1.4271 -0.9598  0.8700
11639TIP3   OH256407   0.071   3.470  12.930 -0.1477  0.3900  0.1095
11639TIP3    H156408   0.138   3.538  12.941 -0.4430  1.5373 -4.1824
11639TIP3    H256409   0.114   3.403  12.875 -2.0058  0.4608 -1.4744
11640TIP3   OH256410   2.052   4.617  12.527  0.1450  0.2186  0.1176
11640TIP3    H156411   2.096   4.688  12.480 -0.1078 -1.1046 -2.1684
11640TIP3    H256412   2.123   4.560  12.556  0.3428  1.3242  1.8887
11641TIP3   OH256413   1.898   4.734   1.256  0.2069  0.3372 -0.0683
11641TIP3    H156414   1.959   4.676   1.209  0.5701 -0.2356  1.0866
11641TIP3    H256415   1.893   4.697   1.344 -2.0445  0.2278 -0.2141
11642TIP3   OH256416   4.105   5.613   3.316  0.0064  0.3792 -0.0138
11642TIP3    H156417   4.045   5.681   3.286  1.0138  1.0061 -0.6358
11642TIP3    H256418   4.112   5.553   3.242 -0.1064  0.1265  0.1783
11643TIP3   OH256419   0.976   2.196  15.744  0.5105 -0.3121  0.0995
11643TIP3    H156420   0.986   2.251  15.822  1.2707 -0.1390 -0.1070
11643TIP3    H256421   1.066   2.186  15.712  0.3903 -1.7809  0.2071
11644TIP3   OH256422   5.941   3.311  15.419  0.0600 -0.1719 -0.4061
11644TIP3    H156423   5.984   3.382  15.466 -1.2739  1.5136 -1.6902
11644TIP3    H256424   5.958   3.233  15.472  1.8582  1.0278  0.8176
11645TIP3   OH256425   5.740   0.220  15.502 -0.6718  0.0226 -0.0739
11645TIP3    H156426   5.820   0.233  15.450 -0.1676  0.9022  0.8870
11645TIP3    H256427   5.772   0.200  15.590 -1.5085  1.0883  0.4830
11646TIP3   OH256428   5.683   5.949  14.564  0.2330 -0.1154  0.0992
11646TIP3    H156429   5.704   5.964  14.471 -0.9521  1.3529  0.0556
11646TIP3    H256430   5.654   5.857  14.566  0.5714 -0.2619 -0.9266
11647TIP3   OH256431   5.511   5.037   0.442  0.1863 -0.5269 -0.2276
11647TIP3    H156432   5.518   4.942   0.450  0.3788 -0.6103 -1.3235
11647TIP3    H256433   5.417   5.053   0.428  0.2930 -0.6381 -1.0738
11648TIP3   OH256434   1.421   6.179   6.364 -0.2569 -0.2414  0.7691
11648TIP3    H156435   1.419   6.272   6.385 -0.0100 -0.3388  1.2229
11648TIP3    H256436   1.400   6.175   6.270  3.1040  0.5311 -0.0720
11649TIP3   OH256437   3.460   0.500  12.422 -0.2452  0.0501 -0.0158
11649TIP3    H156438   3.507   0.536  12.498 -0.9764  0.9976 -0.0063
11649TIP3    H256439   3.416   0.422  12.456 -0.4230  0.3674  0.4849
11650TIP3   OH256440   4.559   1.361  14.468 -0.1488  0.2900 -0.2079
11650TIP3    H156441   4.600   1.314  14.541  0.5052  1.6393  0.3009
11650TIP3    H256442   4.614   1.340  14.392 -0.0642 -0.0403 -0.0579
11651TIP3   OH256443   0.697   2.346  16.783  0.0189  0.2858  0.6998
11651TIP3    H156444   0.674   2.326  16.874  3.4022  0.5231  1.6902
11651TIP3    H256445   0.743   2.268  16.752 -0.9076  0.3070 -0.7377
11652TIP3   OH256446   4.221   1.394  15.485  0.3789 -0.2359  0.1321
11652TIP3    H156447   4.128   1.373  15.479  0.2510 -1.1395  3.8645
11652TIP3    H256448   4.265   1.327  15.432 -0.9493 -1.1387  0.1623
11653TIP3   OH256449   3.386   2.695   4.479 -0.3628 -0.6951  0.5701
11653TIP3    H156450   3.351   2.669   4.394  0.0885  1.3608 -0.2761
11653TIP3    H256451   3.471   2.651   4.484  0.7225  1.1224 -1.1623
11654TIP3   OH256452   3.178   2.359   5.098  0.0060  0.2120  0.6856
11654TIP3    H156453   3.168   2.438   5.045 -1.3423 -0.8776 -0.7351
11654TIP3    H256454   3.272   2.349   5.108  0.2095  1.6631  0.3679
11655TIP3   OH256455   2.469   3.137   2.367 -0.4214  0.6244  0.4225
11655TIP3    H156456   2.538   3.071   2.365  0.0248  1.0990 -0.0663
11655TIP3    H256457   2.404   3.102   2.428 -0.6910 -0.7629 -0.6274
11656TIP3   OH256458   2.220   5.698   5.529 -0.3434 -0.0805 -0.5100
11656TIP3    H156459   2.231   5.788   5.497 -0.7142 -0.0829 -0.6422
11656TIP3    H256460   2.169   5.654   5.461  2.2656 -1.1778 -1.8104
11657TIP3   OH256461   5.110   1.897  13.403  0.2028 -0.2421 -0.0078
11657TIP3    H156462   5.183   1.901  13.466 -1.8503 -1.0011  2.5247
11657TIP3    H256463   5.150   1.863  13.323  2.7345 -0.2170  1.1614
11658TIP3   OH256464   6.532   2.409   2.945  0.0134  0.4648 -0.5605
11658TIP3    H156465   6.461   2.357   2.909 -1.3154  0.5468  1.7897
11658TIP3    H256466   6.571   2.353   3.012 -1.1433  2.2522  1.6815
11659TIP3   OH256467   3.940   0.696  11.828  0.3848  0.3291 -1.3209
11659TIP3    H156468   4.026   0.684  11.787  1.7749  0.7061  1.3637
11659TIP3    H256469   3.958   0.747  11.907 -2.3893  0.8249 -0.9566
11660TIP3   OH256470   3.214   2.056   2.297  0.0293  0.2095  0.0285
11660TIP3    H156471   3.211   2.071   2.202 -0.1092  3.5881  0.4900
11660TIP3    H256472   3.125   2.074   2.327  0.6475  1.5705  1.0827
11661TIP3   OH256473   1.116   6.094  12.641  0.5338 -0.1258  0.2062
11661TIP3    H156474   1.160   6.094  12.556 -1.9953  2.1393 -1.1624
11661TIP3    H256475   1.049   6.026  12.633 -0.0644  0.4676  0.2059
11662TIP3   OH256476   3.947   0.869   3.773 -0.1415 -0.0214  0.4023
11662TIP3    H156477   4.019   0.877   3.836 -1.2268  0.4736  1.6140
11662TIP3    H256478   3.987   0.883   3.688  1.3780 -0.7901  0.9773
11663TIP3   OH256479   3.925   2.718   3.249  0.1595  0.3381 -0.1368
11663TIP3    H156480   3.862   2.700   3.179  1.8410  1.1887 -1.9008
11663TIP3    H256481   3.996   2.656   3.234  0.8905  1.0555  0.3638
11664TIP3   OH256482   6.660   0.972   6.337  0.0578 -0.1319 -0.1322
11664TIP3    H156483   6.601   0.899   6.358 -1.0166  1.4436  2.6861
11664TIP3    H256484   6.731   0.965   6.400 -0.1748  1.3485  0.3327
11665TIP3   OH256485   6.612   3.958  12.399 -0.5741  0.0579  0.2735
11665TIP3    H156486   6.626   3.982  12.491 -0.4474 -1.1505  0.5809
11665TIP3    H256487   6.552   3.884  12.403  1.7259 -1.8866 -0.4624
11666TIP3   OH256488   5.295   3.164  15.856 -0.0371  0.2607  0.4120
11666TIP3    H156489   5.319   3.206  15.774  2.3120  1.2792  1.5462
11666TIP3    H256490   5.203   3.186  15.869 -0.5943 -0.4134 -2.2077
11667TIP3   OH256491   2.651   4.652   3.003 -0.4622 -0.1725  0.0883
11667TIP3    H156492   2.740   4.627   2.980 -1.4079 -1.9996 -1.7178
11667TIP3    H256493   2.647   4.746   2.984  2.0258  0.6800  3.3839
11668TIP3   OH256494   1.742   6.104  14.506  0.2543  0.1698 -0.6177
11668TIP3    H156495   1.679   6.087  14.577  2.4217  0.9410  1.5436
11668TIP3    H256496   1.738   6.026  14.451 -2.8412  0.3447 -0.7323
11669TIP3   OH256497   3.642   4.093  13.845 -0.2740 -0.1857 -0.0540
11669TIP3    H156498   3.733   4.081  13.873 -0.7112 -0.3931  1.3441
11669TIP3    H256499   3.598   4.128  13.923 -1.3067  0.2873 -0.8425
11670TIP3   OH256500   0.671   0.822  10.931  0.3589 -0.1203 -0.1616
11670TIP3    H156501   0.766   0.829  10.936  0.1271  2.8801  1.6841
11670TIP3    H256502   0.654   0.732  10.902  3.8038  0.4442 -4.4920
11671TIP3   OH256503   4.657   6.524   5.542 -0.4629 -0.4618  0.0760
11671TIP3    H156504   4.742   6.524   5.586 -0.9706 -2.6221  1.0618
11671TIP3    H256505   4.594   6.546   5.610 -0.7990  0.5929 -0.5442
11672TIP3   OH256506   2.994   2.924   2.541  0.2383 -0.4094 -0.3708
11672TIP3    H156507   2.969   2.873   2.465  3.0804 -1.5454 -0.5993
11672TIP3    H256508   3.047   2.865   2.594  0.7413  1.2485  1.0513
11673TIP3   OH256509   0.812   5.129   3.999  0.1368 -0.3837 -0.0815
11673TIP3    H156510   0.758   5.156   3.925  0.7439 -0.8617 -0.7148
11673TIP3    H256511   0.887   5.190   3.997  0.0586 -0.2731  0.2612
11674TIP3   OH256512   2.570   4.916  12.011  0.3722  0.4994  0.6749
11674TIP3    H156513   2.590   4.953  11.925  1.5510  1.0081  1.1549
11674TIP3    H256514   2.490   4.866  11.998  0.6832  0.3665 -0.7709
11675TIP3   OH256515   0.908   3.916  15.760  0.1654  0.6348  0.0940
11675TIP3    H156516   0.909   3.951  15.671  1.8273 -1.2168 -0.6449
11675TIP3    H256517   0.987   3.952  15.801  1.1544 -1.1028 -0.2386
11676TIP3   OH256518   4.786   3.701   5.836  0.2761  0.1573 -0.5448
11676TIP3    H156519   4.762   3.679   5.746 -1.1278 -0.9058  0.0623
11676TIP3    H256520   4.756   3.626   5.888 -1.5101  1.9869  1.1732
11677TIP3   OH256521   1.818   4.981  12.456 -0.3357  0.0590  0.7503
11677TIP3    H156522   1.866   4.920  12.400 -1.9344 -1.0823  0.5890
11677TIP3    H256523   1.868   5.062  12.451  1.3833 -0.9963  0.3304
11678TIP3   OH256524   1.824   5.013  12.064  0.0656  0.0179 -0.0066
11678TIP3    H156525   1.729   5.019  12.054  0.2412  0.0079 -1.8227
11678TIP3    H256526   1.841   5.049  12.151 -1.8549 -2.5028  1.4878
11679TIP3   OH256527   4.576   3.578   4.811 -0.1629  0.1489  0.6970
11679TIP3    H156528   4.561   3.615   4.724 -0.9717 -0.4946  0.5681
11679TIP3    H256529   4.536   3.642   4.871  0.0242  0.3795  0.5789
11680TIP3   OH256530   5.535   6.086  12.021  0.0836  0.5004 -0.1920
11680TIP3    H156531   5.441   6.070  12.022  0.5233 -2.2770 -0.4985
11680TIP3    H256532   5.574   6.000  12.010  2.7344  1.4551  1.4223
11681TIP3   OH256533   0.292   6.329  14.212  0.3884  0.1354  0.4759
11681TIP3    H156534   0.243   6.262  14.164  1.6031 -0.0511 -0.5229
11681TIP3    H256535   0.338   6.378  14.145 -1.8296  3.1070  1.0608
11682TIP3   OH256536   6.001   2.578  11.740 -0.1738  0.2607  0.0540
11682TIP3    H156537   6.067   2.565  11.672  0.1106  2.9671 -0.2330
11682TIP3    H256538   6.039   2.644  11.798 -2.0931  0.9215  0.5877
11683TIP3   OH256539   5.906   2.721   3.843 -0.2430  0.2751  0.0654
11683TIP3    H156540   5.904   2.814   3.867  0.3521  0.3313 -0.0873
11683TIP3    H256541   5.985   2.687   3.885 -0.3258 -0.1072 -0.0810
11684TIP3   OH256542   6.333   4.382   1.950  0.7833  0.3817  0.0864
11684TIP3    H156543   6.334   4.304   1.896  0.9357 -1.1355  2.2318
11684TIP3    H256544   6.328   4.455   1.887  1.2523 -1.2961 -1.9402
11685TIP3   OH256545   2.669   0.540  11.966 -0.0299  0.5822 -0.4380
11685TIP3    H156546   2.642   0.471  12.026  2.7192 -0.3901 -0.2311
11685TIP3    H256547   2.729   0.595  12.017  1.9033  0.0578 -2.0541
11686TIP3   OH256548   3.340   4.606  16.747  0.0337 -0.2254 -0.4924
11686TIP3    H156549   3.304   4.545  16.811 -1.8568  0.1318 -1.1612
11686TIP3    H256550   3.364   4.551  16.672 -0.5034 -0.3107 -0.6058
11687TIP3   OH256551   2.157   3.902  15.194  0.2172  0.0216 -0.2589
11687TIP3    H156552   2.206   3.923  15.274 -0.8933  2.3384 -0.1439
11687TIP3    H256553   2.072   3.873  15.226  0.1411 -0.0919 -0.5699
11688TIP3   OH256554   6.435   5.848   3.506 -0.2819  0.3281  0.3474
11688TIP3    H156555   6.492   5.797   3.564  0.8398  1.6728  0.4587
11688TIP3    H256556   6.442   5.938   3.540 -1.1989  0.7743 -0.6407
11689TIP3   OH256557   0.734   4.877   2.055  0.0259 -0.2518 -0.7883
11689TIP3    H156558   0.706   4.940   2.121 -1.2451  1.2542 -2.7130
11689TIP3    H256559   0.763   4.801   2.105 -2.7505  0.0819  1.4392
11690TIP3   OH256560   0.615   1.551   2.448 -0.2878 -0.2314  0.2255
11690TIP3    H156561   0.674   1.608   2.498 -1.4634 -0.9815  2.5108
11690TIP3    H256562   0.618   1.586   2.358  1.6547  1.2903  0.8619
11691TIP3   OH256563   5.866   0.289   0.535  0.3645  0.5574  0.1693
11691TIP3    H156564   5.942   0.298   0.478  1.2378  0.4917  1.3014
11691TIP3    H256565   5.860   0.195   0.553 -0.4943  0.4598 -0.5881
11692TIP3   OH256566   2.619   1.112   3.831 -0.0542 -0.2955  0.0274
11692TIP3    H156567   2.618   1.086   3.739 -2.0343 -0.5890  0.1091
11692TIP3    H256568   2.696   1.168   3.839  0.6889 -1.0548 -1.5774
11693TIP3   OH256569   6.360   1.574   1.438 -0.1857 -0.1947 -0.1340
11693TIP3    H156570   6.273   1.611   1.422 -0.5162 -0.8410  0.1626
11693TIP3    H256571   6.420   1.632   1.391 -0.8969 -0.5244 -1.4696
11694TIP3   OH256572   2.214   4.412  14.866 -0.0202  0.0501 -0.7897
11694TIP3    H156573   2.151   4.463  14.816 -1.2984 -2.0488 -1.3863
11694TIP3    H256574   2.252   4.351  14.803  0.7794 -0.3886  0.0975
11695TIP3   OH256575   0.206   5.287  15.076 -0.0905 -0.5459  0.2995
11695TIP3    H156576   0.131   5.339  15.046  0.9120  0.5418 -0.3808
11695TIP3    H256577   0.168   5.206  15.110 -1.4693 -0.6372 -1.4155
11696TIP3   OH256578   6.059   0.332   0.372 -0.3145 -0.5876  0.0425
11696TIP3    H156579   6.063   0.363   0.282 -2.0486 -1.0260 -0.1981
11696TIP3    H256580   6.149   0.308   0.393  0.2373  0.2407 -1.3065
11697TIP3   OH256581   0.473   1.522   3.247  0.3583  0.0645 -0.3180
11697TIP3    H156582   0.404   1.571   3.293  0.8513  1.1048 -0.6555
11697TIP3    H256583   0.514   1.588   3.190  2.0903 -0.3711  0.4077
11698TIP3   OH256584   6.103   6.523   3.950 -0.9030  0.2388  0.2005
11698TIP3    H156585   6.028   6.468   3.926  0.1668 -1.2015  0.1144
11698TIP3    H256586   6.140   6.551   3.866 -2.0684  1.9695  0.2482
11699TIP3   OH256587   4.351   2.767  16.872  0.5182  0.5329  0.7254
11699TIP3    H156588   4.278   2.775  16.933  0.0397 -1.0265  0.3754
11699TIP3    H256589   4.412   2.708  16.916  1.2204  1.1924  0.6565
11700TIP3   OH256590   4.667   5.165   3.920  0.3790 -0.7258  0.0989
11700TIP3    H156591   4.687   5.091   3.864  3.1412 -0.4052  0.5898
11700TIP3    H256592   4.750   5.213   3.928 -0.6987  0.9399  1.9198
11701TIP3   OH256593   6.316   3.382  12.435  0.5948  0.2768 -0.4402
11701TIP3    H156594   6.223   3.365  12.446  0.9013 -1.6346 -0.5718
11701TIP3    H256595   6.341   3.432  12.513  0.0604 -1.8698  1.1748
11702TIP3   OH256596   5.311   5.957  11.468  0.1402 -0.2123 -0.1924
11702TIP3    H156597   5.376   5.915  11.524  1.0571 -0.9708 -1.7655
11702TIP3    H256598   5.237   5.976  11.525  1.2901 -0.4022  1.3810
11703TIP3   OH256599   3.668   3.844  14.221  0.1137  0.2980  0.4571
11703TIP3    H156600   3.695   3.818  14.132 -0.1538  1.1646  0.1180
11703TIP3    H256601   3.737   3.811  14.278  0.9896  0.9483 -0.2200
11704TIP3   OH256602   1.780   0.179   2.811 -0.2167  0.3433  0.4361
11704TIP3    H156603   1.716   0.234   2.857  0.3713  1.4639 -0.0737
11704TIP3    H256604   1.727   0.116   2.763 -0.8984  0.4423  1.0406
11705TIP3   OH256605   6.237   3.073   4.397  0.1090 -0.3876 -0.2783
11705TIP3    H156606   6.232   3.108   4.308 -0.5520  0.3248  0.0258
11705TIP3    H256607   6.181   2.996   4.396  1.0727 -1.0927 -0.7910
11706TIP3   OH256608   3.746   4.604   2.105 -0.3404  0.1588  0.0443
11706TIP3    H156609   3.802   4.537   2.068 -0.4671 -0.4647  0.9809
11706TIP3    H256610   3.778   4.686   2.067  0.8101 -0.2542  0.1118
11707TIP3   OH256611   4.514   0.378  11.897 -0.1925 -0.8328  0.1847
11707TIP3    H156612   4.500   0.285  11.915  0.0556 -1.0312 -0.6315
11707TIP3    H256613   4.586   0.379  11.834 -0.8031 -0.1285 -0.5070
11708TIP3   OH256614   5.486   4.472  12.359 -0.1172 -0.2541  0.1251
11708TIP3    H156615   5.523   4.424  12.433 -0.0364 -0.5827 -0.1317
11708TIP3    H256616   5.422   4.413  12.321  0.8882 -0.6539 -0.9701
11709TIP3   OH256617   3.052   2.087  11.442 -0.6952 -0.4162 -0.2545
11709TIP3    H156618   2.968   2.116  11.405 -0.5422 -0.3363 -0.5447
11709TIP3    H256619   3.082   2.162  11.493  0.7449  0.7635 -2.7809
11710TIP3   OH256620   3.751   1.017  14.758  0.8876 -0.0727  0.1954
11710TIP3    H156621   3.689   1.004  14.829  1.6034  1.7117  1.1720
11710TIP3    H256622   3.697   1.045  14.684  0.2252 -1.2293  0.2315
11711TIP3   OH256623   6.405   6.325  10.940 -0.4055 -0.3601 -0.1089
11711TIP3    H156624   6.439   6.236  10.946  2.0186  0.6144  1.2806
11711TIP3    H256625   6.310   6.315  10.940 -0.1576 -2.9412 -0.2591
11712TIP3   OH256626   4.653   5.658  11.171 -0.1079 -0.2198 -0.0555
11712TIP3    H156627   4.740   5.622  11.157  0.1007 -0.7416  2.4036
11712TIP3    H256628   4.595   5.601  11.121  0.7770 -0.8056 -0.4259
11713TIP3   OH256629   1.857   1.290   1.723  0.3149  0.1610 -0.3546
11713TIP3    H156630   1.933   1.343   1.745  0.4623 -0.0397 -0.3845
11713TIP3    H256631   1.832   1.318   1.635 -0.5665  1.3070  0.2493
11714TIP3   OH256632   2.621   5.554   5.771 -0.1352 -0.0737 -0.2109
11714TIP3    H156633   2.526   5.542   5.759  0.0120 -2.2566  0.6155
11714TIP3    H256634   2.660   5.515   5.693  0.1216  0.1328 -0.1855
11715TIP3   OH256635   6.345   4.084   0.796 -0.0246 -0.0056 -0.6500
11715TIP3    H156636   6.290   4.118   0.867 -0.9956 -2.2875 -0.2916
11715TIP3    H256637   6.308   4.123   0.717 -1.3139 -0.4398 -0.2741
11716TIP3   OH256638   6.677   4.045  16.602  0.4442  0.4860 -0.3821
11716TIP3    H156639   6.615   4.065  16.532  1.4860  0.8053 -1.2122
11716TIP3    H256640   6.675   3.950  16.610  0.2345  0.4608 -0.7546
11717TIP3   OH256641   2.887   3.738   0.212  0.2653  0.1653  0.2901
11717TIP3    H156642   2.803   3.751   0.255  0.6971 -0.4891  1.3354
11717TIP3    H256643   2.897   3.643   0.206 -0.0879  0.2383 -1.8400
11718TIP3   OH256644   1.730   0.559   1.801  0.3635  0.3650 -0.3239
11718TIP3    H156645   1.768   0.549   1.714 -1.8922 -0.6017 -1.2391
11718TIP3    H256646   1.636   0.550   1.787 -0.0353  0.2730  2.2060
11719TIP3   OH256647   5.919   2.236   4.400  0.0972 -0.3361 -0.1680
11719TIP3    H156648   5.835   2.217   4.359  1.0281 -2.3955 -1.1773
11719TIP3    H256649   5.949   2.153   4.435  0.8203  0.7739  1.9556
11720TIP3   OH256650   4.474   2.104   0.344 -0.0297 -0.0075 -0.1639
11720TIP3    H156651   4.389   2.116   0.387 -0.0638 -2.0296  0.3799
11720TIP3    H256652   4.499   2.192   0.317 -1.5936  0.8343  1.0017
11721TIP3   OH256653   2.765   4.848   5.824 -0.5503 -0.5542 -0.2047
11721TIP3    H156654   2.751   4.754   5.814  3.0431 -1.4671  2.4357
11721TIP3    H256655   2.802   4.876   5.740 -0.2191 -1.7879 -0.4783
11722TIP3   OH256656   2.668   4.560   5.879 -0.3807  0.6059  0.7390
11722TIP3    H156657   2.607   4.576   5.950  1.1835 -0.1115  2.2761
11722TIP3    H256658   2.730   4.496   5.914  1.5946  1.7284 -0.5819
11723TIP3   OH256659   4.740   6.091   2.757  0.0636  0.2072  0.3526
11723TIP3    H156660   4.670   6.146   2.791  0.4204  0.2591  1.0077
11723TIP3    H256661   4.715   6.074   2.666 -1.1822 -0.3819  0.7877
11724TIP3   OH256662   6.797   4.259  12.303  0.5320 -0.2273  0.4574
11724TIP3    H156663   6.865   4.192  12.304  1.3274  0.5740  0.4699
11724TIP3    H256664   6.825   4.323  12.369 -0.0983  0.2420  0.2803
11725TIP3   OH256665   6.438   3.615  11.682 -0.1468  0.3587 -0.9005
11725TIP3    H156666   6.379   3.666  11.738  0.0700  0.7572 -1.0303
11725TIP3    H256667   6.514   3.598  11.737 -0.8997 -1.2093 -0.3372
11726TIP3   OH256668   3.796   6.739  15.153  0.1195  0.5804 -0.4746
11726TIP3    H156669   3.837   6.653  15.149 -0.3059  0.4228 -1.5893
11726TIP3    H256670   3.860   6.794  15.198 -0.6532 -0.9016  2.5920
11727TIP3   OH256671   4.678   2.970  17.068 -0.2697  0.6105 -1.0226
11727TIP3    H156672   4.587   2.998  17.068  0.4385  2.9924 -0.1922
11727TIP3    H256673   4.679   2.890  17.120 -2.0446 -0.0153 -1.9376
11728TIP3   OH256674   1.842   0.036   0.721 -0.0177  0.0978 -0.1936
11728TIP3    H156675   1.915   0.031   0.783 -1.0922 -3.0496  0.8829
11728TIP3    H256676   1.766   0.008   0.771 -1.7234  1.7886 -1.7586
11729TIP3   OH256677   1.468   1.395   6.049  0.2784 -0.8176  0.4561
11729TIP3    H156678   1.415   1.343   5.989  1.2481 -1.4898  0.1904
11729TIP3    H256679   1.404   1.448   6.097 -0.6575 -1.8100  0.3154
11730TIP3   OH256680   0.809   2.288   1.927  0.1211 -0.2546  0.3163
11730TIP3    H156681   0.752   2.226   1.880 -0.1202  0.2200 -0.0168
11730TIP3    H256682   0.750   2.353   1.963  0.2794 -0.7705  1.5315
11731TIP3   OH256683   5.973   0.948  15.833  0.0966 -0.1394 -1.0361
11731TIP3    H156684   5.944   1.022  15.778 -0.4503  0.1357 -0.3809
11731TIP3    H256685   6.068   0.952  15.829  0.0883  1.2371 -0.1709
11732TIP3   OH256686   0.704   5.813   1.451  0.1688 -0.0344 -0.0267
11732TIP3    H156687   0.684   5.898   1.413  0.0131 -0.5366 -1.0894
11732TIP3    H256688   0.798   5.815   1.468  0.5918 -0.4687 -2.1644
11733TIP3   OH256689   1.630   1.447  16.111  0.0701  0.5254 -0.0260
11733TIP3    H156690   1.670   1.366  16.079  0.1925  1.1365 -1.4341
11733TIP3    H256691   1.586   1.484  16.034 -2.3219  0.4101  1.2245
11734TIP3   OH256692   6.038   1.928   0.636  0.0507 -0.1003 -0.1541
11734TIP3    H156693   6.097   1.876   0.690  1.6685  1.0977 -0.7337
11734TIP3    H256694   6.095   1.988   0.589 -1.7077  1.7358 -0.0129
11735TIP3   OH256695   5.897   0.353   1.492  0.1291  0.2902  0.6556
11735TIP3    H156696   5.952   0.282   1.460  0.2503  0.9527 -0.6159
11735TIP3    H256697   5.953   0.400   1.554  0.8742  0.7611 -0.3748
11736TIP3   OH256698   5.669   1.718  12.581 -0.1108 -0.3915 -0.3537
11736TIP3    H156699   5.602   1.741  12.516  0.9148  0.9409 -0.9574
11736TIP3    H256700   5.658   1.782  12.651  1.1381  0.4223 -0.8894
11737TIP3   OH256701   4.544   3.109   2.362 -0.2159 -0.7207 -0.0848
11737TIP3    H156702   4.552   3.204   2.349 -0.7166 -0.6227  0.2997
11737TIP3    H256703   4.555   3.097   2.457  0.2559 -1.0930 -0.1825
11738TIP3   OH256704   1.398   0.419   6.574 -0.3365 -0.3428  0.3015
11738TIP3    H156705   1.359   0.507   6.580 -1.8553 -0.7138 -2.7970
11738TIP3    H256706   1.488   0.430   6.605 -0.5189  2.3034  0.0241
11739TIP3   OH256707   1.931   1.424  14.388 -0.0215  0.1192 -0.2559
11739TIP3    H156708   2.016   1.387  14.363  0.1494  0.9439 -0.9328
11739TIP3    H256709   1.900   1.468  14.309  0.4547  2.6292  0.9102
11740TIP3   OH256710   2.741   0.491   1.307 -0.1995  0.4227 -0.1199
11740TIP3    H156711   2.660   0.455   1.270 -2.2017  3.0051  1.5269
11740TIP3    H256712   2.736   0.469   1.400  0.0303  2.2068  0.3320
11741TIP3   OH256713   6.472   4.945   5.792  0.0163  0.5024  0.5771
11741TIP3    H156714   6.442   4.912   5.707  0.2290  1.2231  0.2168
11741TIP3    H256715   6.561   4.910   5.802  0.3139  1.1017  0.1078
11742TIP3   OH256716   4.778   6.174  11.497 -0.4448  0.4040  0.0193
11742TIP3    H156717   4.712   6.105  11.499  0.8915 -0.8607  1.6213
11742TIP3    H256718   4.859   6.131  11.523  1.1070  1.8733 -2.1859
11743TIP3   OH256719   4.010   6.311  14.529  0.4796  0.5316 -0.3082
11743TIP3    H156720   3.972   6.252  14.464  1.3297 -0.0816 -0.2482
11743TIP3    H256721   4.053   6.254  14.592 -1.0406  1.0874  1.2621
11744TIP3   OH256722   5.406   3.420  14.231 -0.7204 -0.2172 -0.2057
11744TIP3    H156723   5.453   3.353  14.181 -0.8602  0.3248 -1.0808
11744TIP3    H256724   5.408   3.389  14.322 -0.0893 -1.0004 -0.4864
11745TIP3   OH256725   1.806   1.710  14.595  0.1207 -0.5039  0.1154
11745TIP3    H156726   1.867   1.668  14.535  0.2995 -0.6381  0.3875
11745TIP3    H256727   1.827   1.803  14.589 -0.9359 -0.3420 -1.2247
11746TIP3   OH256728   5.332   2.784   6.422  0.5896 -0.6970  0.0945
11746TIP3    H156729   5.257   2.768   6.478  2.0056 -2.8558  1.4533
11746TIP3    H256730   5.381   2.702   6.423  2.8121  0.5596 -0.9822
11747TIP3   OH256731   1.556   4.189   6.685 -0.0649 -0.3991 -0.2641
11747TIP3    H156732   1.587   4.261   6.740 -0.4712 -1.0247  0.7975
11747TIP3    H256733   1.598   4.111   6.721 -1.6747 -1.0558  0.2505
11748TIP3   OH256734   0.736   3.147  16.236  0.4754 -0.1898  0.0894
11748TIP3    H156735   0.831   3.134  16.228  0.4503 -0.4557  0.2443
11748TIP3    H256736   0.705   3.071  16.285  0.2510  0.1484  0.4725
11749TIP3   OH256737   1.269   0.917  14.548  1.0283 -0.2761 -0.1423
11749TIP3    H156738   1.315   0.993  14.585  1.0796 -0.0168 -0.7264
11749TIP3    H256739   1.184   0.918  14.590  0.7076  0.6308 -0.7828
11750TIP3   OH256740   6.076   3.644  12.470 -0.3144 -0.9013 -0.3650
11750TIP3    H156741   6.163   3.611  12.494 -1.1881 -1.9728  1.3926
11750TIP3    H256742   6.057   3.712  12.535 -0.4666 -0.0946 -1.2346
11751TIP3   OH256743   6.788   3.960  14.154 -0.1965 -0.0558  0.2411
11751TIP3    H156744   6.779   3.983  14.247  2.2941 -0.6637  0.6765
11751TIP3    H256745   6.791   3.865  14.153 -0.3602 -0.0541 -0.4830
11752TIP3   OH256746   4.739   5.975   4.932 -0.3394  0.6089 -0.0296
11752TIP3    H156747   4.657   5.988   4.980 -0.0792  0.9859  0.3196
11752TIP3    H256748   4.807   6.007   4.992  0.0630  0.2819 -0.3106
11753TIP3   OH256749   3.928   5.414  11.766  0.0160  0.0725  0.8012
11753TIP3    H156750   3.833   5.408  11.775 -0.2663  0.2219 -1.6783
11753TIP3    H256751   3.954   5.330  11.729  0.6500  0.5314  0.1858
11754TIP3   OH256752   6.500   4.907   6.068  0.3503  0.0932 -0.1844
11754TIP3    H156753   6.591   4.923   6.095  0.8341 -1.3471 -0.9217
11754TIP3    H256754   6.502   4.918   5.973 -0.1375 -0.4631 -0.2578
11755TIP3   OH256755   1.462   1.760   2.313 -0.4821 -0.0162 -0.1516
11755TIP3    H156756   1.554   1.766   2.291 -0.3329 -1.5790  0.0068
11755TIP3    H256757   1.426   1.697   2.251 -1.7823  1.7053 -1.1991
11756TIP3   OH256758   0.070   0.652  13.040  0.2165 -0.3523  0.3867
11756TIP3    H156759   0.132   0.583  13.065  1.5020 -0.2498 -2.3196
11756TIP3    H256760  -0.007   0.604  13.009  1.3569 -0.6457 -2.1116
11757TIP3   OH256761   0.453   1.087   3.815 -0.2533 -0.4050 -0.1365
11757TIP3    H156762   0.376   1.064   3.868 -1.7818 -1.4863 -2.7165
11757TIP3    H256763   0.416   1.122   3.734  1.9879 -0.5934 -1.2651
11758TIP3   OH256764   3.515   1.367   1.274  0.3092  0.5286 -0.1089
11758TIP3    H156765   3.566   1.391   1.197  1.5690  1.5241  1.0047
11758TIP3    H256766   3.577   1.374   1.347 -0.7716 -0.7338  0.9487
11759TIP3   OH256767   2.684   3.091  11.270  0.0488  0.7698  0.8485
11759TIP3    H156768   2.705   3.094  11.177  1.9504  0.7571  1.2566
11759TIP3    H256769   2.664   2.999  11.286  1.0254  0.5207  0.7035
11760TIP3   OH256770   6.246   6.701   2.643 -0.5018 -0.4930  0.5795
11760TIP3    H156771   6.261   6.702   2.549 -2.9008 -0.2174  0.1555
11760TIP3    H256772   6.322   6.655   2.680 -0.4621 -2.3033 -1.6697
11761TIP3   OH256773   2.617   0.636   1.698  0.7049  0.1806 -0.4453
11761TIP3    H156774   2.636   0.588   1.779 -1.3696 -0.0090 -0.0431
11761TIP3    H256775   2.657   0.722   1.711 -0.2797  0.4204  1.1243
11762TIP3   OH256776   4.070   2.477  12.483 -0.0857  0.0687  0.0840
11762TIP3    H156777   4.050   2.420  12.557  0.0156 -0.7171 -0.4863
11762TIP3    H256778   3.986   2.487  12.437 -0.2128  0.7934  0.4585
11763TIP3   OH256779   6.038   5.856   2.919 -0.9528 -0.2891 -0.0492
11763TIP3    H156780   6.072   5.768   2.902 -0.4654 -0.0323 -0.3819
11763TIP3    H256781   5.961   5.863   2.863 -0.4113 -0.1299 -0.7759
11764TIP3   OH256782   6.257   0.668   5.045 -0.1872 -0.2311 -0.1665
11764TIP3    H156783   6.313   0.641   4.972 -1.4988 -4.5259  0.2435
11764TIP3    H256784   6.168   0.656   5.012 -0.8012 -2.1620  2.0202
11765TIP3   OH256785   6.413   1.085  15.042  0.1264  0.4701  0.0546
11765TIP3    H156786   6.452   1.119  15.122  1.4366  2.3211 -1.3468
11765TIP3    H256787   6.468   1.011  15.018 -1.4455 -1.3743  1.9082
11766TIP3   OH256788   4.242   4.325   1.614  0.4664  0.3031  0.1640
11766TIP3    H156789   4.155   4.358   1.593  0.6034  1.0402  0.7018
11766TIP3    H256790   4.280   4.300   1.530  0.2572  1.2970 -0.2343
11767TIP3   OH256791   1.139   5.431  14.988 -1.0493  0.0632  0.3874
11767TIP3    H156792   1.059   5.388  14.957 -0.8555  0.9217 -1.3589
11767TIP3    H256793   1.117   5.524  14.991 -0.9788  0.0293  2.6648
11768TIP3   OH256794   5.072   2.460  15.896 -0.1132 -0.7584  0.2152
11768TIP3    H156795   5.165   2.440  15.900 -0.0457 -0.6259 -0.7081
11768TIP3    H256796   5.033   2.387  15.848 -0.3732 -0.4155 -0.0943
11769TIP3   OH256797   4.586   0.720  10.966 -0.6459  0.0870 -0.2971
11769TIP3    H156798   4.494   0.737  10.946  0.0508  0.8100 -3.1508
11769TIP3    H256799   4.585   0.644  11.025 -3.0800  0.5346  0.2609
11770TIP3   OH256800   2.012   2.458   5.468 -0.7821  0.8983  0.5494
11770TIP3    H156801   1.992   2.469   5.561 -1.7048  2.7222  0.1656
11770TIP3    H256802   1.956   2.522   5.424  0.0793  0.4683 -1.2185
11771TIP3   OH256803   0.355   2.137   5.825  0.8281  0.0895  0.0348
11771TIP3    H156804   0.302   2.057   5.824  3.1061 -1.4935 -0.6906
11771TIP3    H256805   0.357   2.164   5.916 -1.4946  0.3968  0.0120
11772TIP3   OH256806   3.247   2.557   1.319  0.8675 -0.3565 -0.4507
11772TIP3    H156807   3.274   2.625   1.258  2.1653 -0.2077  0.2832
11772TIP3    H256808   3.151   2.560   1.317  0.8902 -0.0446 -2.1131
11773TIP3   OH256809   3.327   2.496  11.820 -0.2449 -0.8608 -0.3763
11773TIP3    H156810   3.383   2.463  11.891 -0.9490  1.9914  1.5976
11773TIP3    H256811   3.389   2.516  11.750  0.6494 -2.2209 -0.0130
11774TIP3   OH256812   0.971   2.249   5.009 -0.1653  0.0715  0.3901
11774TIP3    H156813   0.993   2.300   4.931  0.3133 -0.2325  0.3247
11774TIP3    H256814   0.877   2.232   5.001  0.2142 -1.4576 -1.0185
11775TIP3   OH256815   6.525   5.992  12.752 -0.3452 -0.6046 -0.9393
11775TIP3    H156816   6.540   6.084  12.770  0.1407 -0.6987 -0.8722
11775TIP3    H256817   6.483   5.958  12.831 -0.1374 -0.5404 -0.8036
11776TIP3   OH256818   0.973   6.191  13.511  0.1562  0.3368  0.0286
11776TIP3    H156819   0.950   6.187  13.604 -0.2040 -2.0111 -0.1376
11776TIP3    H256820   1.063   6.223  13.510  0.6246 -0.8513  1.2841
11777TIP3   OH256821   2.016   5.521   5.380  0.5235  0.2017 -0.0121
11777TIP3    H156822   2.071   5.465   5.435  1.3355 -0.3796 -1.3674
11777TIP3    H256823   1.964   5.459   5.328  0.6366  0.7168 -0.7435
11778TIP3   OH256824   0.813   2.135  13.519  0.1704  0.3702  0.2496
11778TIP3    H156825   0.809   2.054  13.569 -0.4041  0.2409 -0.0035
11778TIP3    H256826   0.731   2.137  13.469  0.1761  1.1083  0.2587
11779TIP3   OH256827   0.571   1.995  15.211 -0.1161  0.0348  0.7245
11779TIP3    H156828   0.646   2.017  15.157 -1.6334  2.1619 -0.5770
11779TIP3    H256829   0.498   1.987  15.150 -1.2462 -0.6450  2.1190
11780TIP3   OH256830   0.503   2.686   0.746 -0.1635  0.0486  0.6103
11780TIP3    H156831   0.477   2.717   0.660 -0.4760  0.1282  0.7328
11780TIP3    H256832   0.463   2.747   0.807  0.1204  0.0377  0.8100
11781TIP3   OH256833   0.727   2.729   5.842 -0.2873  0.1636  0.6108
11781TIP3    H156834   0.796   2.724   5.909  0.6524  0.4830 -0.3241
11781TIP3    H256835   0.742   2.652   5.787  0.6116  1.3323 -0.8100
11782TIP3   OH256836   0.262   3.942  13.281 -0.2511  0.1702 -0.0771
11782TIP3    H156837   0.320   3.940  13.205 -1.2107 -0.1985 -0.8054
11782TIP3    H256838   0.230   4.032  13.286  0.3347  0.3592  0.2923
11783TIP3   OH256839   2.500   1.804  14.960 -0.8288 -0.5804  0.0570
11783TIP3    H156840   2.503   1.816  15.055  2.1194 -2.4110  0.2161
11783TIP3    H256841   2.497   1.710  14.947  2.6359 -0.5335 -1.6945
11784TIP3   OH256842   4.001   6.575  12.806 -0.1747 -0.3306 -0.0710
11784TIP3    H156843   3.922   6.624  12.783  0.0468 -0.3562 -0.8883
11784TIP3    H256844   4.073   6.626  12.770  0.1803 -0.3714  0.5684
11785TIP3   OH256845   3.057   5.016   1.440  0.0629  0.0094 -0.6497
11785TIP3    H156846   3.015   4.964   1.373  0.1979  0.5505 -1.1573
11785TIP3    H256847   3.063   5.104   1.403  1.2915  0.0283 -0.4414
11786TIP3   OH256848   4.760   3.469   5.997  0.0617 -0.2894  0.0979
11786TIP3    H156849   4.666   3.461   6.011  0.2851 -0.1115  1.8766
11786TIP3    H256850   4.799   3.435   6.077  1.4036  2.7996  0.8392
11787TIP3   OH256851   4.308   2.126  12.844  0.1750 -0.4841 -0.6729
11787TIP3    H156852   4.375   2.162  12.786  0.3868  0.1252 -0.0629
11787TIP3    H256853   4.303   2.033  12.822  0.0257 -0.1935 -1.8819
11788TIP3   OH256854   0.313   6.505  12.533  0.9360  0.1346  0.4694
11788TIP3    H156855   0.354   6.567  12.472  1.0330 -0.7183 -0.3393
11788TIP3    H256856   0.264   6.445  12.477  2.2148 -1.5452  1.1337
11789TIP3   OH256857   4.968   3.066  16.468 -0.1180  0.0961 -0.0739
11789TIP3    H156858   5.012   2.991  16.507  0.9409  0.2952 -0.8743
11789TIP3    H256859   4.903   3.093  16.534  0.5784 -0.5284  0.8743
11790TIP3   OH256860   0.860   6.222   5.827 -0.0366  0.5954 -0.7521
11790TIP3    H156861   0.882   6.306   5.866 -0.3671  0.4722 -0.3075
11790TIP3    H256862   0.898   6.226   5.739  1.8046  0.3819 -0.0045
11791TIP3   OH256863   3.163   6.785  13.824 -0.0793 -0.5909 -0.0916
11791TIP3    H156864   3.170   6.816  13.914 -0.8467 -1.0405  0.1248
11791TIP3    H256865   3.069   6.775  13.809 -0.0096  0.1725 -1.1785
11792TIP3   OH256866   6.249   1.800   0.758  0.4331 -0.0181 -0.1674
11792TIP3    H156867   6.280   1.740   0.690 -0.8104 -1.0657  0.1480
11792TIP3    H256868   6.328   1.837   0.796  1.2061 -0.9053 -0.8907
11793TIP3   OH256869   2.491   6.266  15.578  0.6971  0.6182  0.8508
11793TIP3    H156870   2.531   6.290  15.662  2.9314 -0.8248  0.2387
11793TIP3    H256871   2.558   6.287  15.513 -1.1160  1.9538 -0.6309
11794TIP3   OH256872   4.126   2.095   0.362 -0.0377 -0.3923 -0.2707
11794TIP3    H156873   4.091   2.012   0.329 -2.1074  0.1603  0.4753
11794TIP3    H256874   4.143   2.078   0.455 -1.5761  0.3504  0.1577
11795TIP3   OH256875   5.009   1.811   2.038 -0.3089  0.0733 -0.0939
11795TIP3    H156876   4.952   1.888   2.038 -1.0444 -0.4621 -1.5443
11795TIP3    H256877   4.968   1.751   2.100 -0.6825  0.1593 -0.2538
11796TIP3   OH256878   3.440   6.191   4.479 -0.5734  0.2779 -0.0020
11796TIP3    H156879   3.454   6.269   4.425 -0.3403 -0.4686 -1.0404
11796TIP3    H256880   3.396   6.130   4.420 -1.1823 -0.2018  0.9555
11797TIP3   OH256881   2.630   3.601   3.739  0.3770 -0.2278 -0.2632
11797TIP3    H156882   2.662   3.635   3.655 -0.0752 -0.4809 -0.5446
11797TIP3    H256883   2.542   3.638   3.747  0.8716  0.7774  0.6852
11798TIP3   OH256884   1.391   5.082  14.863 -0.3015  0.3809 -0.1994
11798TIP3    H156885   1.334   5.070  14.939 -1.5678 -0.9803 -1.3265
11798TIP3    H256886   1.362   5.016  14.800  3.6409 -1.5368 -0.1675
11799TIP3   OH256887   5.204   6.717  12.397  0.0368  0.5928  0.0292
11799TIP3    H156888   5.173   6.725  12.306 -1.2316  0.7103  0.4654
11799TIP3    H256889   5.180   6.628  12.423 -0.6797  0.9545  0.6364
11800TIP3   OH256890   2.312   2.846  15.761  0.4255  0.7080  0.3541
11800TIP3    H156891   2.272   2.847  15.675  0.1032  1.2565  0.5136
11800TIP3    H256892   2.388   2.788  15.752 -2.2267 -3.0013  0.8928
11801TIP3   OH256893   3.096   5.302  11.944 -0.2036  0.3155  0.6818
11801TIP3    H156894   3.145   5.220  11.943 -0.2367  0.2743  1.6998
11801TIP3    H256895   3.004   5.275  11.940 -0.2576  0.2453  2.1736
11802TIP3   OH256896   4.511   1.386  16.662  0.1005 -0.2085 -0.0996
11802TIP3    H156897   4.571   1.425  16.725  0.8666  0.4132 -1.1955
11802TIP3    H256898   4.515   1.292  16.681 -1.8430  0.2072  2.6144
11803TIP3   OH256899   1.400   2.699  11.979  0.0067 -0.2793 -0.8685
11803TIP3    H156900   1.453   2.639  12.031  0.7431  1.8230  0.8661
11803TIP3    H256901   1.458   2.728  11.909  0.6437  0.8237  0.1202
11804TIP3   OH256902   2.000   6.297   5.116 -0.5750 -0.3326  0.1067
11804TIP3    H156903   1.964   6.246   5.188  1.9347 -0.9099  0.9899
11804TIP3    H256904   2.078   6.248   5.088  0.2641  1.5318 -0.9223
11805TIP3   OH256905   1.184   5.165  14.546  0.0312 -0.1331  0.0965
11805TIP3    H156906   1.173   5.128  14.633 -0.5815 -1.5029 -0.5475
11805TIP3    H256907   1.237   5.244  14.560 -0.1901 -0.2530  1.7118
11806TIP3   OH256908   2.626   5.531   1.634 -0.1870  0.4882  0.2613
11806TIP3    H156909   2.679   5.500   1.707 -0.4100 -1.0130 -0.2003
11806TIP3    H256910   2.586   5.613   1.666 -1.2366 -0.7646  2.2556
11807TIP3   OH256911   2.433   0.973  17.250  0.0868  0.2239  0.7026
11807TIP3    H156912   2.365   1.040  17.261 -1.4285 -0.9159 -1.3170
11807TIP3    H256913   2.385   0.894  17.225  2.0805 -0.9121  0.3693
11808TIP3   OH256914   3.215   1.400   5.769  0.5088 -0.1227 -0.0234
11808TIP3    H156915   3.266   1.373   5.845 -0.2872  0.5882  0.7748
11808TIP3    H256916   3.159   1.471   5.801 -0.2992 -0.2499 -1.1146
11809TIP3   OH256917   2.238   2.561  15.833 -0.7977 -0.8762 -0.4959
11809TIP3    H156918   2.172   2.584  15.899 -0.6247 -2.8953  0.4188
11809TIP3    H256919   2.188   2.547  15.753 -1.3915 -1.6001 -0.0050
11810TIP3   OH256920   4.353   0.796   3.855  0.2602  0.1667 -0.0953
11810TIP3    H156921   4.416   0.728   3.880 -0.6843 -1.5029 -2.0339
11810TIP3    H256922   4.395   0.841   3.782 -0.3522 -0.3190 -0.7585
11811TIP3   OH256923   6.753   5.032  16.269 -0.3950  0.2602  0.0145
11811TIP3    H156924   6.834   4.982  16.260 -0.5862 -0.2161  0.8636
11811TIP3    H256925   6.684   4.968  16.251 -0.7610 -0.4955  3.7160
11812TIP3   OH256926   2.914   3.326   1.456 -0.2052 -0.1515 -0.1251
11812TIP3    H156927   2.876   3.244   1.489 -0.7535 -0.2455 -0.9454
11812TIP3    H256928   2.838   3.379   1.432  0.1533  0.5942  0.3959
11813TIP3   OH256929   2.807   2.355   4.241 -0.5592  0.2317  0.1269
11813TIP3    H156930   2.900   2.376   4.254 -0.3877 -0.0039 -0.6598
11813TIP3    H256931   2.785   2.397   4.158 -1.0550 -0.0352  0.1241
11814TIP3   OH256932   6.098   5.039  16.786 -0.4324  0.1512 -0.5360
11814TIP3    H156933   6.015   5.042  16.832 -0.1434  0.5755 -0.0382
11814TIP3    H256934   6.117   5.130  16.765  0.2753  0.1396  0.0305
11815TIP3   OH256935   1.016   4.590  13.521  0.3252 -0.0549 -0.4456
11815TIP3    H156936   0.971   4.674  13.508 -1.5013 -0.9337  0.0539
11815TIP3    H256937   1.077   4.584  13.448 -0.1280  1.3322 -0.9529
11816TIP3   OH256938   5.952   4.372   4.703  0.1885  0.4359  0.2057
11816TIP3    H156939   5.934   4.311   4.775 -1.9218  1.8886  0.9653
11816TIP3    H256940   5.977   4.453   4.747  1.5736  0.5481 -0.7761
11817TIP3   OH256941   2.516   3.859  11.952 -0.7260 -0.3033  0.6555
11817TIP3    H156942   2.543   3.773  11.982  0.6485 -0.2026 -0.2849
11817TIP3    H256943   2.585   3.918  11.982 -0.3685  0.0965 -0.9129
11818TIP3   OH256944   5.318   4.641   1.316 -0.2489 -0.2945  0.0543
11818TIP3    H156945   5.330   4.658   1.409 -1.4742 -1.2780  0.4058
11818TIP3    H256946   5.297   4.726   1.278  0.1665  0.0871  0.6858
11819TIP3   OH256947   3.874   6.135  12.425  0.4627  0.8907  0.6387
11819TIP3    H156948   3.962   6.114  12.457  0.8028  0.3495 -0.6226
11819TIP3    H256949   3.845   6.208  12.480  1.6658  1.0197  1.1168
11820TIP3   OH256950   4.352   4.457   4.900  0.3026  0.1820 -0.4466
11820TIP3    H156951   4.416   4.481   4.833  0.8785 -0.3439 -0.0838
11820TIP3    H256952   4.353   4.531   4.961 -0.7095  0.9670 -1.3620
11821TIP3   OH256953   3.101   5.897   3.654 -0.5385  0.2329  0.0494
11821TIP3    H156954   3.144   5.929   3.734 -0.0058  0.4845 -0.3321
11821TIP3    H256955   3.008   5.906   3.671 -0.4144  0.8691  0.4091
11822TIP3   OH256956   0.667   6.143   3.519  0.1785  0.7035  0.0390
11822TIP3    H156957   0.654   6.217   3.578 -1.5089 -0.4727  1.1786
11822TIP3    H256958   0.578   6.118   3.492  0.7680 -0.5523 -0.7748
11823TIP3   OH256959   0.317   0.148   2.853 -0.1233  0.4505  0.1806
11823TIP3    H156960   0.403   0.115   2.879 -0.2394 -0.7759 -0.9292
11823TIP3    H256961   0.263   0.140   2.931  0.2522 -0.6602  0.3378
11824TIP3   OH256962   0.700   3.813   6.022 -0.2321 -0.3416 -0.0171
11824TIP3    H156963   0.663   3.757   6.090  1.0981  0.0317  1.0324
11824TIP3    H256964   0.636   3.883   6.012  0.1016  0.2297  1.6807
11825TIP3   OH256965   4.873   2.125  16.006  0.2593 -0.1871  0.1877
11825TIP3    H156966   4.819   2.202  15.986 -0.8133 -0.7422  0.9146
11825TIP3    H256967   4.901   2.139  16.096 -2.7942 -2.2753  1.5567
11826TIP3   OH256968   1.739   5.973  12.294  0.3561  0.1715  0.3960
11826TIP3    H156969   1.807   5.996  12.358  0.4949  1.3098 -0.1463
11826TIP3    H256970   1.784   5.974  12.210 -0.8181  3.4206 -0.2833
11827TIP3   OH256971   0.552   1.871   2.757 -0.6974  0.5263 -0.5788
11827TIP3    H156972   0.570   1.778   2.767 -0.5127  0.5879 -0.3385
11827TIP3    H256973   0.620   1.903   2.698  1.5713  1.2763  2.3239
11828TIP3   OH256974   1.104   5.179  16.746  0.3921  0.2666 -0.0877
11828TIP3    H156975   1.025   5.230  16.730  0.9407  1.7413  1.7205
11828TIP3    H256976   1.085   5.130  16.826  0.6566 -0.7578 -0.6445
11829TIP3   OH256977   2.019   2.819  11.112 -0.3433  0.1627  0.5576
11829TIP3    H156978   1.984   2.886  11.170 -1.5806 -0.6174  0.7235
11829TIP3    H256979   1.944   2.763  11.092  0.2048  0.0568 -1.2907
11830TIP3   OH256980   6.476   5.973  12.093  0.2199 -0.2415 -0.4808
11830TIP3    H156981   6.537   5.966  12.019 -0.3696 -1.1161 -0.8975
11830TIP3    H256982   6.390   5.958  12.054 -0.2893  1.2100  0.0625
11831TIP3   OH256983   6.127   5.179   5.901  0.2876  0.1294 -0.2428
11831TIP3    H156984   6.126   5.114   5.831  0.4475 -0.0387 -0.0899
11831TIP3    H256985   6.160   5.131   5.978  0.8257  0.4977 -0.2390
11832TIP3   OH256986   5.400   0.601   0.657  0.0289 -0.3673  0.4057
11832TIP3    H156987   5.346   0.660   0.604 -0.9294 -0.8163  0.8630
11832TIP3    H256988   5.489   0.633   0.645 -0.1763 -0.4098 -1.4165
11833TIP3   OH256989   1.140   4.068  10.698 -0.0232 -0.1764  0.1920
11833TIP3    H156990   1.062   4.068  10.754 -0.9865  0.4655 -1.1351
11833TIP3    H256991   1.142   4.156  10.659  0.9730 -0.4204 -0.3234
11834TIP3   OH256992   4.498   0.978   3.247  0.4196  0.0217 -0.8622
11834TIP3    H156993   4.477   0.885   3.257  0.1398  0.2762  1.1243
11834TIP3    H256994   4.544   0.983   3.163 -0.3342 -1.7692 -1.4171
11835TIP3   OH256995   1.912   3.906   2.474 -0.5142 -0.5580 -0.7127
11835TIP3    H156996   1.883   3.829   2.425  1.7619 -0.5826 -2.0883
11835TIP3    H256997   2.003   3.887   2.497 -0.9347  0.3275  1.8307
11836TIP3   OH256998   6.211   0.201  14.162  0.2225  0.1464 -0.7883
11836TIP3    H156999   6.206   0.134  14.093 -0.1297 -0.5589 -0.0868
11836TIP3    H257000   6.275   0.264  14.129  0.6599 -0.6009 -1.4050
11837TIP3   OH257001   0.032   1.751  14.449  0.1578 -0.1042  0.1204
11837TIP3    H157002   0.030   1.843  14.474 -1.8446 -0.0783 -0.0139
11837TIP3    H257003   0.016   1.751  14.355 -1.9986 -0.6671  0.4601
11838TIP3   OH257004   0.177   0.871   2.046 -0.2692 -0.4322  0.5141
11838TIP3    H157005   0.106   0.918   2.090  0.2227 -1.2969  2.2653
11838TIP3    H257006   0.140   0.784   2.028  0.0748 -0.6264  0.7296
11839TIP3   OH257007   0.082   6.794   1.100  0.3122 -0.4629 -0.5403
11839TIP3    H157008   0.095   6.736   1.025  1.9297 -2.1982  1.0142
11839TIP3    H257009  -0.011   6.785   1.122  0.5188 -2.3624 -0.4094
11840TIP3   OH257010   0.183   2.172  11.579  0.4600  0.2382 -0.1239
11840TIP3    H157011   0.234   2.151  11.657  0.8332  1.6625  0.0253
11840TIP3    H257012   0.092   2.166  11.609  0.6147  1.8936  0.7331
11841TIP3   OH257013   3.526   0.725  14.253 -0.4519  0.4289  0.1776
11841TIP3    H157014   3.569   0.733  14.339 -3.1533  0.1833  1.6118
11841TIP3    H257015   3.533   0.633  14.231  0.5714  0.5534 -0.0796
11842TIP3   OH257016   4.041   0.050  15.241  0.5164 -0.2466 -0.1599
11842TIP3    H157017   3.997   0.075  15.322 -0.2835  1.5945 -1.1319
11842TIP3    H257018   4.129   0.087  15.248  0.3766  0.0971 -0.2315
11843TIP3   OH257019   6.286   1.545  12.424 -0.1270  0.2344 -0.9044
11843TIP3    H157020   6.307   1.579  12.511  0.6434  0.0348 -1.0149
11843TIP3    H257021   6.193   1.522  12.430  0.5901 -2.5868  0.8371
11844TIP3   OH257022   6.610   6.550   5.028  0.0587 -0.0045  0.1678
11844TIP3    H157023   6.547   6.592   4.970  0.2469 -0.8238 -0.6363
11844TIP3    H257024   6.631   6.617   5.093 -0.2233  0.8942 -0.6587
11845TIP3   OH257025   1.378   1.948   5.778  0.8784  0.0896  0.3180
11845TIP3    H157026   1.334   2.013   5.724 -1.4293 -0.8442  1.0418
11845TIP3    H257027   1.353   1.970   5.868  0.6998 -1.3251  0.6254
11846TIP3   OH257028   0.153   6.710   2.998  0.1509  0.0202 -0.1249
11846TIP3    H157029   0.203   6.713   2.917  0.9771  1.8360  0.4166
11846TIP3    H257030   0.212   6.668   3.061 -0.0935 -0.4399 -0.2024
11847TIP3   OH257031   0.375   6.569  13.785  0.3621 -0.1795  0.1567
11847TIP3    H157032   0.373   6.624  13.863  1.0671 -1.5757  1.1726
11847TIP3    H257033   0.347   6.627  13.714  0.5848  1.3393  1.2930
11848TIP3   OH257034   4.738   3.726   1.692  0.3371  0.1376 -0.2979
11848TIP3    H157035   4.697   3.748   1.609  1.6630  0.2315 -0.9388
11848TIP3    H257036   4.751   3.632   1.689  1.5079  0.3029 -0.7314
11849TIP3   OH257037   5.546   2.433   1.099  0.1859 -0.2435 -0.4378
11849TIP3    H157038   5.523   2.344   1.072  0.1014  0.1671 -1.7093
11849TIP3    H257039   5.585   2.473   1.021  0.5242  0.7345  0.2231
11850TIP3   OH257040   1.030   1.104   5.182  0.4288  0.2071 -0.0173
11850TIP3    H157041   0.958   1.060   5.138  1.8444 -0.2184 -1.9877
11850TIP3    H257042   1.006   1.102   5.275 -1.6325 -0.7380 -0.5379
11851TIP3   OH257043   1.421   0.983   4.451 -0.5704 -0.4756 -0.6399
11851TIP3    H157044   1.420   0.890   4.430  0.0277 -0.6196 -0.0453
11851TIP3    H257045   1.468   0.988   4.534  0.5982  0.4912 -1.3476
11852TIP3   OH257046   3.401   2.736   6.473  0.1294  0.9658 -0.2485
11852TIP3    H157047   3.344   2.813   6.469 -0.9192  0.1696 -1.0942
11852TIP3    H257048   3.488   2.770   6.453 -0.1687  2.0850  0.3174
11853TIP3   OH257049   1.855   4.009  12.491 -0.2584  0.2224  0.5164
11853TIP3    H157050   1.761   4.026  12.504 -0.2816  2.2433 -1.8453
11853TIP3    H257051   1.896   4.095  12.503  0.5997  0.5106 -3.7858
11854TIP3   OH257052   5.113   1.971   5.772  0.8312 -0.6252 -0.7446
11854TIP3    H157053   5.060   2.001   5.698  1.3153  0.1548 -0.7876
11854TIP3    H257054   5.119   2.048   5.829  0.2234 -1.3052  0.2499
11855TIP3   OH257055   0.692   0.270   0.969 -0.0359 -0.4414  0.5844
11855TIP3    H157056   0.618   0.229   1.014 -0.2479  0.0160  0.6642
11855TIP3    H257057   0.720   0.206   0.905 -0.6228 -0.5531  0.4322
11856TIP3   OH257058   6.807   3.537  16.117  0.3535  0.4099  0.1431
11856TIP3    H157059   6.883   3.593  16.102  0.1700  0.7563  0.4866
11856TIP3    H257060   6.761   3.578  16.190  0.0128  0.0203  0.1506
11857TIP3   OH257061   0.187   5.332   1.317 -0.0218 -0.2216  0.0059
11857TIP3    H157062   0.208   5.295   1.403  0.1996  0.8102  0.4134
11857TIP3    H257063   0.129   5.406   1.337 -0.9458 -0.7005 -0.8278
11858TIP3   OH257064   5.894   3.089   0.363  0.1882  0.2430  0.0593
11858TIP3    H157065   5.925   3.058   0.278  1.4932  0.7474  0.3447
11858TIP3    H257066   5.853   3.173   0.345 -0.4287 -0.1116 -0.2149
11859TIP3   OH257067   0.258   5.115  11.653 -0.0185 -0.2839  0.0954
11859TIP3    H157068   0.212   5.188  11.694  1.3025  0.0451  1.0378
11859TIP3    H257069   0.193   5.073  11.598 -0.9042  1.3699 -0.1393
11860TIP3   OH257070   1.887   5.246  12.449  0.3077  0.0521  0.5407
11860TIP3    H157071   1.794   5.262  12.430 -0.0272 -1.7937  0.4471
11860TIP3    H257072   1.903   5.292  12.532 -0.2193  1.8535 -0.3429
11861TIP3   OH257073   5.137   2.913   1.682 -0.2775 -0.4123 -0.2681
11861TIP3    H157074   5.158   2.967   1.606  0.8332 -0.3530  0.0761
11861TIP3    H257075   5.059   2.864   1.656 -0.6634  0.5649 -0.9676
11862TIP3   OH257076   2.545   3.289  16.361  0.1006  0.3938 -0.8353
11862TIP3    H157077   2.481   3.346  16.318  0.1016  1.4136  0.5020
11862TIP3    H257078   2.605   3.263  16.291 -1.6968 -0.4888 -2.0862
11863TIP3   OH257079   5.534   3.694   3.329 -0.0234  0.0310 -0.1474
11863TIP3    H157080   5.500   3.764   3.273 -2.0405 -0.9859 -0.2169
11863TIP3    H257081   5.457   3.647   3.359  1.2581 -1.6354  0.6286
11864TIP3   OH257082   2.566   4.848  15.127 -0.1573  0.2676 -0.4690
11864TIP3    H157083   2.629   4.783  15.096  0.5121  0.9720 -0.5756
11864TIP3    H257084   2.520   4.803  15.198 -0.4193 -0.6948 -1.2243
11865TIP3   OH257085   0.002   0.907  14.533 -0.3199 -0.1686 -0.5810
11865TIP3    H157086  -0.060   0.914  14.461 -0.3029  0.3089 -0.5512
11865TIP3    H257087  -0.017   0.822  14.573  0.7981 -1.1996 -2.1808
11866TIP3   OH257088   1.999   0.600  14.354 -0.7122  0.6036  0.2506
11866TIP3    H157089   1.967   0.531  14.295 -0.6264  1.1594 -0.4562
11866TIP3    H257090   1.923   0.625  14.405 -0.8988  0.4339  0.0564
11867TIP3   OH257091   5.460   2.525   4.706 -0.0268  0.0468 -0.1890
11867TIP3    H157092   5.438   2.542   4.798  2.1730 -0.0463  0.3940
11867TIP3    H257093   5.438   2.433   4.692  1.1040 -0.3805  0.7327
11868TIP3   OH257094   1.897   3.393  13.897 -0.7187 -0.1303 -0.3686
11868TIP3    H157095   1.917   3.309  13.857 -0.3229 -1.1541  1.8972
11868TIP3    H257096   1.923   3.458  13.832  1.4624 -1.6902 -1.0888
11869TIP3   OH257097   2.112   0.257  17.125 -0.1428 -0.1175 -0.1021
11869TIP3    H157098   2.019   0.269  17.144 -0.3242 -1.1397 -0.3603
11869TIP3    H257099   2.143   0.196  17.192  0.8216  1.8278  1.2865
11870TIP3   OH257100   6.192   1.538   5.409  0.4847 -0.4134  0.3244
11870TIP3    H157101   6.152   1.480   5.344  2.7553 -1.6056 -0.0628
11870TIP3    H257102   6.149   1.516   5.491 -0.9219 -0.3835 -0.3834
11871TIP3   OH257103   4.893   4.733  15.651 -0.1482  0.0550 -0.2063
11871TIP3    H157104   4.879   4.766  15.563 -1.1219  0.6260  0.1582
11871TIP3    H257105   4.884   4.638  15.643 -1.4770  0.1959 -0.4990
11872TIP3   OH257106   5.225   2.516  13.751 -0.2646  0.1011  0.1128
11872TIP3    H157107   5.279   2.554  13.682  1.2840 -3.7177 -0.8717
11872TIP3    H257108   5.284   2.506  13.826 -0.0513 -2.2416 -0.3266
11873TIP3   OH257109   4.141   1.843   4.397  0.4774  0.3750 -0.4138
11873TIP3    H157110   4.231   1.841   4.366  1.0884  1.3213  1.2207
11873TIP3    H257111   4.123   1.935   4.413 -0.9125  0.2309 -1.0830
11874TIP3   OH257112   4.466   1.651   1.267  0.1816  0.1287 -0.5086
11874TIP3    H157113   4.377   1.638   1.301  0.3090 -0.0677 -0.2476
11874TIP3    H257114   4.472   1.590   1.193 -0.1893  0.7536 -1.0598
11875TIP3   OH257115   5.185   0.174  14.169 -0.2282  0.1545 -0.0482
11875TIP3    H157116   5.143   0.135  14.092 -0.6368  2.5583 -1.1023
11875TIP3    H257117   5.188   0.103  14.233  1.5172 -2.3840 -2.7681
11876TIP3   OH257118   2.180   2.999   0.079  0.0600 -0.2787  0.0571
11876TIP3    H157119   2.195   2.942   0.154 -1.0470 -1.5860 -0.7049
11876TIP3    H257120   2.093   3.035   0.093  0.7128  1.1659  0.4865
11877TIP3   OH257121   2.277   4.251  15.341  0.0075 -0.0121  0.2739
11877TIP3    H157122   2.287   4.308  15.417  0.1289  0.7118 -0.2789
11877TIP3    H257123   2.327   4.294  15.272 -1.7777  0.3950 -0.7919
11878TIP3   OH257124   3.529   3.617  16.358  0.1723  0.4966  0.0737
11878TIP3    H157125   3.536   3.681  16.287  0.1529 -0.3345 -0.7010
11878TIP3    H257126   3.618   3.612  16.393  1.0175 -1.6262 -2.2016
11879TIP3   OH257127   1.374   6.258   5.655  0.8688  0.4163  0.5616
11879TIP3    H157128   1.466   6.278   5.641  0.4968  1.0687 -1.0901
11879TIP3    H257129   1.351   6.197   5.585 -0.2493  1.2496  0.1771
11880TIP3   OH257130   3.774   5.112   5.584  0.2366  0.1290 -0.1602
11880TIP3    H157131   3.763   5.104   5.489 -1.4420  0.3533 -0.0043
11880TIP3    H257132   3.713   5.181   5.609 -0.2267 -0.7538  1.2346
11881TIP3   OH257133   6.192   6.099   0.343 -0.0122  0.2119  0.2310
11881TIP3    H157134   6.154   6.074   0.427  0.9558  0.8231  0.8638
11881TIP3    H257135   6.117   6.114   0.286 -0.7256  1.0969  1.3682
11882TIP3   OH257136   5.013   2.709  14.272  0.0812  0.1124 -0.7040
11882TIP3    H157137   4.937   2.768  14.264  0.6477  0.7467 -1.4263
11882TIP3    H257138   5.045   2.698  14.183  1.9993  1.3850 -0.1938
11883TIP3   OH257139   0.624   1.794   3.957  0.9087  0.4067  0.1875
11883TIP3    H157140   0.583   1.821   4.040  0.5248  1.5357 -0.3616
11883TIP3    H257141   0.620   1.698   3.959 -0.1405  0.4509  0.9611
11884TIP3   OH257142   2.638   2.223   0.368 -0.0985  0.0857  0.3386
11884TIP3    H157143   2.661   2.183   0.451  0.4385 -0.0329  0.1299
11884TIP3    H257144   2.720   2.229   0.319 -0.0017  2.2398  0.7081
11885TIP3   OH257145   3.566   0.592   0.099  0.0189  0.2127  0.0693
11885TIP3    H157146   3.646   0.589   0.151  0.3138 -0.0349 -0.3907
11885TIP3    H257147   3.530   0.503   0.104  0.5800 -0.0771 -0.9638
11886TIP3   OH257148   6.051   2.523   5.119  0.5532  0.0175  0.1446
11886TIP3    H157149   6.048   2.617   5.138  1.6919 -0.3321  2.1598
11886TIP3    H257150   6.099   2.517   5.037 -0.2903  1.2439 -0.4635
11887TIP3   OH257151   4.786   0.227  12.728 -0.7249 -0.6656  0.0124
11887TIP3    H157152   4.743   0.165  12.670  0.1963 -1.2212 -0.0855
11887TIP3    H257153   4.718   0.253  12.790 -1.5494 -0.5201 -0.9505
11888TIP3   OH257154   1.200   6.549  12.245 -0.5722  0.0776  0.0459
11888TIP3    H157155   1.177   6.498  12.167  1.2132 -0.7635  0.0340
11888TIP3    H257156   1.209   6.483  12.314  1.2925  0.4130  0.1429
11889TIP3   OH257157   2.229   1.745   0.555 -0.6655  0.3273  0.2780
11889TIP3    H157158   2.233   1.676   0.488 -2.6838  0.2699  0.1963
11889TIP3    H257159   2.137   1.771   0.557 -0.0229  2.6761  0.6846
11890TIP3   OH257160   1.111   4.474   2.429 -1.3275  0.3634 -0.2407
11890TIP3    H157161   1.142   4.398   2.478 -0.0396  1.4559  0.6503
11890TIP3    H257162   1.060   4.525   2.492 -1.7633  0.5027 -0.7011
11891TIP3   OH257163   4.522   1.819   3.056  0.0067  0.6899  0.0817
11891TIP3    H157164   4.505   1.809   2.962  1.5283  1.5657 -0.2947
11891TIP3    H257165   4.494   1.908   3.076  0.7739  0.9094  0.2029
11892TIP3   OH257166   3.938   5.412   4.733 -0.2436  0.7215  0.0946
11892TIP3    H157167   3.920   5.506   4.732 -0.9754  0.5836 -1.0370
11892TIP3    H257168   4.018   5.402   4.681 -0.4791  0.6634 -0.2595
11893TIP3   OH257169   5.507   4.711   2.718 -0.5389  0.7097 -0.3976
11893TIP3    H157170   5.510   4.742   2.808 -2.3348 -0.7138  0.1907
11893TIP3    H257171   5.414   4.694   2.701 -0.0567 -0.5445 -1.9892
11894TIP3   OH257172   6.692   1.867  10.539  0.0922 -0.1607  0.2105
11894TIP3    H157173   6.784   1.891  10.540 -0.0096  0.1978  1.9122
11894TIP3    H257174   6.692   1.772  10.523  0.8829 -0.6337  2.7344
11895TIP3   OH257175   3.762   6.006   0.216  0.2234  0.1671 -0.9305
11895TIP3    H157176   3.694   6.002   0.283  0.8832  1.2467 -0.1858
11895TIP3    H257177   3.807   5.921   0.222 -0.3524 -0.1204 -0.6864
11896TIP3   OH257178   6.093   6.348  17.046  0.5410  0.4484  0.0113
11896TIP3    H157179   6.186   6.334  17.030  0.4392 -0.3379  0.0836
11896TIP3    H257180   6.050   6.318  16.966  0.4064  1.7665 -0.4279
11897TIP3   OH257181   6.284   0.530   3.890 -0.0184  0.0404 -0.0043
11897TIP3    H157182   6.247   0.548   3.977 -0.0000  1.3790 -0.2678
11897TIP3    H257183   6.262   0.438   3.874 -0.8636  0.0525  1.0007
11898TIP3   OH257184   0.658   5.238   4.320 -0.3007  0.0517  0.4359
11898TIP3    H157185   0.736   5.284   4.354  0.8722 -0.9217 -0.9071
11898TIP3    H257186   0.612   5.208   4.399  1.6923 -1.0270  1.2305
11899TIP3   OH257187   4.596   3.210   5.449 -0.6237  0.4580 -0.4611
11899TIP3    H157188   4.678   3.183   5.408 -0.2286  1.1428 -0.1229
11899TIP3    H257189   4.569   3.134   5.501 -0.3070  0.1647 -0.7235
11900TIP3   OH257190   1.056   5.464   2.294  0.0684 -0.2714  0.0281
11900TIP3    H157191   1.071   5.548   2.251 -1.3976 -0.6249 -1.1924
11900TIP3    H257192   1.089   5.398   2.232 -2.2821 -0.7956 -0.7172
11901TIP3   OH257193   4.814   6.639  17.123  0.5118 -0.4523  0.8354
11901TIP3    H157194   4.802   6.682  17.208  2.1342 -0.2930  1.0075
11901TIP3    H257195   4.819   6.545  17.145 -1.1592 -0.5930  0.6694
11902TIP3   OH257196   3.792   1.193   2.800 -0.0661  0.2070 -0.6106
11902TIP3    H157197   3.742   1.128   2.750 -0.8193 -0.4806  0.9954
11902TIP3    H257198   3.869   1.145   2.830  0.3614  0.6069 -1.0642
11903TIP3   OH257199   6.429   0.032   3.389 -0.3409  0.3878 -0.2348
11903TIP3    H157200   6.428  -0.051   3.436 -1.0338  0.1915 -0.5910
11903TIP3    H257201   6.404   0.009   3.299  0.6683  0.7974 -0.6301
11904TIP3   OH257202   0.710   6.530  13.050  0.0778  0.2244 -0.4856
11904TIP3    H157203   0.677   6.460  13.107  0.2540  0.3769 -0.1950
11904TIP3    H257204   0.680   6.506  12.963 -0.7949  0.3550 -0.2246
11905TIP3   OH257205   0.010   2.538   0.661 -0.0327 -0.1298 -0.6021
11905TIP3    H157206   0.017   2.565   0.570 -0.7791  1.6608 -0.1415
11905TIP3    H257207   0.034   2.445   0.660  3.1200  0.6575 -2.1094
11906TIP3   OH257208   5.080   3.753   2.834  0.1159  0.1910 -0.0163
11906TIP3    H157209   5.077   3.661   2.805 -0.2724  0.5552 -1.1468
11906TIP3    H257210   5.012   3.759   2.901  0.8649 -0.6029  0.8360
11907TIP3   OH257211   1.035   4.155   2.015 -0.1685  0.5668 -0.1034
11907TIP3    H157212   0.958   4.128   2.065  0.0932 -0.9228 -0.4688
11907TIP3    H257213   1.057   4.241   2.049 -0.2024 -0.2720  2.1121
11908TIP3   OH257214   1.492   6.362   0.208  0.5000  0.0783 -0.0402
11908TIP3    H157215   1.515   6.274   0.240  2.4287  0.5396 -0.0965
11908TIP3    H257216   1.402   6.374   0.236  1.7415  0.0601  4.4070
11909TIP3   OH257217   1.898   0.418  14.174 -0.1537 -0.7294  0.4674
11909TIP3    H157218   1.804   0.403  14.162  0.2481 -1.7786 -1.7612
11909TIP3    H257219   1.919   0.487  14.111  1.0508 -2.4901 -1.1333
11910TIP3   OH257220   5.011   2.808  12.269  0.4291  0.1447 -0.5660
11910TIP3    H157221   4.925   2.774  12.294  0.1838  0.0680 -1.4729
11910TIP3    H257222   5.074   2.753  12.315  0.0054 -0.6905 -0.9753
11911TIP3   OH257223   6.186   4.054  13.194  0.0178 -0.3228 -0.3963
11911TIP3    H157224   6.162   4.021  13.107 -0.9784 -1.3702  0.2734
11911TIP3    H257225   6.271   4.014  13.211  0.0921 -0.3288 -0.7665
11912TIP3   OH257226   1.829   0.249   5.330  0.1399  0.0006  0.1748
11912TIP3    H157227   1.888   0.270   5.403 -0.1955 -0.1689  0.4925
11912TIP3    H257228   1.742   0.243   5.370 -0.1786  0.8391 -0.4001
11913TIP3   OH257229   0.557   0.748   5.959 -0.0378  0.2933  0.1102
11913TIP3    H157230   0.605   0.719   6.037  0.6654  0.4052 -0.2741
11913TIP3    H257231   0.472   0.706   5.966  0.9164 -1.7971 -0.3702
11914TIP3   OH257232   6.128   0.455  11.193 -0.2692  0.1670  0.1716
11914TIP3    H157233   6.201   0.499  11.150 -0.0105  1.3248  1.7456
11914TIP3    H257234   6.140   0.362  11.172  0.3675  0.6057 -1.4458
11915TIP3   OH257235   1.997   5.465   0.746 -0.0722 -0.0425 -0.2150
11915TIP3    H157236   2.002   5.377   0.783 -2.2102 -0.8506 -1.6959
11915TIP3    H257237   2.010   5.452   0.652 -0.7231  1.1624 -0.4810
11916TIP3   OH257238   1.151   2.317  12.968 -0.7831  0.5813 -0.4110
11916TIP3    H157239   1.111   2.368  12.897 -1.4870 -0.2744 -0.6376
11916TIP3    H257240   1.181   2.237  12.925  3.2822  2.1788 -0.7025
11917TIP3   OH257241   4.612   4.979  15.559  0.0655  0.2919 -0.4978
11917TIP3    H157242   4.646   4.993  15.647  0.1787  1.9806 -0.7768
11917TIP3    H257243   4.519   5.002  15.566 -0.2316 -0.8836 -0.5196
11918TIP3   OH257244   0.163   6.385   3.308 -0.4843  0.0328  0.0734
11918TIP3    H157245   0.237   6.430   3.268  0.5879 -0.5558  1.3901
11918TIP3    H257246   0.129   6.329   3.238  1.6363 -1.2993  0.0755
11919TIP3   OH257247   3.627   6.293  10.867  0.2768 -0.1227  0.1412
11919TIP3    H157248   3.579   6.216  10.899  1.7411  0.0427  2.8534
11919TIP3    H257249   3.700   6.256  10.818  0.9857 -0.5001  1.4521
11920TIP3   OH257250   1.443   1.500   2.578  0.6564  0.0678  0.3698
11920TIP3    H157251   1.505   1.555   2.625  0.5332  0.1283  0.4594
11920TIP3    H257252   1.499   1.446   2.522  0.7338  0.7457 -0.2095
11921TIP3   OH257253   4.933   4.508   4.990  0.0183 -0.1317  0.3063
11921TIP3    H157254   4.853   4.502   5.041 -1.2957 -0.4297 -1.7369
11921TIP3    H257255   4.914   4.574   4.923  0.9342 -1.2961 -1.1261
11922TIP3   OH257256   6.609   3.308   1.206  0.1253  0.2073  0.0944
11922TIP3    H157257   6.580   3.347   1.288  0.2435  1.6917 -0.5427
11922TIP3    H257258   6.530   3.270   1.168 -0.0428  0.0317  0.6163
11923TIP3   OH257259   4.319   3.500   4.589  0.1016  0.1549 -0.4001
11923TIP3    H157260   4.293   3.443   4.517 -0.5004  0.5581 -0.4995
11923TIP3    H257261   4.355   3.577   4.546  0.9301 -0.1498 -0.2655
11924TIP3   OH257262   0.569   3.569   3.162 -0.1932  0.4063  0.3924
11924TIP3    H157263   0.632   3.544   3.094 -0.0284 -0.9128  1.0250
11924TIP3    H257264   0.606   3.533   3.242  0.0642  2.7000  1.3356
11925TIP3   OH257265   3.907   1.435  15.549  0.3442 -0.1234  0.1879
11925TIP3    H157266   3.888   1.384  15.471  0.7628  0.1659 -0.1023
11925TIP3    H257267   3.828   1.488  15.563  0.2923 -0.1342 -0.0672
11926TIP3   OH257268   4.326   0.818   1.812 -0.4742 -0.2170  0.1891
11926TIP3    H157269   4.300   0.730   1.837  1.5466 -1.5298 -2.0734
11926TIP3    H257270   4.419   0.823   1.833 -0.4622  1.2196 -0.1238
11927TIP3   OH257271   4.537   1.519   5.298 -0.5858  0.3900 -0.3860
11927TIP3    H157272   4.470   1.518   5.230  0.4722 -2.4335 -1.4574
11927TIP3    H257273   4.611   1.471   5.260  0.3791 -0.4545  2.4003
11928TIP3   OH257274   2.004   3.017  14.311  0.0814 -0.5802 -0.2781
11928TIP3    H157275   2.043   2.962  14.242  1.6232 -1.9940  1.6628
11928TIP3    H257276   2.079   3.045  14.364 -1.1807 -0.4282  1.4666
11929TIP3   OH257277   5.429   1.060  11.531 -0.2505  0.2982 -0.3930
11929TIP3    H157278   5.340   1.077  11.560  0.0021 -0.6141  0.9468
11929TIP3    H257279   5.431   1.090  11.439 -1.8167  0.6281 -0.3251
11930TIP3   OH257280   0.241   5.249   1.605  0.5276 -0.2030 -0.5014
11930TIP3    H157281   0.214   5.229   1.695 -1.3741  0.8283 -0.8116
11930TIP3    H257282   0.332   5.277   1.613 -0.2837  2.0112  1.4179
11931TIP3   OH257283   2.754   5.643   1.343 -0.4413  0.2475  0.6367
11931TIP3    H157284   2.732   5.626   1.435 -0.9850  1.7203  0.7976
11931TIP3    H257285   2.743   5.738   1.334  0.1707  0.1786 -0.8045
11932TIP3   OH257286   2.393   3.236  11.472  0.5633  0.4594  0.1530
11932TIP3    H157287   2.454   3.180  11.425 -1.5652  0.0176 -2.1523
11932TIP3    H257288   2.340   3.277  11.404 -2.0845  0.4037  2.0988
11933TIP3   OH257289   5.529   5.524   1.831  0.9827 -0.5019  0.7403
11933TIP3    H157290   5.453   5.509   1.887  1.0300  0.5779  1.0983
11933TIP3    H257291   5.596   5.558   1.891  1.3233 -0.1988  0.1870
11934TIP3   OH257292   2.080   5.414  16.267 -0.1075 -0.2766 -0.2680
11934TIP3    H157293   2.171   5.439  16.277 -0.5953  1.8104 -0.8599
11934TIP3    H257294   2.070   5.396  16.174  0.2282 -2.7555  0.1376
11935TIP3   OH257295   5.739   0.674  16.747  0.0996  0.3218 -0.1279
11935TIP3    H157296   5.777   0.757  16.777  0.4293  0.2440 -0.3365
11935TIP3    H257297   5.810   0.610  16.756 -0.7002 -0.3436  1.8359
11936TIP3   OH257298   5.099   5.922   0.869  0.2039 -0.2390  0.2044
11936TIP3    H157299   5.150   5.877   0.801 -0.0488 -3.2246  1.9089
11936TIP3    H257300   5.119   5.874   0.949 -1.0936  1.9565  1.8805
11937TIP3   OH257301   4.300   2.751   1.669  0.5443  0.2065  0.0622
11937TIP3    H157302   4.386   2.789   1.652 -0.3297  2.3041  0.1686
11937TIP3    H257303   4.243   2.826   1.686 -1.2612 -1.1558  0.2592
11938TIP3   OH257304   4.496   0.795  14.659  0.2805  0.0856 -0.1672
11938TIP3    H157305   4.556   0.815  14.731  0.0192  1.3268 -0.2869
11938TIP3    H257306   4.422   0.751  14.701 -0.5335  2.0728  0.5470
11939TIP3   OH257307   4.061   5.188   3.760 -0.0695 -0.3056  0.0884
11939TIP3    H157308   4.155   5.194   3.739  0.5163 -2.3722  1.8804
11939TIP3    H257309   4.033   5.279   3.772  1.8471  0.3159  0.0869
11940TIP3   OH257310   0.192   0.188   1.671  0.5013  0.2767  0.0374
11940TIP3    H157311   0.187   0.263   1.731 -3.2355  0.0054  0.2299
11940TIP3    H257312   0.197   0.227   1.584  0.6807  0.7391  0.2537
11941TIP3   OH257313   0.771   3.004  15.861 -0.4655  0.5325 -0.3445
11941TIP3    H157314   0.831   2.979  15.790 -0.5296  0.4640 -0.3752
11941TIP3    H257315   0.804   3.087  15.893  0.1719  0.0569  0.2330
11942TIP3   OH257316   1.859   5.344  14.585  0.0926  0.1161  0.1786
11942TIP3    H157317   1.869   5.253  14.612 -1.1568 -0.0890 -0.0242
11942TIP3    H257318   1.949   5.375  14.572  0.4595 -2.0574 -3.0218
11943TIP3   OH257319   4.874   5.938   0.035 -0.5391 -0.9266  0.0982
11943TIP3    H157320   4.884   5.894  -0.049  0.0635 -0.5939 -0.0127
11943TIP3    H257321   4.781   5.957   0.042 -0.2828  1.0685 -1.5466
11944TIP3   OH257322   4.463   3.331   4.876 -0.1225 -0.8377  0.1118
11944TIP3    H157323   4.463   3.427   4.865  0.1554 -1.0123 -1.5514
11944TIP3    H257324   4.439   3.318   4.967  0.3781  0.8494  0.5208
11945TIP3   OH257325   0.139   2.064  14.393 -0.0340 -0.5910  0.9590
11945TIP3    H157326   0.158   2.055  14.300 -0.2008  1.8729  0.6390
11945TIP3    H257327   0.067   2.127  14.397 -0.5586 -1.2603  2.7226
11946TIP3   OH257328   2.430   2.078  16.223 -0.4073 -0.4324  0.6874
11946TIP3    H157329   2.449   1.997  16.174  0.6275 -0.1252  0.5711
11946TIP3    H257330   2.347   2.060  16.266 -0.3811 -1.4224  0.3478
11947TIP3   OH257331   4.177   0.605   5.947  0.4512 -0.1719 -0.5733
11947TIP3    H157332   4.146   0.650   6.025 -1.0155 -3.3423  0.7550
11947TIP3    H257333   4.265   0.574   5.970  0.1596 -0.7988 -0.2929
11948TIP3   OH257334   5.625   3.370  13.218 -0.5641  0.5320 -0.1243
11948TIP3    H157335   5.590   3.459  13.217 -1.2634  0.2839 -3.2361
11948TIP3    H257336   5.547   3.314  13.215 -0.1426 -0.2216  2.2011
11949TIP3   OH257337   2.553   2.403   3.376  0.2950  0.1212  0.5549
11949TIP3    H157338   2.461   2.398   3.351 -0.2218 -0.3273  2.5312
11949TIP3    H257339   2.569   2.325   3.428  1.4453  0.8498  1.3282
11950TIP3   OH257340   6.677   3.229   0.375  0.7770  0.0339  0.3902
11950TIP3    H157341   6.583   3.215   0.381  0.8061 -0.2277  0.2628
11950TIP3    H257342   6.695   3.229   0.281  0.6369  1.9242  0.3484
11951TIP3   OH257343   0.024   3.099   1.497 -0.3379 -0.2878  0.2659
11951TIP3    H157344   0.082   3.033   1.536  0.1356  1.1179  2.0410
11951TIP3    H257345   0.083   3.158   1.450 -0.5349  0.0261  0.4136
11952TIP3   OH257346   0.429   3.201  10.859  1.0374 -0.3958 -0.1250
11952TIP3    H157347   0.344   3.239  10.878  1.4173  0.1322  0.5637
11952TIP3    H257348   0.479   3.272  10.820  0.5063 -1.2807 -2.4496
11953TIP3   OH257349   5.117   6.031  12.398 -0.2796  0.0985  0.0455
11953TIP3    H157350   5.165   6.114  12.406  2.6584 -1.4697 -0.3925
11953TIP3    H257351   5.159   5.973  12.462 -1.3433 -1.4639 -0.6362
11954TIP3   OH257352   6.088   3.023   5.436  0.4471  0.2522 -0.3430
11954TIP3    H157353   6.021   3.039   5.502  0.5999 -0.6241  0.0407
11954TIP3    H257354   6.060   3.072   5.359 -0.1191  0.6788  0.1378
11955TIP3   OH257355   3.131   3.242  15.005 -0.4914 -0.2591 -0.6818
11955TIP3    H157356   3.143   3.162  14.954 -1.6406 -0.9627  0.1357
11955TIP3    H257357   3.049   3.229  15.052 -1.0127  1.6751 -1.0180
11956TIP3   OH257358   4.396   0.926  15.543 -0.3607  0.3610 -0.1602
11956TIP3    H157359   4.371   0.836  15.562 -0.4083  0.2248 -0.8701
11956TIP3    H257360   4.491   0.923  15.533 -0.3217  0.4564  0.1724
11957TIP3   OH257361   2.753   0.822  15.318 -0.5322  0.2300 -0.2414
11957TIP3    H157362   2.788   0.880  15.251  0.6720 -0.3406 -0.1105
11957TIP3    H257363   2.802   0.844  15.398 -1.7246  0.6787  0.3946
11958TIP3   OH257364   1.085   4.863  13.666  0.7715  0.1248 -0.2847
11958TIP3    H157365   1.117   4.857  13.756  0.2815  0.6195 -0.0742
11958TIP3    H257366   1.021   4.933  13.668  1.4522  0.7929 -1.2302
11959TIP3   OH257367   1.600   2.307  13.437 -0.0831 -0.0295  0.4562
11959TIP3    H157368   1.619   2.214  13.445 -0.1277 -0.0486  0.3326
11959TIP3    H257369   1.682   2.350  13.462  0.7742 -0.1496 -2.0281
11960TIP3   OH257370   3.662   1.594  12.446  0.5739  0.3134 -0.0597
11960TIP3    H157371   3.667   1.530  12.517  0.1500 -0.9932 -1.1886
11960TIP3    H257372   3.590   1.563  12.390 -0.3666  2.3810 -0.0414
11961TIP3   OH257373   5.868   3.018  12.644 -0.1100 -0.4597  0.7423
11961TIP3    H157374   5.812   2.985  12.715 -2.2190  0.7041 -0.3396
11961TIP3    H257375   5.856   3.113  12.647  0.0969 -0.3737 -0.9307
11962TIP3   OH257376   6.275   4.902  16.183 -0.4780 -0.1340  0.0545
11962TIP3    H157377   6.369   4.882  16.175 -0.2540  0.6609  0.5533
11962TIP3    H257378   6.237   4.824  16.223  0.0847 -0.2360  0.4057
11963TIP3   OH257379   3.656   4.826   5.405  0.7269 -0.8820  0.8694
11963TIP3    H157380   3.724   4.782   5.354  1.0129 -0.5639  0.9770
11963TIP3    H257381   3.577   4.773   5.391  0.8130 -0.8145  0.1313
11964TIP3   OH257382   6.461   4.308  12.501 -0.0406  0.0560 -0.4225
11964TIP3    H157383   6.549   4.283  12.529  1.3668  1.5564 -3.2360
11964TIP3    H257384   6.404   4.242  12.539  1.9157  0.7114  3.9278
11965TIP3   OH257385   0.412   3.021   2.009 -0.6652 -0.3833  0.1481
11965TIP3    H157386   0.335   3.076   2.001 -0.4848  0.1317  1.7853
11965TIP3    H257387   0.485   3.078   1.986 -0.4629  0.1309  2.0014
11966TIP3   OH257388   6.241   5.985  11.394 -0.3804 -0.0666 -0.0461
11966TIP3    H157389   6.288   6.035  11.460  0.5567 -3.1350  1.7402
11966TIP3    H257390   6.151   6.018  11.397 -0.0711  0.6000  1.9939
11967TIP3   OH257391   4.539   2.240  11.300 -0.0034  0.3733  0.6415
11967TIP3    H157392   4.477   2.219  11.370  2.4076  0.5564  2.9128
11967TIP3    H257393   4.534   2.164  11.241 -3.3961  1.0338 -0.0328
11968TIP3   OH257394   1.009   0.024   4.170 -0.2246  0.0933 -0.5138
11968TIP3    H157395   0.927   0.047   4.127 -0.4772 -0.0930 -0.1243
11968TIP3    H257396   1.000  -0.069   4.192 -1.3093  0.9047  2.6852
11969TIP3   OH257397   2.932   0.128  13.654  0.4639 -0.2532 -0.0297
11969TIP3    H157398   2.939   0.223  13.659  0.4805 -0.1991 -0.9091
11969TIP3    H257399   2.894   0.101  13.737  0.3110  0.5377  0.1523
11970TIP3   OH257400   1.788   6.404   3.355 -0.1061  0.1763 -0.2056
11970TIP3    H157401   1.799   6.349   3.277 -1.1041 -1.9096  1.1020
11970TIP3    H257402   1.736   6.479   3.323 -1.8310 -1.4135 -1.2389
11971TIP3   OH257403   2.109   1.928   2.202  0.2931 -0.0391 -0.1134
11971TIP3    H157404   2.153   2.011   2.182  2.2657 -1.2176 -0.8818
11971TIP3    H257405   2.069   1.902   2.119  1.4481 -0.8510 -0.4346
11972TIP3   OH257406   2.474   1.237  16.844 -0.1274 -0.6801  1.0685
11972TIP3    H157407   2.522   1.269  16.920 -0.9651  0.3402  1.1670
11972TIP3    H257408   2.456   1.145  16.865 -0.2414 -0.4433  2.0437
11973TIP3   OH257409   1.849   2.959   2.039  0.5887  0.6812  0.6279
11973TIP3    H157410   1.849   3.010   1.958  0.4661  2.8059  1.9362
11973TIP3    H257411   1.906   3.008   2.098  1.7008 -1.5124  1.4413
11974TIP3   OH257412   5.754   1.523   1.370  0.0710  0.1271 -0.0300
11974TIP3    H157413   5.741   1.538   1.464  1.0597  0.1334  0.1081
11974TIP3    H257414   5.770   1.429   1.363 -4.6571 -0.7611 -0.7328
11975TIP3   OH257415   2.180   4.286   4.016  0.0888  0.6725  0.3533
11975TIP3    H157416   2.112   4.241   3.966 -0.2178  0.0855  1.2887
11975TIP3    H257417   2.259   4.235   4.001  0.1169  0.8081  0.0363
11976TIP3   OH257418   6.133   3.395   5.303  0.0034  0.5562 -0.0123
11976TIP3    H157419   6.077   3.318   5.291  1.5330 -0.2735 -2.0475
11976TIP3    H257420   6.098   3.459   5.241 -2.4167  2.2345  2.9456
11977TIP3   OH257421   1.802   5.476   4.784 -0.1125 -0.3821  0.3566
11977TIP3    H157422   1.752   5.556   4.800  1.0681  0.3077  0.6780
11977TIP3    H257423   1.737   5.406   4.788 -1.1520  0.5428  0.1545
11978TIP3   OH257424   6.502   6.652  12.419  0.0934  0.0137 -0.1030
11978TIP3    H157425   6.513   6.684  12.509  1.5733  1.0598 -0.6341
11978TIP3    H257426   6.501   6.732  12.366  0.8149 -0.6870 -1.1751
11979TIP3   OH257427   5.124   6.127   4.229 -0.2340  0.5989  0.9402
11979TIP3    H157428   5.183   6.085   4.167  0.7676  0.4845  1.9721
11979TIP3    H257429   5.044   6.075   4.225 -0.8421  1.6777 -1.6091
11980TIP3   OH257430   5.297   4.313  12.238 -0.2376  0.1527  0.5339
11980TIP3    H157431   5.267   4.269  12.317  3.2852 -3.0931  0.2073
11980TIP3    H257432   5.245   4.274  12.168 -0.9198  0.4774  0.8554
11981TIP3   OH257433   3.844   4.863   4.264 -1.0057 -0.5153 -0.3756
11981TIP3    H157434   3.913   4.800   4.287  0.0513  0.1382 -1.7136
11981TIP3    H257435   3.891   4.935   4.221 -2.5321 -0.0360 -1.2426
11982TIP3   OH257436   1.840   0.572   2.275 -0.2911 -0.6917  0.6586
11982TIP3    H157437   1.923   0.538   2.308 -0.2570  0.4075  1.7446
11982TIP3    H257438   1.807   0.629   2.346 -0.9780  0.4776 -0.5706
11983TIP3   OH257439   5.643   4.283  12.832  0.5899 -0.4134  0.1363
11983TIP3    H157440   5.558   4.308  12.870  1.5092  0.4011  1.7375
11983TIP3    H257441   5.641   4.187  12.831  0.7325 -0.4988  2.8463
11984TIP3   OH257442   2.474   0.246   3.197  0.3418 -0.0502  0.1141
11984TIP3    H157443   2.403   0.267   3.137  1.9621  1.3393 -1.3904
11984TIP3    H257444   2.443   0.170   3.246 -2.1776  0.5798 -0.4530
11985TIP3   OH257445   1.146   5.452  12.591 -0.5300 -0.3499 -0.0106
11985TIP3    H157446   1.051   5.468  12.594 -0.3581  0.6630  0.1453
11985TIP3    H257447   1.155   5.372  12.539 -1.2536  1.5930 -3.2422
11986TIP3   OH257448   2.170   2.437  17.280 -0.4564  0.3451  0.3187
11986TIP3    H157449   2.156   2.530  17.262 -0.3271  0.4414  0.7261
11986TIP3    H257450   2.085   2.406  17.312  0.0443  0.7598  2.0635
11987TIP3   OH257451   6.105   0.088  13.025 -0.5740  0.3597 -0.3822
11987TIP3    H157452   6.197   0.086  12.996 -0.2925  0.3203  0.5091
11987TIP3    H257453   6.073   0.174  12.996  0.1966  1.0097  0.6423
11988TIP3   OH257454   6.525   2.807   4.753  0.0869 -0.1486 -0.2647
11988TIP3    H157455   6.597   2.861   4.720 -0.5234  0.5920 -0.4127
11988TIP3    H257456   6.450   2.867   4.756 -0.4267 -0.8100  0.2561
11989TIP3   OH257457   3.982   3.644   3.510 -0.2079  0.3119 -0.8001
11989TIP3    H157458   3.931   3.720   3.538  0.4047  0.1397  0.9022
11989TIP3    H257459   3.973   3.641   3.415  0.9217  3.3533 -1.0457
11990TIP3   OH257460   3.222   5.777  11.203  0.5172 -0.3785  0.2639
11990TIP3    H157461   3.264   5.783  11.288  0.0071  1.6126  0.4131
11990TIP3    H257462   3.129   5.790  11.222  0.2702 -1.0646 -0.4656
11991TIP3   OH257463   4.456   1.294  16.109  0.0660  0.1314 -0.0062
11991TIP3    H157464   4.448   1.314  16.202  0.2959 -0.3312  0.1165
11991TIP3    H257465   4.483   1.202  16.106  0.2482  0.1977 -0.5201
11992TIP3   OH257466   4.234   5.406  14.669  0.3127 -0.5087 -0.1908
11992TIP3    H157467   4.240   5.465  14.593 -0.0879 -1.2972 -0.8389
11992TIP3    H257468   4.273   5.324  14.638  0.6070 -0.6762  0.6243
11993TIP3   OH257469   0.451   6.637   4.196 -0.0036  0.1443  0.0824
11993TIP3    H157470   0.543   6.656   4.217  0.1557 -0.5745  0.0541
11993TIP3    H257471   0.449   6.636   4.100 -0.4478  2.0662  0.0472
11994TIP3   OH257472   0.746   2.884  11.538 -0.0073 -0.3049 -0.3260
11994TIP3    H157473   0.748   2.830  11.617 -2.0681 -0.2837 -0.2231
11994TIP3    H257474   0.737   2.821  11.467  0.9989 -0.2743 -0.4900
11995TIP3   OH257475   4.189   0.156  11.610 -0.0918  0.2524  1.0003
11995TIP3    H157476   4.113   0.102  11.586  0.3312 -0.4498  1.2238
11995TIP3    H257477   4.192   0.224  11.543 -0.7003  0.0669  0.7806
11996TIP3   OH257478   2.157   0.091  13.661 -0.4785 -0.3261  0.3413
11996TIP3    H157479   2.117   0.174  13.634 -1.0853 -0.7243  0.0136
11996TIP3    H257480   2.190   0.053  13.580 -0.8193 -0.7350  0.3946
11997TIP3   OH257481   6.051   1.130   5.138  0.4776 -0.6351  0.1031
11997TIP3    H157482   6.020   1.171   5.220  0.1280 -1.3698  0.3384
11997TIP3    H257483   6.012   1.184   5.069  0.9738  0.1362  0.4212
11998TIP3   OH257484   6.491   1.824   5.532  0.2276 -0.2229 -0.2109
11998TIP3    H157485   6.531   1.749   5.575 -3.6357 -2.1877  0.2389
11998TIP3    H257486   6.535   1.831   5.448  0.7407 -2.9396 -0.1812
11999TIP3   OH257487   4.529   3.293   3.796  0.2826 -0.5873 -0.2389
11999TIP3    H157488   4.441   3.306   3.761 -0.6084 -1.6295  1.5503
11999TIP3    H257489   4.544   3.199   3.789  0.1023 -0.8254  2.0272
12000TIP3   OH257490   6.389   6.202  16.523  0.2107  0.3485 -0.0644
12000TIP3    H157491   6.383   6.123  16.469 -1.0405 -0.7155  1.5675
12000TIP3    H257492   6.480   6.202  16.554  0.0835 -0.7829  0.3608
12001TIP3   OH257493   0.354   2.059   2.828  0.5256 -0.2329 -0.2459
12001TIP3    H157494   0.403   1.982   2.856  0.6368  0.3678  1.2722
12001TIP3    H257495   0.405   2.133   2.861 -0.7085  0.4368  0.2072
12002TIP3   OH257496   6.265   3.721   4.049 -0.5080 -0.5016 -0.3893
12002TIP3    H157497   6.254   3.714   4.144 -1.0290  1.0287 -0.3267
12002TIP3    H257498   6.178   3.704   4.014 -0.2555 -1.3498 -0.6250
12003TIP3   OH257499   4.649   2.363   1.886  0.2780 -0.3830  0.3986
12003TIP3    H157500   4.620   2.452   1.864 -0.5955 -0.4151  1.3744
12003TIP3    H257501   4.677   2.369   1.977  0.6910 -1.0043  0.3151
12004TIP3   OH257502   0.049   0.562  17.165 -0.3377 -0.2122 -0.6446
12004TIP3    H157503  -0.046   0.565  17.148 -0.5597  0.5762  0.6553
12004TIP3    H257504   0.088   0.546  17.079 -1.5729  1.0060 -1.4619
12005TIP3   OH257505   4.551   5.253   3.086  0.1386 -1.2832  0.0865
12005TIP3    H157506   4.521   5.321   3.025  0.4052 -0.7280  0.5758
12005TIP3    H257507   4.470   5.213   3.119 -0.0709 -0.0074  1.1536
12006TIP3   OH257508   1.481   3.422  11.769  0.3926  0.4458  0.3726
12006TIP3    H157509   1.446   3.337  11.794  0.1257 -0.3575 -2.5873
12006TIP3    H257510   1.450   3.481  11.838  0.3200 -1.7589  2.2963
12007TIP3   OH257511   0.147   1.497  15.651  0.2594  0.3219  0.5550
12007TIP3    H157512   0.085   1.425  15.659  1.0311 -0.5287 -0.8854
12007TIP3    H257513   0.096   1.575  15.672 -1.4025 -0.3262 -0.9689
12008TIP3   OH257514   4.268   0.658   1.118  0.4782 -0.4984  0.2798
12008TIP3    H157515   4.345   0.603   1.134  0.4821 -0.7473 -0.5517
12008TIP3    H257516   4.237   0.630   1.031 -0.6631 -0.5451  0.6942
12009TIP3   OH257517   5.155   3.021  11.029  0.4673  0.1990 -0.1085
12009TIP3    H157518   5.082   2.960  11.044  1.3518 -0.8720 -0.0916
12009TIP3    H257519   5.177   3.055  11.115  0.8941 -0.5432  0.0808
12010TIP3   OH257520   4.620   5.856   1.190  0.1942  0.2432  0.0589
12010TIP3    H157521   4.640   5.884   1.101 -2.6085 -0.6292 -0.9012
12010TIP3    H257522   4.597   5.937   1.235 -3.0097  0.2039 -1.3581
12011TIP3   OH257523   0.479   4.919  12.183  0.0783  0.2283 -0.2007
12011TIP3    H157524   0.559   4.906  12.132  0.2204 -0.9462  0.3100
12011TIP3    H257525   0.435   4.834  12.181 -0.7202  0.6263  0.2640
12012TIP3   OH257526   0.070   5.311   3.196  0.5610  0.0391 -0.1571
12012TIP3    H157527  -0.008   5.327   3.143  1.1396 -0.2992 -1.1124
12012TIP3    H257528   0.089   5.395   3.237 -0.9534 -0.1457  0.9614
12013TIP3   OH257529   1.684   3.635  16.407 -0.0695 -0.1187 -0.2518
12013TIP3    H157530   1.775   3.623  16.380  0.3230  1.7562  0.1417
12013TIP3    H257531   1.674   3.580  16.484  1.1600  0.7590  0.5486
12014TIP3   OH257532   0.700   3.355  15.471 -0.1410  0.1513  0.0095
12014TIP3    H157533   0.644   3.350  15.548 -0.3536  1.7357 -0.0307
12014TIP3    H257534   0.640   3.344  15.397 -0.2744  0.9382 -0.0031
12015TIP3   OH257535   3.052   5.811  12.872 -0.0238  0.7096  0.3239
12015TIP3    H157536   3.011   5.851  12.948 -0.8126  1.0097 -0.2624
12015TIP3    H257537   3.004   5.845  12.797 -0.1741 -0.6889 -0.2327
12016TIP3   OH257538   4.134   4.825   4.278 -0.3075 -0.2210  0.4840
12016TIP3    H157539   4.155   4.740   4.240  0.6926 -0.0090  0.5537
12016TIP3    H257540   4.150   4.814   4.372 -3.2987 -0.9126  0.9875
12017TIP3   OH257541   3.077   3.145  13.581 -0.3881 -0.1116  0.0956
12017TIP3    H157542   3.096   3.204  13.654 -1.2816 -0.2743  0.4667
12017TIP3    H257543   3.162   3.131  13.539 -0.2656  1.9713 -0.4113
12018TIP3   OH257544   6.718   6.182  13.450 -0.1874  0.7229  0.2914
12018TIP3    H157545   6.703   6.226  13.534 -0.3785  0.8880  0.1722
12018TIP3    H257546   6.719   6.253  13.386 -0.8280  0.5247  0.0579
12019TIP3   OH257547   2.885   0.207   3.664 -0.4240 -0.3711 -0.1689
12019TIP3    H157548   2.815   0.161   3.619 -1.4301  0.5535  0.4275
12019TIP3    H257549   2.922   0.143   3.724  0.2182 -1.2911 -1.5064
12020TIP3   OH257550   1.063   4.863   0.203  0.4901  0.6437  0.0270
12020TIP3    H157551   1.095   4.801   0.269  1.9117  2.1853  0.8299
12020TIP3    H257552   0.968   4.846   0.198  0.6533 -0.7061  1.1550
12021TIP3   OH257553   6.025   1.746  12.244 -0.1849 -0.0045 -0.5332
12021TIP3    H157554   5.998   1.835  12.267  0.9052  0.0489  0.5835
12021TIP3    H257555   5.973   1.725  12.166  0.0458  1.8681 -1.2322
12022TIP3   OH257556   3.375   0.067  13.682  0.3673 -0.2229 -0.0631
12022TIP3    H157557   3.453   0.092  13.732  0.1380 -1.2619  0.8382
12022TIP3    H257558   3.310   0.045  13.748 -0.4415 -0.1252 -0.8160
12023TIP3   OH257559   2.033   5.091   2.365  0.3238  0.1805 -0.2781
12023TIP3    H157560   2.040   5.167   2.422 -1.8342  1.1711 -1.2930
12023TIP3    H257561   1.986   5.026   2.417 -0.7617  0.7274 -0.5705
12024TIP3   OH257562   1.892   2.056   5.014  0.5875  1.0378  0.6816
12024TIP3    H157563   1.808   2.089   5.044 -0.1280 -1.3542  1.3888
12024TIP3    H257564   1.870   1.994   4.944  1.7140 -0.1714  1.3829
12025TIP3   OH257565   2.781   3.346   1.728 -0.1599  0.0734  0.1368
12025TIP3    H157566   2.740   3.394   1.656  0.4738  0.5383  0.0760
12025TIP3    H257567   2.738   3.261   1.729 -0.4308  0.2023 -0.5518
12026TIP3   OH257568   1.170   0.558  12.245  0.0221 -0.0771 -0.1043
12026TIP3    H157569   1.164   0.466  12.223 -0.8172  0.2937 -1.4338
12026TIP3    H257570   1.125   0.604  12.174  1.4536  1.4312 -0.0768
12027TIP3   OH257571   0.251   2.691   4.669 -0.1458  0.4906  0.4141
12027TIP3    H157572   0.212   2.654   4.589 -2.5565  0.3229  1.5989
12027TIP3    H257573   0.317   2.753   4.638  1.8421 -2.5440 -1.6482
12028TIP3   OH257574   5.600   3.068  10.216  0.3236  0.0950  0.2945
12028TIP3    H157575   5.643   3.069  10.301  0.8744 -0.6245  0.0248
12028TIP3    H257576   5.592   2.976  10.194 -0.4623  0.2528 -0.1152
12029TIP3   OH257577   3.266   6.090  16.559  0.3914  0.8894 -0.3815
12029TIP3    H157578   3.257   6.003  16.596 -1.3549  0.9398 -0.6530
12029TIP3    H257579   3.292   6.075  16.468 -2.0682  0.5701 -1.0599
12030TIP3   OH257580   1.804   3.334  16.564 -0.3998 -0.1581  0.2369
12030TIP3    H157581   1.737   3.398  16.588 -0.0061  0.7026 -0.8678
12030TIP3    H257582   1.858   3.380  16.499  1.8084 -0.4875  1.7750
12031TIP3   OH257583   5.274   6.201  17.070 -0.4543 -0.3773 -0.3392
12031TIP3    H157584   5.268   6.276  17.129  1.3525  0.2141 -0.8756
12031TIP3    H257585   5.303   6.129  17.127 -2.2344 -0.7106  0.1866
12032TIP3   OH257586   2.395   4.579  13.944 -0.4227 -0.6332  0.0878
12032TIP3    H157587   2.356   4.635  13.877 -0.4435  0.7526  1.2330
12032TIP3    H257588   2.476   4.547  13.905 -0.5353  0.0072 -0.6786
12033TIP3   OH257589   6.144   3.763  13.907 -0.0714 -0.2362 -0.7536
12033TIP3    H157590   6.175   3.841  13.954 -0.9508  0.3924 -1.1964
12033TIP3    H257591   6.207   3.695  13.930  1.2523  0.8448 -1.0951
12034TIP3   OH257592   0.588   5.080   6.650  0.1304 -0.2873  0.1522
12034TIP3    H157593   0.548   5.147   6.596 -0.9450 -0.2563  0.9648
12034TIP3    H257594   0.650   5.127   6.706  0.7187 -0.2249 -0.5463
12035TIP3   OH257595   4.801   3.067   3.322  0.6930  0.0862  0.0963
12035TIP3    H157596   4.888   3.028   3.330  1.9316  2.7931  0.5327
12035TIP3    H257597   4.808   3.124   3.245 -0.3570  1.1165  0.7494
12036TIP3   OH257598   4.901   4.798   1.672  0.3014  0.6891  0.2226
12036TIP3    H157599   4.806   4.788   1.663  0.5438 -1.3799 -0.1563
12036TIP3    H257600   4.915   4.893   1.667 -1.7918  1.0673  0.8478
12037TIP3   OH257601   2.544   4.076  14.422  0.4883 -0.0394 -0.1288
12037TIP3    H157602   2.600   4.152  14.405  0.9740 -0.2430  0.5603
12037TIP3    H257603   2.571   4.011  14.358  1.4185 -0.3339  0.5546
12038TIP3   OH257604   2.089   5.407   0.496  0.1379 -0.4942 -0.8112
12038TIP3    H157605   2.166   5.397   0.440  2.1167  0.2340  1.7218
12038TIP3    H257606   2.089   5.328   0.551  0.1394  0.3504  0.4303
12039TIP3   OH257607   5.790   0.157  12.979  0.3812 -0.3195 -0.1266
12039TIP3    H157608   5.781   0.094  13.050 -0.2102 -1.0063 -0.8074
12039TIP3    H257609   5.823   0.106  12.905  2.2153  0.6228 -0.0022
12040TIP3   OH257610   1.144   1.756  14.347  0.3988  0.6352  0.4112
12040TIP3    H157611   1.123   1.765  14.440  1.9545 -1.4511  1.0012
12040TIP3    H257612   1.163   1.663  14.335  2.3345  1.2313 -1.5181
12041TIP3   OH257613   2.876   3.029   5.767  0.3138 -0.0859  0.0934
12041TIP3    H157614   2.932   2.973   5.713 -0.5826 -0.9472  0.0497
12041TIP3    H257615   2.896   3.002   5.857 -0.3197 -0.6707  0.0599
12042TIP3   OH257616   0.507   2.681   1.118 -0.6717  0.2653  0.2396
12042TIP3    H157617   0.456   2.675   1.199 -0.0968  1.0389  0.6655
12042TIP3    H257618   0.589   2.637   1.137  0.0014  1.5994  0.5253
12043TIP3   OH257619   0.441   4.977  13.298 -0.8103  0.0887  0.1565
12043TIP3    H157620   0.491   5.001  13.376  1.4898  0.8234 -1.5006
12043TIP3    H257621   0.372   4.919  13.331 -0.3639  0.9891  2.8275
12044TIP3   OH257622   6.814   1.774  16.023  0.1540 -0.0758 -0.4246
12044TIP3    H157623   6.739   1.808  16.072  0.1482  1.2206 -1.3044
12044TIP3    H257624   6.869   1.732  16.090 -0.9565 -0.3369  0.3441
12045TIP3   OH257625   6.427   3.804   0.077 -0.2075  0.0429 -0.3787
12045TIP3    H157626   6.396   3.831   0.163  0.2469  0.2135 -0.2667
12045TIP3    H257627   6.487   3.873   0.050  0.9749 -0.8341 -0.0807
12046TIP3   OH257628   6.607   0.962  12.883  0.0619  0.6950  0.2312
12046TIP3    H157629   6.527   0.912  12.890 -0.9575  2.2445 -0.0302
12046TIP3    H257630   6.604   1.023  12.957  0.6397  1.2509 -0.1918
12047TIP3   OH257631   4.513   2.736   0.402  0.6174  0.5224  0.0467
12047TIP3    H157632   4.454   2.664   0.425  0.9397 -0.3390 -1.6719
12047TIP3    H257633   4.481   2.811   0.451 -1.6534 -0.0533 -0.5075
12048TIP3   OH257634   6.733   4.998  16.807 -0.1342 -0.3444  0.1110
12048TIP3    H157635   6.739   5.028  16.717 -0.1635 -0.6860 -0.0082
12048TIP3    H257636   6.657   5.043  16.844 -0.2762 -0.4074 -0.1120
12049TIP3   OH257637   6.372   5.961  16.985 -0.3015  0.5291  0.2989
12049TIP3    H157638   6.341   6.046  16.953 -0.7205 -0.4597 -1.9206
12049TIP3    H257639   6.372   5.904  16.909  2.2561 -0.8557  1.2536
12050TIP3   OH257640   5.759   4.970   1.415 -0.1924  0.0129 -0.1512
12050TIP3    H157641   5.824   4.922   1.362 -0.3488  0.3584 -0.6595
12050TIP3    H257642   5.795   4.969   1.503 -0.2532 -1.1574 -0.1341
12051TIP3   OH257643   3.496   3.434  11.873 -0.3559 -0.2901  0.1586
12051TIP3    H157644   3.483   3.381  11.951  0.1295 -1.0706 -0.2883
12051TIP3    H257645   3.530   3.373  11.808 -2.2847  0.0400 -1.1623
12052TIP3   OH257646   3.185   6.718  12.603  0.0299  0.3182 -0.3899
12052TIP3    H157647   3.159   6.801  12.642 -0.8078  1.1978 -2.7102
12052TIP3    H257648   3.181   6.734  12.508  1.7265 -1.7913 -0.8549
12053TIP3   OH257649   0.450   2.281   3.161  0.3542  0.5048 -0.2212
12053TIP3    H157650   0.473   2.203   3.111  1.1346  0.3088  0.4226
12053TIP3    H257651   0.530   2.304   3.209 -0.0841  1.2584  0.1782
12054TIP3   OH257652   4.475   3.963   2.604  0.3264  0.7413  0.0290
12054TIP3    H157653   4.525   3.905   2.547  0.8856  0.0588  1.1743
12054TIP3    H257654   4.399   3.911   2.631  1.9159 -0.2880  2.7505
12055TIP3   OH257655   4.486   6.193  16.476 -0.2580 -0.1919 -0.3105
12055TIP3    H157656   4.446   6.130  16.416  1.5460  0.4338 -2.2569
12055TIP3    H257657   4.562   6.226  16.428 -0.3507  2.4089  1.2056
12056TIP3   OH257658   5.947   1.921  14.433 -0.1429  0.4977 -0.3473
12056TIP3    H157659   5.882   1.851  14.436 -0.2307  0.5857 -0.1426
12056TIP3    H257660   6.031   1.876  14.433 -0.1944  0.3984  0.0537
12057TIP3   OH257661   3.995   3.026   0.468 -0.2095  0.0444 -0.0291
12057TIP3    H157662   3.956   2.942   0.445  1.7275 -0.1333 -2.9656
12057TIP3    H257663   3.993   3.077   0.387  0.9967  1.8758  1.0436
12058TIP3   OH257664   0.653   0.890   4.575  0.3816  0.2192  0.5391
12058TIP3    H157665   0.712   0.912   4.503 -0.4084  2.5047  0.5324
12058TIP3    H257666   0.703   0.830   4.630  1.2029 -1.1229 -1.6019
12059TIP3   OH257667   5.437   1.061   6.708  0.2304  0.8647  0.2769
12059TIP3    H157668   5.370   1.113   6.753  1.0348  1.7382  0.4753
12059TIP3    H257669   5.506   1.124   6.687  0.8933  0.0117 -0.1314
12060TIP3   OH257670   1.897   1.127  13.611 -0.1746 -0.1603  0.1691
12060TIP3    H157671   1.930   1.056  13.555 -0.6988 -1.4324  1.4369
12060TIP3    H257672   1.948   1.119  13.691  0.4930  1.5889 -0.0561
12061TIP3   OH257673   1.215   0.447   4.423  0.8091  0.1493  0.2149
12061TIP3    H157674   1.210   0.381   4.492 -1.2842 -1.2596 -1.2348
12061TIP3    H257675   1.180   0.403   4.346 -0.0538  2.7802 -0.9329
12062TIP3   OH257676   4.151   3.081  14.771 -0.2261 -1.1003  0.9512
12062TIP3    H157677   4.167   3.001  14.721 -0.0368 -0.5935  0.1853
12062TIP3    H257678   4.198   3.069  14.853  1.9241 -0.7315 -0.1911
12063TIP3   OH257679   2.922   1.674   1.914  0.1151 -0.1813  0.1115
12063TIP3    H157680   3.014   1.650   1.906  0.6394  1.9715 -0.7375
12063TIP3    H257681   2.880   1.597   1.953  1.4458 -2.9226 -3.5675
12064TIP3   OH257682   2.673   1.536   1.487  0.5537 -0.0131 -0.0889
12064TIP3    H157683   2.637   1.477   1.553  1.9799 -0.7606  0.0358
12064TIP3    H257684   2.731   1.595   1.535 -0.0552  0.8435 -0.3700
12065TIP3   OH257685   0.580   6.368   3.672  0.2446 -0.1261  0.0124
12065TIP3    H157686   0.609   6.422   3.599  0.6764 -0.1131  0.1950
12065TIP3    H257687   0.586   6.425   3.749  1.7476 -0.7558  0.3797
12066TIP3   OH257688   5.703   1.052  13.313 -0.5116  0.4862  0.2243
12066TIP3    H157689   5.716   1.041  13.408  1.5941  0.0169 -0.0965
12066TIP3    H257690   5.719   0.965  13.277 -1.4176  0.6448 -0.5629
12067TIP3   OH257691   2.940   2.302  15.637 -0.3622 -0.3913 -0.5353
12067TIP3    H157692   2.996   2.368  15.678 -1.2286  0.2303 -0.3225
12067TIP3    H257693   2.974   2.218  15.667  0.0707  0.0061  0.0766
12068TIP3   OH257694   0.285   1.133   5.230 -0.7203  0.2563 -0.0989
12068TIP3    H157695   0.271   1.089   5.313  0.8368 -3.5463 -1.7588
12068TIP3    H257696   0.367   1.181   5.241 -1.2095  0.8785  0.9365
12069TIP3   OH257697   6.700   3.172   0.657  0.2459  0.3929 -0.4142
12069TIP3    H157698   6.682   3.194   0.565 -1.3649 -0.5880 -0.3563
12069TIP3    H257699   6.685   3.078   0.662  0.6354  0.3951  0.7962
12070TIP3   OH257700   0.320   1.170  16.310 -0.2139  0.0198 -0.4657
12070TIP3    H157701   0.301   1.076  16.310 -0.1055 -0.0733  3.2309
12070TIP3    H257702   0.235   1.212  16.298 -0.1222 -0.5055 -3.3107
12071TIP3   OH257703   1.953   4.871  16.385 -0.0497  1.0435  0.1757
12071TIP3    H157704   2.030   4.902  16.432  2.0703 -1.2730 -1.6466
12071TIP3    H257705   1.919   4.799  16.438  1.1514 -0.2562 -0.8137
12072TIP3   OH257706   2.682   4.593   3.716  0.2571  0.8092  0.4724
12072TIP3    H157707   2.627   4.662   3.680 -1.9314  0.1386  2.3816
12072TIP3    H257708   2.674   4.520   3.654 -0.1490  1.0859  0.2007
12073TIP3   OH257709   5.987   0.223  11.325  0.4839 -0.8289  0.2605
12073TIP3    H157710   5.924   0.153  11.342  0.7243 -0.7582  1.4420
12073TIP3    H257711   5.934   0.293  11.286 -0.0415 -1.0392  0.5815
12074TIP3   OH257712   6.425   2.285   6.496  0.1968 -0.1414  1.1137
12074TIP3    H157713   6.492   2.295   6.429  0.7012  1.7525  1.8690
12074TIP3    H257714   6.353   2.340   6.466  0.2808  0.4192  1.9391
12075TIP3   OH257715   4.944   5.814   4.305 -0.1368  0.0837 -0.5596
12075TIP3    H157716   4.900   5.898   4.301  0.4223  0.3143 -3.4701
12075TIP3    H257717   4.911   5.766   4.229  0.4676 -1.8492  0.3540
12076TIP3   OH257718   0.311   2.056  11.807  0.5431  0.4359  0.2016
12076TIP3    H157719   0.278   2.068  11.896 -1.3205 -0.2753 -0.3845
12076TIP3    H257720   0.405   2.072  11.814  0.2769  1.2408  2.1316
12077TIP3   OH257721   5.338   4.240   1.190  0.2517 -1.0637 -0.6430
12077TIP3    H157722   5.262   4.291   1.217  1.2580  0.2994 -0.3593
12077TIP3    H257723   5.378   4.290   1.119  0.7448 -1.8902 -0.9595
12078TIP3   OH257724   4.892   0.691  15.776  0.2683 -0.7120  0.1617
12078TIP3    H157725   4.938   0.752  15.719  0.5385 -1.0080  0.0669
12078TIP3    H257726   4.818   0.742  15.810 -0.0895 -0.6396 -0.7132
12079TIP3   OH257727   5.731   2.838   2.491 -0.4105 -0.4929 -0.4763
12079TIP3    H157728   5.729   2.924   2.450  1.0743 -0.9177 -1.4410
12079TIP3    H257729   5.822   2.811   2.487 -0.4147 -1.0586  2.0573
12080TIP3   OH257730   6.057   5.326  12.276  0.0867  0.1885  0.1553
12080TIP3    H157731   6.077   5.285  12.360 -0.3978  1.6066  0.9734
12080TIP3    H257732   5.983   5.276  12.242 -1.6907  1.4719  2.0028
12081TIP3   OH257733   2.272   4.113  16.850 -0.7454  0.3893 -0.3146
12081TIP3    H157734   2.178   4.128  16.841 -0.5975  1.7239  0.2908
12081TIP3    H257735   2.279   4.045  16.917 -1.2339  0.9075  0.2560
12082TIP3   OH257736   6.132   4.656  12.164 -0.3115 -0.6337 -0.2123
12082TIP3    H157737   6.157   4.737  12.121 -2.3577  0.4223  0.5078
12082TIP3    H257738   6.080   4.608  12.099  0.2130 -1.0038 -0.3616
12083TIP3   OH257739   4.571   3.953   0.690  0.4324 -0.5000 -0.0962
12083TIP3    H157740   4.543   3.999   0.769  0.0585 -1.1802  0.1734
12083TIP3    H257741   4.543   3.863   0.704 -1.3237 -0.2481 -1.8460
12084TIP3   OH257742   2.846   3.570   3.882 -0.6907 -0.0756 -0.2502
12084TIP3    H157743   2.769   3.567   3.826 -2.9679  1.7349  2.6117
12084TIP3    H257744   2.860   3.480   3.910 -0.2349 -0.7912 -2.7264
12085TIP3   OH257745   2.710   4.303  14.392 -0.2787 -0.0108  0.4190
12085TIP3    H157746   2.748   4.351  14.465 -0.6576 -0.8252  1.1656
12085TIP3    H257747   2.661   4.369  14.343  1.8283  0.9935 -0.4012
12086TIP3   OH257748   5.254   2.028  14.096 -0.3884 -0.1734 -0.3185
12086TIP3    H157749   5.337   2.041  14.049  0.3003 -1.8982  0.3588
12086TIP3    H257750   5.264   2.080  14.176 -0.2654  0.2292 -0.5956
12087TIP3   OH257751   2.609   2.367   4.721 -0.7301  0.3401 -0.0649
12087TIP3    H157752   2.545   2.436   4.738 -1.0521  0.3287 -1.1775
12087TIP3    H257753   2.635   2.382   4.630 -0.9596 -1.1492 -0.3781
12088TIP3   OH257754   4.306   3.646  16.640  0.6403 -0.3754 -0.4343
12088TIP3    H157755   4.237   3.636  16.574 -1.4869  2.1062  1.3184
12088TIP3    H257756   4.342   3.557  16.650 -2.3587 -1.7626 -1.3376
12089TIP3   OH257757   0.872   0.358  12.766  0.5059  0.7034  0.1919
12089TIP3    H157758   0.878   0.348  12.861  1.5801  0.4076  0.1023
12089TIP3    H257759   0.792   0.409  12.752  0.7697  1.4302  1.2891
12090TIP3   OH257760   1.210   4.238  13.340  0.7021  0.1714 -0.2460
12090TIP3    H157761   1.137   4.176  13.345  1.4924 -0.9270 -1.6126
12090TIP3    H257762   1.178   4.308  13.283  0.2328  0.3997  0.2959
12091TIP3   OH257763   4.965   6.156   0.937 -0.0592  0.3615 -0.2582
12091TIP3    H157764   4.920   6.097   0.998 -0.3918  0.5987 -0.2725
12091TIP3    H257765   5.021   6.099   0.885 -0.7182 -0.0025 -0.5741
12092TIP3   OH257766   1.854   0.031  13.663  0.1678 -0.4888  0.7163
12092TIP3    H157767   1.912  -0.038  13.631  0.4830  0.2328 -0.2799
12092TIP3    H257768   1.903   0.072  13.734  0.7491 -0.1075  0.1065
12093TIP3   OH257769   0.993   4.553  16.950 -0.6342 -0.0181  0.6297
12093TIP3    H157770   0.993   4.618  16.880 -1.7256 -2.4016 -1.6221
12093TIP3    H257771   1.055   4.486  16.922  0.5013  0.0154  2.9393
12094TIP3   OH257772   2.947   3.672  13.072  0.0705  0.2078 -0.1049
12094TIP3    H157773   3.002   3.602  13.036 -0.5867  0.6565 -2.0565
12094TIP3    H257774   2.974   3.751  13.025  0.9340  1.3539  2.2156
12095TIP3   OH257775   3.883   3.589   1.792 -0.0414 -0.0135 -0.1027
12095TIP3    H157776   3.929   3.660   1.838  0.7694 -1.1491  0.8851
12095TIP3    H257777   3.809   3.632   1.750  1.3746  1.7127 -0.9207
12096TIP3   OH257778   6.714   1.035  13.957  0.3181  0.0484  0.0197
12096TIP3    H157779   6.773   1.023  13.883  1.1601  1.1992  0.4880
12096TIP3    H257780   6.631   0.997  13.928  0.8823 -0.3026 -1.1776
12097TIP3   OH257781   2.594   6.368   5.096 -0.4908 -0.0985 -0.0269
12097TIP3    H157782   2.518   6.382   5.040 -1.4992  0.3622  1.4321
12097TIP3    H257783   2.655   6.438   5.072 -0.7377 -0.1486 -0.8212
12098TIP3   OH257784   0.700   1.519   4.195  0.0625  0.1566 -0.3744
12098TIP3    H157785   0.790   1.549   4.198 -0.1068  0.5910  0.7534
12098TIP3    H257786   0.686   1.476   4.280 -1.0197  0.8134 -0.1997
12099TIP3   OH257787   2.445   4.176  10.615 -0.3497  0.0476  0.4030
12099TIP3    H157788   2.507   4.248  10.606  0.1007 -0.5548 -1.6210
12099TIP3    H257789   2.363   4.210  10.579 -0.9062  0.4867  2.0769
12100TIP3   OH257790   3.078   5.531  15.457 -0.2722  0.2695 -0.6335
12100TIP3    H157791   3.058   5.623  15.468 -0.1791  0.0995  1.1523
12100TIP3    H257792   2.993   5.488  15.448 -0.3424  0.4517 -0.8316
12101TIP3   OH257793   2.930   1.877   1.126 -0.0394 -0.6493 -0.1591
12101TIP3    H157794   2.939   1.819   1.051 -0.0915  1.4066 -1.7806
12101TIP3    H257795   2.838   1.902   1.127  0.2034  0.2686 -0.1406
12102TIP3   OH257796   1.876   1.279  17.282 -0.3395  0.1511 -0.2828
12102TIP3    H157797   1.793   1.291  17.235 -0.3459  2.7492  0.3389
12102TIP3    H257798   1.942   1.316  17.223  0.1529 -0.1928  0.0507
12103TIP3   OH257799   3.073   1.072  12.958  0.6677  0.1720  0.4780
12103TIP3    H157800   3.159   1.078  12.916  1.6141 -1.1470  2.1398
12103TIP3    H257801   3.041   0.985  12.936 -0.7189  1.0347 -0.9752
12104TIP3   OH257802   5.495   0.150   4.022 -0.6788  0.4109 -0.0699
12104TIP3    H157803   5.452   0.185   4.100 -1.6349 -0.2296 -0.2976
12104TIP3    H257804   5.422   0.120   3.967 -0.0633  1.4341 -1.4831
12105TIP3   OH257805   3.775   6.530   0.774 -0.4438  0.1391  0.0122
12105TIP3    H157806   3.707   6.578   0.726 -1.8541 -3.1232 -1.4045
12105TIP3    H257807   3.856   6.546   0.724 -1.1145  0.1488 -1.0774
12106TIP3   OH257808   2.781   2.010  12.346 -0.4109  0.2515 -0.4119
12106TIP3    H157809   2.713   2.075  12.328 -1.1384 -0.6864 -1.0962
12106TIP3    H257810   2.862   2.051  12.318 -0.4310  2.1017  2.0682
12107TIP3   OH257811   1.322   2.063   1.508 -0.5213  0.0220 -0.6185
12107TIP3    H157812   1.382   1.991   1.490 -0.3413  0.0525 -0.1407
12107TIP3    H257813   1.341   2.088   1.598 -2.0236 -0.7231 -0.0784
12108TIP3   OH257814   4.419   2.396   1.271 -0.2227  0.0955 -0.0781
12108TIP3    H157815   4.359   2.451   1.321 -0.1900 -0.7073  0.8608
12108TIP3    H257816   4.431   2.443   1.188 -1.2256  0.8328  0.1838
12109TIP3   OH257817   2.816   1.125   0.652  0.5521 -0.2896 -0.7271
12109TIP3    H157818   2.778   1.127   0.740  1.7493  3.3955 -0.1946
12109TIP3    H257819   2.892   1.068   0.660  0.3742 -0.3620  0.5049
12110TIP3   OH257820   2.968   3.214  17.072 -0.1385  0.3781 -0.2682
12110TIP3    H157821   3.010   3.171  16.998 -1.6761 -0.3427 -0.7418
12110TIP3    H257822   2.927   3.292  17.035  0.5920  0.9807  0.1607
12111TIP3   OH257823   6.319   1.386  16.861 -0.2181 -0.3667  0.3579
12111TIP3    H157824   6.334   1.292  16.857  2.2431 -0.0463  1.1001
12111TIP3    H257825   6.284   1.401  16.949  2.7896 -0.2269  1.6206
12112TIP3   OH257826   5.979   3.806  14.199 -0.3119  0.2573  0.0359
12112TIP3    H157827   5.930   3.796  14.117 -0.2170 -0.5466  0.0764
12112TIP3    H257828   5.988   3.901  14.210 -0.4364  0.3697 -0.8165
12113TIP3   OH257829   4.990   3.852   3.212  0.7453  0.0026  0.4050
12113TIP3    H157830   4.940   3.909   3.154 -2.1326 -2.0486  0.7717
12113TIP3    H257831   5.026   3.785   3.155  0.6644 -0.1624  0.5477
12114TIP3   OH257832   5.713   4.017   4.813  0.2437  0.1444 -0.3953
12114TIP3    H157833   5.721   3.955   4.885  2.0155  0.2819 -0.4517
12114TIP3    H257834   5.790   4.073   4.820  1.1304 -0.6442 -3.1380
12115TIP3   OH257835   3.892   0.407  12.735  0.7686 -0.1023 -0.1462
12115TIP3    H157836   3.888   0.322  12.692  1.7855 -0.4691  0.4665
12115TIP3    H257837   3.893   0.387  12.828 -3.2462  0.7462  0.1582
12116TIP3   OH257838   3.863   2.848   4.996  0.0092 -0.2161 -0.3697
12116TIP3    H157839   3.895   2.928   4.955 -0.0678  1.0695  2.0352
12116TIP3    H257840   3.942   2.796   5.011  0.3070  0.3786  0.1245
12117TIP3   OH257841   2.456   2.341  13.815 -0.2505  0.1099 -0.4231
12117TIP3    H157842   2.374   2.340  13.864 -0.8861  1.4134 -1.4464
12117TIP3    H257843   2.506   2.413  13.854 -1.9738  3.1311 -3.6052
12118TIP3   OH257844   3.134   2.973  13.328 -0.0401 -0.2366  0.0208
12118TIP3    H157845   3.089   2.960  13.245  1.9236  1.0234 -1.3113
12118TIP3    H257846   3.178   2.890  13.346  0.7508 -0.0553 -1.0116
12119TIP3   OH257847   5.183   4.666  15.871 -0.3056  0.2940 -0.4181
12119TIP3    H157848   5.190   4.573  15.848  1.2989  0.4360 -0.5876
12119TIP3    H257849   5.152   4.665  15.962 -0.5131 -0.4050 -0.4898
12120TIP3   OH257850   4.326   5.352   0.269 -0.6277 -0.5150 -0.3317
12120TIP3    H157851   4.364   5.433   0.234  0.7753 -0.3673  1.4914
12120TIP3    H257852   4.398   5.308   0.313 -2.0770 -1.2821  1.3319
12121TIP3   OH257853   6.372   6.204  15.095 -0.7460 -0.4103  0.2307
12121TIP3    H157854   6.382   6.281  15.038  0.1873 -1.6840 -1.3655
12121TIP3    H257855   6.308   6.232  15.161  0.0764  1.9575  0.0965
12122TIP3   OH257856   5.960   3.813   0.093 -0.2833  0.2193 -0.5499
12122TIP3    H157857   5.870   3.801   0.062 -0.7523  2.5507 -0.1752
12122TIP3    H257858   6.013   3.816   0.013 -0.3044 -2.6637 -0.7193
12123TIP3   OH257859   4.845   2.713  13.986  0.6454  0.2861  0.2436
12123TIP3    H157860   4.818   2.776  14.052  2.0947  0.2548  0.8820
12123TIP3    H257861   4.780   2.643  13.991  0.5593  0.4411  1.4017
12124TIP3   OH257862   1.913   1.577   5.432  0.8696 -0.5133  0.1597
12124TIP3    H157863   1.950   1.491   5.412 -1.5981 -1.7542  0.8312
12124TIP3    H257864   1.880   1.609   5.348  1.4819 -0.3403 -0.0225
12125TIP3   OH257865   4.468   2.843   2.329 -0.1672 -0.6873  0.2000
12125TIP3    H157866   4.373   2.843   2.323 -0.2965 -0.9092  2.0621
12125TIP3    H257867   4.492   2.935   2.316 -0.6841 -0.5109  0.4713
12126TIP3   OH257868   6.483   5.540   1.581 -0.1356 -0.1114  0.0547
12126TIP3    H157869   6.387   5.543   1.572 -0.3848 -0.6100  2.2633
12126TIP3    H257870   6.515   5.571   1.496 -2.2471 -0.0385 -0.7708
12127TIP3   OH257871   2.529   0.520  13.807 -0.1911 -0.4553 -0.2475
12127TIP3    H157872   2.449   0.537  13.857  0.3308  2.8075 -0.4221
12127TIP3    H257873   2.500   0.520  13.715 -0.4648 -2.3528 -0.1824
12128TIP3   OH257874   6.742   6.750   0.088  0.2968  0.2907  0.7606
12128TIP3    H157875   6.741   6.703   0.172 -1.9601 -1.1110  0.0094
12128TIP3    H257876   6.783   6.690   0.027  0.1764  0.5202  0.4520
12129TIP3   OH257877   0.846   3.723  14.223 -0.4342  0.2698  0.7744
12129TIP3    H157878   0.812   3.813  14.226 -0.0776  0.4700 -0.9074
12129TIP3    H257879   0.795   3.681  14.154  0.0839 -0.5389  0.8828
12130TIP3   OH257880   5.009   2.628   3.815  0.4436  0.4885 -0.5751
12130TIP3    H157881   5.065   2.551   3.821 -0.1622  0.0928  0.0880
12130TIP3    H257882   5.063   2.700   3.847  0.2705 -0.0483  0.9626
12131TIP3   OH257883   5.418   1.209  12.190  0.3176  0.2064 -0.2422
12131TIP3    H157884   5.401   1.249  12.275  1.1362 -1.3958  0.7100
12131TIP3    H257885   5.378   1.122  12.196  1.8679 -0.5731 -0.8509
12132TIP3   OH257886   2.685   3.700  14.553  0.2383 -0.4381  0.4701
12132TIP3    H157887   2.765   3.753  14.560 -1.3646  2.2250 -0.9105
12132TIP3    H257888   2.663   3.677  14.643  1.1451  0.9560  1.0539
12133TIP3   OH257889   1.455   0.705  14.524 -0.0632 -0.0831 -0.2899
12133TIP3    H157890   1.387   0.638  14.520 -0.2337 -0.1811  2.6438
12133TIP3    H257891   1.406   0.788  14.521 -0.1968 -0.1468  0.0070
12134TIP3   OH257892   5.212   5.366  13.143  0.1785 -0.4100  0.1420
12134TIP3    H157893   5.249   5.300  13.201  0.7935 -1.3339 -1.2517
12134TIP3    H257894   5.245   5.449  13.175  1.3099 -0.9986  0.5125
12135TIP3   OH257895   0.453   4.229  11.647  0.1931 -0.1763  0.7117
12135TIP3    H157896   0.521   4.277  11.599 -0.8879 -1.2826 -1.9919
12135TIP3    H257897   0.391   4.201  11.580 -4.0765  2.5008  3.2393
12136TIP3   OH257898   1.285   6.678   3.269  0.2862  0.3396  0.4219
12136TIP3    H157899   1.302   6.615   3.199 -0.3721  0.7011 -0.0642
12136TIP3    H257900   1.342   6.650   3.341 -2.0377 -2.4958  1.2419
12137TIP3   OH257901   1.985   0.016   5.487 -0.0388  0.5452 -0.4567
12137TIP3    H157902   1.946   0.070   5.556  1.2880  0.3409  0.4836
12137TIP3    H257903   1.988   0.073   5.411  2.0825  2.0906  0.7412
12138TIP3   OH257904   0.020   4.555  17.026  0.0019 -0.5341 -0.5084
12138TIP3    H157905  -0.005   4.537  17.116  0.5220  0.7672 -0.0948
12138TIP3    H257906   0.017   4.469  16.983 -2.5146 -0.8135  0.1499
12139TIP3   OH257907   3.839   6.151  10.755  0.1556 -0.7621  0.6528
12139TIP3    H157908   3.854   6.089  10.684  0.7489 -1.6232  1.5122
12139TIP3    H257909   3.926   6.185  10.776 -0.1707  0.4077  0.1586
12140TIP3   OH257910   3.594   2.108  10.858 -0.0719 -0.4567 -0.0327
12140TIP3    H157911   3.505   2.074  10.859 -0.0509 -0.5040  0.1873
12140TIP3    H257912   3.649   2.033  10.883  0.0226 -0.4118 -0.1058
12141TIP3   OH257913   4.256   1.942  14.681  0.2661  0.3920  0.4697
12141TIP3    H157914   4.248   1.870  14.743 -0.9686  1.1351  1.2006
12141TIP3    H257915   4.324   1.915  14.620  2.0592  0.0155  2.6173
12142TIP3   OH257916   3.199   3.236  11.067  0.1567 -0.1036 -0.4659
12142TIP3    H157917   3.152   3.173  11.012 -0.1802 -0.3156  0.0691
12142TIP3    H257918   3.131   3.278  11.120  0.4726  0.1749 -0.2760
12143TIP3   OH257919   3.272   6.700  11.511  0.5206  0.7802 -0.1682
12143TIP3    H157920   3.182   6.700  11.479  0.4646  0.9309 -0.0124
12143TIP3    H257921   3.299   6.792  11.508 -0.6573  1.3377  3.4905
12144TIP3   OH257922   0.127   6.304  13.314 -0.1483 -0.1370  0.5724
12144TIP3    H157923   0.218   6.305  13.345  0.8163 -0.0117 -2.0846
12144TIP3    H257924   0.108   6.211  13.301 -0.0400 -0.1110  0.2032
12145TIP3   OH257925   1.158   4.756  14.431 -0.0153 -0.3896 -0.2081
12145TIP3    H157926   1.155   4.725  14.341  0.9633 -0.8680 -0.0737
12145TIP3    H257927   1.130   4.848  14.426  0.1885 -0.3715 -1.0126
12146TIP3   OH257928   3.982   1.434   0.261  0.1527 -0.0465  0.0212
12146TIP3    H157929   4.076   1.424   0.244  0.2792 -0.8955  1.1647
12146TIP3    H257930   3.967   1.528   0.265  1.2945  0.0664  1.6982
12147TIP3   OH257931   0.494   0.430   4.325 -0.5509 -0.7667  0.0023
12147TIP3    H157932   0.560   0.496   4.346 -1.1732 -0.2519  0.3501
12147TIP3    H257933   0.436   0.429   4.400 -0.2418 -2.1066  0.2343
12148TIP3   OH257934   3.958   6.196   1.595 -0.1807 -0.2501  0.4791
12148TIP3    H157935   3.891   6.247   1.549 -0.2208 -0.5864  0.1622
12148TIP3    H257936   4.038   6.248   1.587 -0.0417 -0.5884 -0.5106
12149TIP3   OH257937   0.179   1.427   3.127  0.3611 -0.2871 -0.4923
12149TIP3    H157938   0.199   1.453   3.037  1.4838  0.5719 -0.0079
12149TIP3    H257939   0.226   1.491   3.181  1.3084 -2.0028  0.7292
12150TIP3   OH257940   4.480   1.524  11.765 -1.0126 -0.6405 -0.8192
12150TIP3    H157941   4.413   1.502  11.830  1.2089  1.7703  2.4593
12150TIP3    H257942   4.555   1.468  11.788  0.5277  1.7206  0.1082
12151TIP3   OH257943   3.782   1.522  11.489  0.7685 -0.3925 -0.9179
12151TIP3    H157944   3.715   1.472  11.536 -0.2712 -0.8261 -2.7953
12151TIP3    H257945   3.865   1.492  11.526  0.0198 -1.4180 -0.0426
12152TIP3   OH257946   4.054   4.120   1.860 -0.1356  0.2355 -0.0351
12152TIP3    H157947   3.977   4.136   1.804  0.4202  3.0889 -0.0428
12152TIP3    H257948   4.121   4.090   1.799 -0.8062 -0.8456 -0.2535
12153TIP3   OH257949   0.996   2.330   2.213  0.4213  0.3045  0.3598
12153TIP3    H157950   0.990   2.274   2.291  0.6863  0.1114  0.2457
12153TIP3    H257951   0.938   2.404   2.231 -0.3509 -0.2784  0.2868
12154TIP3   OH257952   6.234   4.558  13.623  0.3872 -0.1364  0.2523
12154TIP3    H157953   6.185   4.636  13.598  1.8898  0.6590 -0.2531
12154TIP3    H257954   6.292   4.588  13.693  0.7205 -0.8815  0.2956
12155TIP3   OH257955   1.000   3.154  14.249  0.8930 -0.5468  0.8430
12155TIP3    H157956   0.976   3.186  14.335  1.7619 -0.9725  1.2486
12155TIP3    H257957   1.072   3.210  14.221  0.0759  0.1125  0.0445
12156TIP3   OH257958   5.465   4.761  16.258  0.0340  0.1668  0.3957
12156TIP3    H157959   5.455   4.739  16.165 -0.7779 -2.4263  1.0482
12156TIP3    H257960   5.481   4.676  16.300  1.2045  1.4254  2.5240
12157TIP3   OH257961   0.206   3.444   6.293 -0.0309 -0.2670 -0.4829
12157TIP3    H157962   0.183   3.436   6.200 -3.1119 -1.8364  0.3282
12157TIP3    H257963   0.160   3.522   6.322  0.5972 -0.0074 -0.1922
12158TIP3   OH257964   6.170   2.025  12.175 -0.1779 -0.3177 -0.1499
12158TIP3    H157965   6.075   2.028  12.191  0.3621  2.1523  2.9068
12158TIP3    H257966   6.204   1.967  12.242  0.6939  0.0908 -0.2380
12159TIP3   OH257967   3.783   2.780  13.146 -0.7603 -0.6393 -0.7142
12159TIP3    H157968   3.835   2.757  13.223 -0.7358 -1.1621 -0.8873
12159TIP3    H257969   3.749   2.697  13.114 -0.2691 -0.4837 -1.6323
12160TIP3   OH257970   4.121   2.764   0.399 -0.2259 -0.5727  0.4093
12160TIP3    H157971   4.127   2.831   0.466 -0.5530  1.2964 -1.3620
12160TIP3    H257972   4.029   2.736   0.401 -0.6139  0.6397 -0.3398
12161TIP3   OH257973   1.476   6.448  10.919  0.3919 -0.3430 -0.5853
12161TIP3    H157974   1.388   6.416  10.942  0.1748 -0.2772 -1.3422
12161TIP3    H257975   1.462   6.535  10.883  0.5147 -1.3084 -3.0483
12162TIP3   OH257976   0.503   5.220  11.600 -0.0939  0.3245 -0.1311
12162TIP3    H157977   0.424   5.173  11.626  0.4301 -1.1742 -1.1843
12162TIP3    H257978   0.564   5.204  11.671 -0.0078 -0.3879 -0.3586
12163TIP3   OH257979   3.530   6.652   1.501  0.1246  0.1978 -0.7782
12163TIP3    H157980   3.601   6.614   1.451 -0.4079 -0.8421 -0.7515
12163TIP3    H257981   3.573   6.691   1.578  0.5354 -1.5855 -0.0815
12164TIP3   OH257982   0.757   2.546   1.256 -0.0606  0.0726 -0.2259
12164TIP3    H157983   0.836   2.524   1.206 -0.0529 -0.2524 -0.0655
12164TIP3    H257984   0.785   2.546   1.347  0.0665  1.2552 -0.2569
12165TIP3   OH257985   0.192   5.144   0.131 -0.3098  0.1215  0.3614
12165TIP3    H157986   0.115   5.103   0.172 -0.1903 -0.6635 -0.1955
12165TIP3    H257987   0.200   5.228   0.176 -1.6690  0.3424  0.2302
12166TIP3   OH257988   4.491   3.437  12.256  0.3385  0.1906 -0.3831
12166TIP3    H157989   4.427   3.469  12.193  0.1473  2.0397  0.7178
12166TIP3    H257990   4.542   3.514  12.280  1.2805 -0.7586  0.7009
12167TIP3   OH257991   3.205   4.133   3.568  0.4750 -0.2684 -0.3005
12167TIP3    H157992   3.157   4.180   3.636  0.2915  2.3342 -2.1418
12167TIP3    H257993   3.281   4.096   3.613 -0.5911 -0.0971  1.6560
12168TIP3   OH257994   0.545   1.345   1.610  0.3309 -0.0778  0.3306
12168TIP3    H157995   0.617   1.371   1.668  0.4892  0.5774 -0.1494
12168TIP3    H257996   0.466   1.377   1.654  0.3413 -0.6658  0.7843
12169TIP3   OH257997   1.235   1.504  14.255 -0.7031  0.0806 -0.3565
12169TIP3    H157998   1.176   1.428  14.252 -1.2792  0.4358  1.2175
12169TIP3    H257999   1.196   1.567  14.195 -0.1703 -0.8947 -1.7527
12170TIP3   OH258000   5.659   2.512   2.267  0.1721  0.6299 -0.1078
12170TIP3    H158001   5.610   2.440   2.228  0.7486 -0.1178  0.5245
12170TIP3    H258002   5.749   2.480   2.272  0.8577  2.1780 -1.7467
12171TIP3   OH258003   1.081   2.651   3.969 -0.0155  0.8088 -0.2923
12171TIP3    H158004   1.135   2.638   4.047  0.9921  1.2824 -0.8840
12171TIP3    H258005   1.096   2.573   3.916 -0.3950  0.6585 -0.1748
12172TIP3   OH258006   4.787   5.318   0.981  0.1890 -0.2455  0.5905
12172TIP3    H158007   4.865   5.332   0.927  0.1767  1.7530  1.0298
12172TIP3    H258008   4.742   5.402   0.979 -1.2594 -0.9904  1.4438
12173TIP3   OH258009   2.090   2.483  10.609 -0.1611 -0.1747 -0.2451
12173TIP3    H158010   2.179   2.499  10.578  0.7141 -0.1584  2.2099
12173TIP3    H258011   2.058   2.570  10.633 -0.6053 -0.2661 -0.5050
12174TIP3   OH258012   5.830   1.748   1.706 -0.1882 -0.2203  0.3640
12174TIP3    H158013   5.894   1.692   1.749 -0.0490 -0.8386 -0.6528
12174TIP3    H258014   5.818   1.821   1.768  0.2066 -0.9559  1.3290
12175TIP3   OH258015   1.074   0.436   1.318 -0.2771  0.5471 -0.1770
12175TIP3    H158016   1.156   0.466   1.358  0.1661 -0.3593 -0.4081
12175TIP3    H258017   1.006   0.490   1.359  0.5834  2.3169 -1.0373
12176TIP3   OH258018   1.081   2.857   1.605  0.8119  0.3973 -0.0743
12176TIP3    H158019   1.010   2.909   1.566  2.0840  1.3152 -1.1984
12176TIP3    H258020   1.036   2.783   1.645 -0.7158  0.4365 -1.6394
12177TIP3   OH258021   3.710   4.576   1.742  0.1305 -0.2261  0.0568
12177TIP3    H158022   3.734   4.652   1.796 -2.3922  1.5571 -1.1778
12177TIP3    H258023   3.649   4.527   1.797  0.1487 -0.2205  0.0813
12178TIP3   OH258024   1.726   2.620   4.286  0.0724  0.9697 -0.2766
12178TIP3    H158025   1.653   2.571   4.324 -0.1579  0.7653 -0.9682
12178TIP3    H258026   1.713   2.710   4.316 -1.3253  1.2421 -1.6206
12179TIP3   OH258027   0.185   1.959   4.652 -0.1287 -0.0854 -0.0996
12179TIP3    H158028   0.127   2.035   4.651 -1.3051 -0.9696 -1.2191
12179TIP3    H258029   0.161   1.909   4.574  0.7544 -1.5096  0.5095
12180TIP3   OH258030   2.457   1.419   6.725 -0.1493  0.0737 -0.5608
12180TIP3    H158031   2.393   1.462   6.782  0.1434  1.2311 -1.1097
12180TIP3    H258032   2.481   1.339   6.773 -0.7523  0.4647  0.4155
12181TIP3   OH258033   4.687   5.303  13.290 -0.1092 -0.2790 -0.5565
12181TIP3    H158034   4.732   5.371  13.339 -0.5627 -0.5106  0.1943
12181TIP3    H258035   4.679   5.230  13.352  1.7342 -1.5961 -1.8053
12182TIP3   OH258036   1.413   4.262  12.812 -0.4491  0.1379  0.0791
12182TIP3    H158037   1.485   4.202  12.794  0.2414  0.6257  1.1762
12182TIP3    H258038   1.336   4.206  12.820  0.0187 -0.4984  0.1413
12183TIP3   OH258039   2.469   0.502   0.947 -0.7956 -0.2183 -0.5492
12183TIP3    H158040   2.544   0.443   0.951 -1.5918 -1.4004 -2.4101
12183TIP3    H258041   2.507   0.587   0.923  0.0540 -0.5846 -0.5242
12184TIP3   OH258042   3.421   2.815  11.642 -0.2014  0.1496  0.1779
12184TIP3    H158043   3.452   2.833  11.730  0.9288  0.0052 -0.1806
12184TIP3    H258044   3.451   2.726  11.623 -0.1621  0.2961 -0.4689
12185TIP3   OH258045   0.752   4.843  14.128 -0.7745 -0.3630 -0.1281
12185TIP3    H158046   0.794   4.827  14.044 -0.8157 -0.5480 -0.1153
12185TIP3    H258047   0.815   4.894  14.178 -1.3593  1.0442 -0.8060
12186TIP3   OH258048   1.357   4.426  16.126 -0.4532  0.0596  0.2891
12186TIP3    H158049   1.354   4.417  16.221  2.1427  0.4469  0.4337
12186TIP3    H258050   1.410   4.352  16.096  0.7021  1.2350 -0.6285
12187TIP3   OH258051   3.793   2.545   5.602  0.1109  0.6874  0.1476
12187TIP3    H158052   3.873   2.545   5.654 -0.0663 -0.2006  0.4216
12187TIP3    H258053   3.771   2.638   5.592  1.7174  0.9883 -0.7798
12188TIP3   OH258054   5.269   2.925  14.249 -0.5133 -0.2538  0.1048
12188TIP3    H158055   5.285   2.942  14.342 -0.8746 -3.3062  0.7670
12188TIP3    H258056   5.175   2.936  14.239 -0.3588  0.9274 -0.1006
12189TIP3   OH258057   4.754   0.205  11.409  0.2884  0.6853 -0.1674
12189TIP3    H158058   4.748   0.287  11.360  0.9436  0.5575 -0.4580
12189TIP3    H258059   4.688   0.148  11.369  1.5091  0.2315 -1.5637
12190TIP3   OH258060   2.603   3.425   3.358  0.0312  0.5595  0.2060
12190TIP3    H158061   2.658   3.358   3.397 -0.6090 -1.4942 -2.3281
12190TIP3    H258062   2.625   3.505   3.406  1.3483 -1.2837  2.7631
12191TIP3   OH258063   4.211   5.623  11.218  0.5664  0.6732  0.0736
12191TIP3    H158064   4.280   5.610  11.153 -1.1132  0.5418 -1.7229
12191TIP3    H258065   4.173   5.536  11.230  0.9946  0.6599  1.3960
12192TIP3   OH258066   1.713   2.342   1.982  0.1414 -0.2912  0.0346
12192TIP3    H158067   1.655   2.279   1.939 -3.2371  2.7483 -0.1241
12192TIP3    H258068   1.795   2.295   1.994 -1.7050 -4.1392 -1.5744
12193TIP3   OH258069   3.851   0.971  14.359 -0.3926  0.4310 -0.0641
12193TIP3    H158070   3.830   1.010  14.444  0.8713 -0.2900  0.5859
12193TIP3    H258071   3.793   1.016  14.298 -1.1135  1.1636  1.1328
12194TIP3   OH258072   4.493   0.678  14.042 -0.1928  0.4468 -0.3680
12194TIP3    H158073   4.530   0.694  14.128 -1.6326 -1.2667  0.5893
12194TIP3    H258074   4.416   0.734  14.038  1.5326  2.8119 -1.7489
12195TIP3   OH258075   3.912   0.423  13.028  0.0208  0.4494 -0.2765
12195TIP3    H158076   3.899   0.513  13.001  1.6315  0.3993 -1.2757
12195TIP3    H258077   3.833   0.401  13.077 -1.7110  1.4425 -2.5505
12196TIP3   OH258078   5.407   0.156  17.090  0.0682 -0.0194  0.1651
12196TIP3    H158079   5.415   0.187  17.000  0.1426  0.1909  0.2457
12196TIP3    H258080   5.330   0.099  17.089  0.7595 -0.9628 -0.3004
12197TIP3   OH258081   5.550   6.118   1.307  0.3251  0.0110  0.1462
12197TIP3    H158082   5.478   6.110   1.369  0.0809 -3.4979 -0.4968
12197TIP3    H258083   5.629   6.107   1.360  0.3507  2.0262  0.5633
12198TIP3   OH258084   6.347   3.820  13.518 -0.2689  0.2190  0.1842
12198TIP3    H158085   6.358   3.825  13.424 -0.5826 -0.1094  0.1252
12198TIP3    H258086   6.332   3.910  13.546  1.5747  0.5503  0.1588
12199TIP3   OH258087   6.788   2.128   4.923  0.5640 -0.1329  0.3605
12199TIP3    H158088   6.797   2.221   4.943 -1.4259  0.3391 -0.8150
12199TIP3    H258089   6.851   2.085   4.980  0.3364  1.8030  2.1140
12200TIP3   OH258090   1.914   3.132   4.190 -0.6643  0.2442  0.1586
12200TIP3    H158091   1.926   3.080   4.111 -0.7109  0.6103 -0.0918
12200TIP3    H258092   1.847   3.196   4.167  0.7063  1.6041 -0.1406
12201TIP3   OH258093   5.167   4.383  15.402  0.2390 -0.8074  0.5880
12201TIP3    H158094   5.152   4.309  15.461 -0.8602 -2.0463 -1.1997
12201TIP3    H258095   5.220   4.348  15.331 -1.0506 -0.1378 -0.7468
12202TIP3   OH258096   6.661   3.883   1.308  0.0324  0.3575  0.1586
12202TIP3    H158097   6.726   3.813   1.308  1.6266  1.8062  0.1153
12202TIP3    H258098   6.600   3.860   1.378  0.9425 -0.6984  0.6110
12203TIP3   OH258099   0.731   3.382   3.982  0.3033 -0.4916 -0.1089
12203TIP3    H158100   0.813   3.426   4.001  0.2715 -0.3722 -0.2467
12203TIP3    H258101   0.752   3.325   3.908  0.0812  0.0796 -0.6146
12204TIP3   OH258102   3.605   1.142  14.535 -0.1389 -0.3416  0.0204
12204TIP3    H158103   3.555   1.094  14.469  1.3551  0.3333 -1.6378
12204TIP3    H258104   3.556   1.224  14.546 -0.8061 -0.7761  0.3228
12205TIP3   OH258105   0.752   3.218   0.748  0.5753  0.2489 -0.0798
12205TIP3    H158106   0.821   3.192   0.809  0.9670 -0.3774 -0.7713
12205TIP3    H258107   0.701   3.284   0.795  1.0409 -0.0181  0.8104
12206TIP3   OH258108   3.637   6.465  12.452 -0.5447  0.1268 -0.2521
12206TIP3    H158109   3.657   6.546  12.498 -2.3816  0.4181  0.0652
12206TIP3    H258110   3.579   6.417  12.512 -1.0524 -0.5258 -1.2557
12207TIP3   OH258111   2.446   5.845   2.534 -0.1590 -0.3032  0.2010
12207TIP3    H158112   2.481   5.882   2.453  0.2133  0.5775  0.7488
12207TIP3    H258113   2.391   5.773   2.506  0.2485 -0.2270 -0.8167
12208TIP3   OH258114   1.479   6.376  15.959 -0.1930 -0.0358  0.4335
12208TIP3    H158115   1.458   6.428  15.882 -3.0263  1.1537  1.9468
12208TIP3    H258116   1.451   6.287  15.937 -3.2276  0.7488  0.8850
12209TIP3   OH258117   2.407   3.041  16.397  0.6449 -0.1175 -0.1830
12209TIP3    H158118   2.498   3.012  16.408  0.3755 -1.3063 -1.0749
12209TIP3    H258119   2.411   3.136  16.413  1.7620 -0.3893  1.3477
12210TIP3   OH258120   4.965   1.632   4.747 -0.3463 -0.1670 -0.1118
12210TIP3    H158121   4.936   1.579   4.674  0.8862 -1.0830  0.0528
12210TIP3    H258122   5.061   1.628   4.744 -0.2485  1.2210  0.4955
12211TIP3   OH258123   2.704   0.141   1.544  0.1304 -0.1751  0.3187
12211TIP3    H158124   2.786   0.190   1.555  0.9389 -1.5268  0.4656
12211TIP3    H258125   2.708   0.108   1.455 -0.6056  0.3593  0.0840
12212TIP3   OH258126   3.604   6.699   3.377 -0.4418  0.3104 -0.5263
12212TIP3    H158127   3.692   6.680   3.408  0.0905 -0.3246 -2.3281
12212TIP3    H258128   3.553   6.713   3.456  0.9993 -0.5344  0.5850
12213TIP3   OH258129   1.848   2.002  13.226  0.1168  0.2886 -0.2063
12213TIP3    H158130   1.776   1.965  13.175  1.3758 -1.1793 -0.9790
12213TIP3    H258131   1.833   1.971  13.315  0.1758 -0.6085 -0.5038
12214TIP3   OH258132   1.503   1.598   5.080  0.3223 -0.0545 -0.0860
12214TIP3    H158133   1.414   1.566   5.093  0.8516 -0.7458  1.8862
12214TIP3    H258134   1.560   1.528   5.111  1.5415  0.9965  0.1121
12215TIP3   OH258135   1.537   3.059  16.069  0.4083  0.1222 -0.3119
12215TIP3    H158136   1.595   2.996  16.026  0.2349 -0.7848  0.7797
12215TIP3    H258137   1.594   3.133  16.089  0.5966  0.3522 -1.6649
12216TIP3   OH258138   0.452   2.706  11.750  0.3248  0.2204  0.6678
12216TIP3    H158139   0.467   2.685  11.843  1.8940 -0.1017  0.3433
12216TIP3    H258140   0.364   2.744  11.749  0.5416  0.8267  2.3871
12217TIP3   OH258141   3.619   2.299  16.134 -0.3065  0.7819 -0.2743
12217TIP3    H158142   3.677   2.233  16.171 -1.6281 -0.0528  0.3581
12217TIP3    H258143   3.578   2.256  16.059 -1.5558  0.6647  0.4427
12218TIP3   OH258144   3.169   4.621   1.495 -1.0029  0.0185 -0.0710
12218TIP3    H158145   3.245   4.568   1.471 -0.9153  0.1518 -0.0865
12218TIP3    H258146   3.203   4.685   1.558 -0.9948  0.4064 -0.4681
12219TIP3   OH258147   1.439   2.231   2.045  0.3230 -0.3529  0.1238
12219TIP3    H158148   1.451   2.325   2.057  0.6137 -0.4094  0.2893
12219TIP3    H258149   1.488   2.210   1.965 -0.0962 -0.2902 -0.1508
12220TIP3   OH258150   6.690   2.068  12.755 -0.0882  0.1754 -0.2912
12220TIP3    H158151   6.654   2.112  12.833 -0.4483 -0.2359 -0.2205
12220TIP3    H258152   6.689   2.135  12.687 -0.3668  0.3630 -0.1052
12221TIP3   OH258153   1.404   5.672   2.387  0.0815 -0.2400 -0.1921
12221TIP3    H158154   1.381   5.581   2.402  0.1636 -0.0833  0.9013
12221TIP3    H258155   1.323   5.721   2.404 -0.0892 -0.1478 -1.2328
12222TIP3   OH258156   5.682   3.951  10.874  0.9038 -0.3313  0.4124
12222TIP3    H158157   5.703   3.953  10.780  3.6177  2.8477  1.0106
12222TIP3    H258158   5.599   3.999  10.881  2.2054  2.0579 -0.0695
12223TIP3   OH258159   6.516   4.110  16.376 -0.3562 -0.5776  0.3131
12223TIP3    H158160   6.464   4.173  16.425  1.6876  0.1876  1.5516
12223TIP3    H258161   6.510   4.139  16.285  1.0558  1.7891  0.9414
12224TIP3   OH258162   0.362   4.646  13.769  0.2416 -0.2177  0.3587
12224TIP3    H158163   0.378   4.701  13.846 -0.7105  0.3290  0.1843
12224TIP3    H258164   0.436   4.663  13.711  1.4824 -1.3970  1.5709
12225TIP3   OH258165   3.330   2.279   2.610  0.9087  0.2107 -0.3351
12225TIP3    H158166   3.382   2.234   2.544  0.9385  1.1479 -0.9616
12225TIP3    H258167   3.395   2.323   2.665  0.8119  0.7399 -0.6445
12226TIP3   OH258168   2.423   0.448  14.467 -0.1599  0.4109 -0.1088
12226TIP3    H158169   2.386   0.521  14.418 -2.0777 -0.4696 -0.0252
12226TIP3    H258170   2.351   0.386  14.477  2.1120 -2.8427 -2.7011
12227TIP3   OH258171   0.830   4.345  16.978  0.2023  0.4156  0.6869
12227TIP3    H158172   0.877   4.427  16.963 -1.7677  1.3565 -0.6658
12227TIP3    H258173   0.745   4.373  17.014 -0.9353 -0.9261 -0.8584
12228TIP3   OH258174   5.838   6.513  17.200  0.1130  0.8564 -0.5688
12228TIP3    H158175   5.865   6.591  17.248  1.4978 -1.6279  2.8635
12228TIP3    H258176   5.919   6.480  17.160 -0.3697  0.8816 -1.5776
12229TIP3   OH258177   2.627   1.221  15.293  0.3492 -0.1823 -0.2136
12229TIP3    H158178   2.689   1.152  15.316  1.0547  0.6821  0.5013
12229TIP3    H258179   2.600   1.257  15.377  0.6699  1.0024 -0.6164
12230TIP3   OH258180   3.825   6.441  10.675 -0.2484 -0.3118 -0.4786
12230TIP3    H158181   3.873   6.449  10.757  0.1414 -0.7371 -0.6697
12230TIP3    H258182   3.811   6.532  10.647 -2.5695 -0.0455  1.3207
12231TIP3   OH258183   6.407   3.783   1.167 -0.4072  0.0189 -0.2234
12231TIP3    H158184   6.365   3.725   1.232  1.1312 -1.6623 -0.7001
12231TIP3    H258185   6.371   3.870   1.187 -2.0667 -0.9214  1.1009
12232TIP3   OH258186   2.074   4.492  15.221 -0.1768 -0.0637  0.0296
12232TIP3    H158187   2.061   4.400  15.244  0.8786  0.3312  2.3286
12232TIP3    H258188   2.166   4.497  15.195  0.0710  0.5425  0.9908
12233TIP3   OH258189   5.585   3.512   0.510 -0.2005  0.1439  0.0745
12233TIP3    H158190   5.597   3.600   0.547  1.1414  0.0788 -0.1890
12233TIP3    H258191   5.646   3.509   0.436 -0.3129 -0.9767  0.0279
12234TIP3   OH258192   1.782   6.598  10.728 -0.0208 -0.3372  0.1731
12234TIP3    H158193   1.721   6.549  10.673 -0.0180 -1.0835  0.8150
12234TIP3    H258194   1.758   6.690  10.716 -1.9056 -0.6816  1.1345
12235TIP3   OH258195   2.604   3.802   0.750  0.8157  0.3917  0.0693
12235TIP3    H158196   2.624   3.895   0.762 -1.7445  0.9027  0.5995
12235TIP3    H258197   2.589   3.769   0.839 -0.2302 -0.0758 -0.2790
12236TIP3   OH258198   3.148   2.349  12.741  0.0439  0.1716  0.6683
12236TIP3    H158199   3.066   2.386  12.708  0.7007  0.7296 -0.3580
12236TIP3    H258200   3.132   2.334  12.835 -1.5103 -0.5266  0.2951
12237TIP3   OH258201   0.323   4.511   0.022  0.1873  0.6960 -0.0169
12237TIP3    H158202   0.377   4.533   0.098  0.2792  0.5141 -0.0282
12237TIP3    H258203   0.361   4.561  -0.050 -1.0753  2.3632  0.4447
12238TIP3   OH258204   6.631   2.931   2.234 -0.3909  0.1701  0.2922
12238TIP3    H158205   6.615   2.857   2.175  1.4298  0.1758 -0.2279
12238TIP3    H258206   6.592   2.905   2.317 -3.0881  0.1949 -0.8960
12239TIP3   OH258207   2.846   2.748   1.213 -0.7255 -0.3128 -0.6924
12239TIP3    H158208   2.889   2.663   1.214 -0.9684 -0.4407  1.5348
12239TIP3    H258209   2.816   2.759   1.122  0.5833 -1.9294 -1.3390
12240TIP3   OH258210   5.091   4.055   5.461  0.2413 -0.2828  0.3494
12240TIP3    H158211   5.121   4.118   5.396 -1.1800 -1.2079 -1.2420
12240TIP3    H258212   5.149   4.069   5.536  1.8261  0.8889 -1.0441
12241TIP3   OH258213   1.342   2.321  13.582  0.2919  0.4497  0.7513
12241TIP3    H158214   1.429   2.283  13.594  0.2739  0.8187  2.0935
12241TIP3    H258215   1.357   2.415  13.584 -0.0196  0.5126  0.0884
12242TIP3   OH258216   0.675   4.944  12.898  0.3724 -0.1369  0.0540
12242TIP3    H158217   0.682   4.878  12.967 -0.5864 -0.4933 -0.1804
12242TIP3    H258218   0.581   4.964  12.894  0.2543 -0.9610 -1.9389
12243TIP3   OH258219   4.721   2.768   2.490  0.6859  0.3618  0.3319
12243TIP3    H158220   4.682   2.762   2.577  2.0115 -0.3646  0.8765
12243TIP3    H258221   4.791   2.704   2.490 -0.0881 -0.5215 -1.7040
12244TIP3   OH258222   3.430   1.328  16.752 -0.4046 -0.1931  0.3521
12244TIP3    H158223   3.415   1.253  16.694  0.2269 -0.3475  0.3855
12244TIP3    H258224   3.486   1.294  16.822  0.3790  0.4451  0.0460
12245TIP3   OH258225   6.746   1.159   1.880 -0.8487  0.2674  0.2656
12245TIP3    H158226   6.716   1.165   1.971 -0.5187 -1.5269  0.5103
12245TIP3    H258227   6.743   1.066   1.860  0.2549  0.5263 -1.1770
12246TIP3   OH258228   4.153   2.958  13.118 -0.1367 -0.2848 -0.4409
12246TIP3    H158229   4.179   2.879  13.166  1.6518 -0.1271 -1.1336
12246TIP3    H258230   4.225   2.974  13.057 -1.7451  0.3134 -2.2394
12247TIP3   OH258231   5.194   3.573   0.561  0.1159  0.3335  1.0866
12247TIP3    H158232   5.124   3.508   0.555  0.1991  0.2999  0.4714
12247TIP3    H258233   5.268   3.525   0.599 -0.1695  0.3547  1.6815
12248TIP3   OH258234   1.933   2.876  12.852 -0.2975 -0.7101 -0.2993
12248TIP3    H158235   1.916   2.782  12.864 -0.0775 -0.9420 -1.6541
12248TIP3    H258236   1.965   2.882  12.761 -0.1324  0.6505 -0.1495
12249TIP3   OH258237   1.293   4.816   3.830 -0.0460 -0.0044  0.0899
12249TIP3    H158238   1.208   4.786   3.798  0.2704 -0.8158 -0.0117
12249TIP3    H258239   1.340   4.735   3.851  1.4138  0.3381 -1.7150
12250TIP3   OH258240   2.429   1.145  15.129 -0.0901 -0.8282  0.5089
12250TIP3    H158241   2.490   1.087  15.083  0.9891  1.1379 -0.5888
12250TIP3    H258242   2.480   1.177  15.204  0.5442  1.4902 -0.8864
12251TIP3   OH258243   3.802   0.484  14.984 -0.0019  0.4834 -0.5069
12251TIP3    H158244   3.723   0.431  14.992 -0.1085  0.6491 -0.4601
12251TIP3    H258245   3.829   0.503  15.074 -0.2973  1.0022 -0.5253
12252TIP3   OH258246   5.031   2.062   5.509  0.1429  0.4941 -0.0873
12252TIP3    H158247   5.052   1.988   5.453  3.6573 -0.2298  2.0095
12252TIP3    H258248   5.059   2.139   5.459 -1.2005  0.2544 -1.2386
12253TIP3   OH258249   3.772   1.236   0.301  0.1387 -0.6340 -0.4743
12253TIP3    H158250   3.708   1.279   0.244 -0.6367 -0.4892  0.4959
12253TIP3    H258251   3.842   1.301   0.312 -0.1680 -0.3030 -0.4767
12254TIP3   OH258252   6.291   0.719   2.318 -0.7178 -0.2872  0.3125
12254TIP3    H158253   6.300   0.809   2.348  1.2484 -0.1863 -0.4796
12254TIP3    H258254   6.246   0.726   2.234  2.0035  0.2523 -1.1604
12255TIP3   OH258255   2.182   3.956  11.511 -0.8131  0.2281  0.1871
12255TIP3    H158256   2.187   3.878  11.565  3.2249 -1.3162 -2.1676
12255TIP3    H258257   2.133   3.929  11.433 -1.9707  0.9142  0.6653
12256TIP3   OH258258   3.147   4.383   4.369  0.0135  0.2247 -0.4309
12256TIP3    H158259   3.107   4.415   4.450 -1.2180 -0.0474 -0.9315
12256TIP3    H258260   3.235   4.421   4.370  0.5454 -0.9637  1.7620
12257TIP3   OH258261   2.050   3.805   2.224  0.5268 -0.4885 -0.2841
12257TIP3    H158262   1.986   3.747   2.265 -0.0224  0.7715  0.6764
12257TIP3    H258263   2.098   3.843   2.298  1.3238 -0.2129 -0.9322
12258TIP3   OH258264   3.848   4.858  15.990  0.3951 -0.0041  0.2284
12258TIP3    H158265   3.936   4.888  16.012  0.3741  0.8245 -0.7573
12258TIP3    H258266   3.789   4.924  16.027  0.3624  1.3814 -2.2155
12259TIP3   OH258267   3.734   0.782   4.461  0.0747  0.2748  0.9256
12259TIP3    H158268   3.779   0.785   4.545 -0.5021  1.6764  1.2045
12259TIP3    H258269   3.776   0.851   4.408  1.4080 -1.5422 -0.4565
12260TIP3   OH258270   5.401   4.973   1.813 -0.2402 -0.2004  0.3225
12260TIP3    H158271   5.436   4.885   1.801 -0.1306 -0.1136  0.0141
12260TIP3    H258272   5.365   4.997   1.728  1.2767  0.7295 -0.0578
12261TIP3   OH258273   2.096   1.763   1.800  0.0545 -0.2525  0.2474
12261TIP3    H158274   2.145   1.845   1.801 -0.0511 -0.1627 -0.9103
12261TIP3    H258275   2.032   1.774   1.730 -1.4092 -0.5029  1.5048
12262TIP3   OH258276   5.120   6.060   2.869  0.1112 -0.1136  0.3705
12262TIP3    H158277   5.106   5.965   2.872  3.2174 -0.5834  3.6251
12262TIP3    H258278   5.042   6.096   2.911 -0.8282 -1.2419 -0.3625
12263TIP3   OH258279   5.448   5.274   1.300 -0.6906  0.2009  0.0853
12263TIP3    H158280   5.398   5.250   1.222  0.1441  0.4343 -0.5344
12263TIP3    H258281   5.529   5.223   1.293 -0.7854 -0.0939  1.0214
12264TIP3   OH258282   1.606   0.789  14.755 -0.4827  0.1804 -0.5522
12264TIP3    H158283   1.617   0.884  14.750 -0.1186  0.2106  0.5514
12264TIP3    H258284   1.558   0.766  14.676 -1.7084  1.4535 -0.2162
12265TIP3   OH258285   6.344   1.387   4.043  0.2264  0.3535 -0.3879
12265TIP3    H158286   6.318   1.332   4.117 -2.5739  2.1625  0.0643
12265TIP3    H258287   6.396   1.457   4.083 -1.8718  1.7218  0.0440
12266TIP3   OH258288   5.991   3.724  11.964 -0.3076  0.4522 -0.5285
12266TIP3    H158289   6.062   3.755  12.021  0.4581 -1.3183 -0.4968
12266TIP3    H258290   6.024   3.736  11.875  0.1275 -0.5714 -0.5094
12267TIP3   OH258291   2.336   0.513  11.633 -0.7628 -0.0399 -0.1137
12267TIP3    H158292   2.285   0.494  11.712  1.2757  1.2342  1.5470
12267TIP3    H258293   2.402   0.576  11.662  0.1622  0.2582 -2.7981
12268TIP3   OH258294   1.105   0.760  11.492  0.6281  0.8764 -0.0457
12268TIP3    H158295   1.200   0.760  11.497  0.6415 -1.3007  0.1268
12268TIP3    H258296   1.084   0.695  11.425 -0.7411  1.3033 -0.0533
12269TIP3   OH258297   6.401   2.937  17.239 -0.1369 -0.1049 -0.3247
12269TIP3    H158298   6.368   3.021  17.270 -2.0127 -0.8167 -0.3428
12269TIP3    H258299   6.438   2.955  17.153  1.2491  1.0557  0.4856
12270TIP3   OH258300   6.088   1.203   5.629 -0.0445  0.4232 -0.1460
12270TIP3    H158301   6.075   1.189   5.723  1.1682  0.8831  0.0957
12270TIP3    H258302   6.183   1.198   5.617 -0.2097  0.1067 -1.3923
12271TIP3   OH258303   1.594   5.642  14.411 -0.5939 -0.5329  0.4089
12271TIP3    H158304   1.550   5.685  14.484  1.0208  0.3935  0.8650
12271TIP3    H258305   1.614   5.554  14.443  1.2351  0.2845  1.5424
12272TIP3   OH258306   1.141   6.638  16.419  0.1522 -0.3637 -0.7415
12272TIP3    H158307   1.144   6.548  16.387 -0.4840 -0.1841 -1.3239
12272TIP3    H258308   1.233   6.663  16.429  0.3287 -1.9209  1.8891
12273TIP3   OH258309   3.636   6.520  12.038 -0.0244 -0.3875  0.4036
12273TIP3    H158310   3.644   6.611  12.010 -0.7765 -0.1335  1.0292
12273TIP3    H258311   3.544   6.509  12.060  0.4467 -0.7240  2.3135
12274TIP3   OH258312   1.776   4.904   4.337  0.4946  0.0002  0.8390
12274TIP3    H158313   1.806   4.994   4.340  0.2885  0.1362 -1.0158
12274TIP3    H258314   1.831   4.859   4.402  2.5210  0.8924 -0.1914
12275TIP3   OH258315   4.081   3.814   4.235  0.1994  0.1445 -0.0445
12275TIP3    H158316   4.089   3.850   4.147  2.3351 -0.6192 -0.1931
12275TIP3    H258317   4.144   3.741   4.237  0.8457  0.7274  2.3700
12276TIP3   OH258318   6.382   3.283   4.747  0.2095  0.4591 -0.7069
12276TIP3    H158319   6.304   3.265   4.800 -0.8409  0.1033 -2.3436
12276TIP3    H258320   6.356   3.355   4.690  1.2462  0.6577 -0.9319
12277TIP3   OH258321   2.358   3.574   1.518  0.0247  0.8354 -0.2424
12277TIP3    H158322   2.318   3.648   1.471  0.3372  1.3563  0.2964
12277TIP3    H258323   2.371   3.607   1.607  0.1578  0.1201  0.0057
12278TIP3   OH258324   0.636   0.095   3.634 -0.6803 -0.1554 -0.8737
12278TIP3    H158325   0.723   0.134   3.636 -0.4567 -0.6838  0.2603
12278TIP3    H258326   0.579   0.162   3.671 -0.2937 -0.8771  1.0891
12279TIP3   OH258327   3.599   3.805  15.700 -0.1782 -0.2528 -1.0756
12279TIP3    H158328   3.523   3.859  15.721  0.4165  0.3356 -0.3618
12279TIP3    H258329   3.611   3.815  15.606 -0.2267  0.6669 -0.9912
12280TIP3   OH258330   2.242   0.033  12.163 -0.3131 -0.2192  0.1108
12280TIP3    H158331   2.252   0.009  12.255 -0.1230 -0.9635 -0.0989
12280TIP3    H258332   2.196  -0.042  12.124 -0.2159  0.0061 -0.4354
12281TIP3   OH258333   2.755   3.327   3.987  0.2592 -0.4300  1.1252
12281TIP3    H158334   2.758   3.232   3.994 -0.7727 -0.5724 -0.1984
12281TIP3    H258335   2.807   3.358   4.061  0.3668 -2.0141  1.7325
12282TIP3   OH258336   1.643   5.479   2.298 -0.1381 -0.0267  0.0628
12282TIP3    H158337   1.601   5.565   2.304  0.5206  0.4172 -1.4273
12282TIP3    H258338   1.737   5.499   2.295 -0.0492 -0.6685 -2.0970
12283TIP3   OH258339   6.672   5.127   4.164  0.0814 -0.7628  0.0357
12283TIP3    H158340   6.613   5.113   4.090  0.3082 -0.8293 -0.1352
12283TIP3    H258341   6.697   5.219   4.157  1.7422 -1.2819 -1.2025
12284TIP3   OH258342   1.818   4.649  16.533  0.4403  0.4176  0.0523
12284TIP3    H158343   1.729   4.625  16.557  0.7419 -3.3057 -2.0215
12284TIP3    H258344   1.873   4.606  16.598  0.8190 -0.5210 -0.8640
12285TIP3   OH258345   5.582   6.603   4.545 -0.2076  0.2939  0.8760
12285TIP3    H158346   5.536   6.674   4.591 -0.4145  1.1611 -0.6411
12285TIP3    H258347   5.517   6.570   4.483  0.4011 -0.1819  0.5003
12286TIP3   OH258348   1.101   4.346   5.151 -0.1228 -0.1877 -0.0203
12286TIP3    H158349   1.047   4.273   5.124 -0.2818 -0.4893  1.1163
12286TIP3    H258350   1.159   4.362   5.076  1.0163 -2.5116  0.3250
12287TIP3   OH258351   0.530   2.166  12.409 -0.2922 -0.4746  0.1397
12287TIP3    H158352   0.500   2.075  12.410 -0.3086 -0.4761 -0.6303
12287TIP3    H258353   0.513   2.197  12.498 -1.1271 -0.9500  0.1524
12288TIP3   OH258354   1.343   2.381   5.463 -0.0708  0.1408  0.0455
12288TIP3    H158355   1.263   2.385   5.410 -2.0043  2.1082  2.9041
12288TIP3    H258356   1.414   2.370   5.400 -2.5699 -1.3724 -2.6065
12289TIP3   OH258357   3.577   0.495  14.430 -0.4031 -0.2017 -0.3740
12289TIP3    H158358   3.588   0.533  14.516  0.7950  0.7938 -0.9612
12289TIP3    H258359   3.611   0.406  14.438 -2.1908 -0.8188  0.7013
12290TIP3   OH258360   6.273   4.623  11.331  0.2621  0.1297 -0.5181
12290TIP3    H158361   6.178   4.632  11.327  0.2354 -0.5046 -1.6156
12290TIP3    H258362   6.293   4.553  11.268  1.5973  1.3306 -1.4556
12291TIP3   OH258363   0.412   6.744   2.151  0.0385 -0.3998  0.1325
12291TIP3    H158364   0.418   6.661   2.105  0.2816 -0.4685  0.2869
12291TIP3    H258365   0.468   6.804   2.100 -0.9019 -0.0752 -0.5335
12292TIP3   OH258366   4.372   1.745   0.555 -0.1091 -0.6666 -0.2331
12292TIP3    H158367   4.399   1.663   0.514  0.4452 -0.8193  0.4361
12292TIP3    H258368   4.452   1.796   0.562 -0.5613  0.1966 -1.2325
12293TIP3   OH258369   6.391   0.240   0.247  0.6962 -0.9511 -0.7655
12293TIP3    H158370   6.478   0.279   0.259 -0.3989  1.4061 -0.2947
12293TIP3    H258371   6.376   0.244   0.153 -0.3800  2.0218 -0.5190
12294TIP3   OH258372   5.527   1.682   2.879 -0.1099  0.5046 -0.0481
12294TIP3    H158373   5.610   1.634   2.884 -1.1124 -1.2798  0.0153
12294TIP3    H258374   5.492   1.679   2.968 -1.4454 -1.0223 -0.5816
12295TIP3   OH258375   0.056   2.438  16.645 -0.2325  0.3002 -0.4686
12295TIP3    H158376   0.003   2.426  16.566 -0.0904 -0.9511 -0.3789
12295TIP3    H258377  -0.005   2.475  16.709 -1.6371 -3.1808  0.3192
12296TIP3   OH258378   2.939   1.862   5.324 -0.1731 -0.5672  0.5709
12296TIP3    H158379   2.938   1.790   5.387 -1.9553 -0.6199  0.5251
12296TIP3    H258380   2.918   1.820   5.240 -0.3959 -0.1262  0.4065
12297TIP3   OH258381   0.270   2.035  12.314 -0.0280  0.0982 -0.3168
12297TIP3    H158382   0.217   2.019  12.236 -1.8535 -2.0928  1.3244
12297TIP3    H258383   0.295   2.128  12.307 -1.2708  0.2901 -2.7985
12298TIP3   OH258384   1.703   1.694  16.558 -0.1845 -0.4338  0.4424
12298TIP3    H158385   1.676   1.679  16.467  0.1647  1.5289 -0.0183
12298TIP3    H258386   1.798   1.692  16.555 -0.1305  1.1218  0.4574
12299TIP3   OH258387   2.480   4.284   3.893  0.4299  0.5425 -0.4770
12299TIP3    H158388   2.450   4.354   3.834  1.9474  0.9349 -0.8007
12299TIP3    H258389   2.476   4.205   3.839 -1.6107  0.2843 -0.0123
12300TIP3   OH258390   1.538   2.253   1.796 -0.3792 -0.5743  0.7924
12300TIP3    H158391   1.443   2.243   1.783 -0.4249 -0.2556  0.8776
12300TIP3    H258392   1.562   2.325   1.739 -0.1460 -0.8033  0.6010
12301TIP3   OH258393   1.477   5.339   3.005 -0.1536  0.7873  0.0410
12301TIP3    H158394   1.573   5.341   3.012 -0.0597 -1.2254 -0.6091
12301TIP3    H258395   1.454   5.246   3.005 -1.9089  1.1830 -2.6703
12302TIP3   OH258396   6.623   1.704  12.281  0.5111  0.0236 -0.0800
12302TIP3    H158397   6.575   1.766  12.226  1.4343  1.0815  0.2887
12302TIP3    H258398   6.609   1.736  12.370  0.6690 -0.5313  0.1422
12303TIP3   OH258399   4.448   1.137  16.714  0.0489 -0.2685 -0.6255
12303TIP3    H158400   4.501   1.069  16.755  1.0654  1.9881  1.9844
12303TIP3    H258401   4.383   1.160  16.781  1.6524  3.4222 -0.2140
12304TIP3   OH258402   1.657   1.561  13.149 -0.6163  0.4169 -0.3456
12304TIP3    H158403   1.592   1.580  13.080  0.8218  0.4969 -1.7159
12304TIP3    H258404   1.674   1.467  13.140  0.1023  0.5642 -0.5944
12305TIP3   OH258405   5.373   2.917  11.711 -0.4295 -0.5317 -0.1661
12305TIP3    H158406   5.380   2.823  11.691 -0.5890 -0.3505 -1.0956
12305TIP3    H258407   5.326   2.920  11.794 -1.5731 -1.2474 -0.7668
12306TIP3   OH258408   4.762   3.303  16.886  0.5261  0.1944  0.1170
12306TIP3    H158409   4.694   3.370  16.884  0.7559  0.3865 -1.2966
12306TIP3    H258410   4.844   3.352  16.885  0.6937 -0.0769  0.4075
12307TIP3   OH258411   0.617   1.101  12.858 -0.1062 -0.3775 -0.2149
12307TIP3    H158412   0.706   1.131  12.838 -1.2243  2.2507 -1.4379
12307TIP3    H258413   0.587   1.058  12.778 -1.1100  1.6646 -0.9580
12308TIP3   OH258414   4.413   2.794   3.933 -0.0253 -0.2716  0.5444
12308TIP3    H158415   4.390   2.708   3.897  0.4833 -0.9841  1.9076
12308TIP3    H258416   4.440   2.777   4.023  1.0491  1.1903  0.5288
12309TIP3   OH258417   1.838   1.274  16.032 -0.0853 -1.1171 -0.6148
12309TIP3    H158418   1.876   1.255  16.118 -0.9917  0.7394  0.2385
12309TIP3    H258419   1.898   1.233  15.969  1.5291 -1.0403  0.8317
12310TIP3   OH258420   5.446   6.515  13.704 -0.5900 -0.0484  0.1825
12310TIP3    H158421   5.412   6.604  13.699  0.5472  0.4202  0.7278
12310TIP3    H258422   5.542   6.525  13.706 -0.4241 -1.3007 -0.3789
12311TIP3   OH258423   4.154   0.071   0.970 -0.0395  0.4178 -0.0152
12311TIP3    H158424   4.209   0.019   1.029 -0.6266 -0.0888  0.0988
12311TIP3    H258425   4.064   0.044   0.992 -0.1958 -1.0716 -2.3457
12312TIP3   OH258426   0.642   4.624  16.164  0.2219  0.2615 -0.0466
12312TIP3    H158427   0.693   4.646  16.243  0.5979 -0.4672 -0.0806
12312TIP3    H258428   0.662   4.694  16.103 -0.4012  1.0618  0.6498
12313TIP3   OH258429   2.507   3.100   2.651 -0.1737 -0.2648 -0.1641
12313TIP3    H158430   2.551   3.034   2.706 -0.0282 -0.4854 -0.5465
12313TIP3    H258431   2.578   3.156   2.620 -0.2430 -0.2121 -0.2271
12314TIP3   OH258432   2.106   6.442   3.331  0.2233 -0.0560  0.4185
12314TIP3    H158433   2.107   6.366   3.273  0.6153 -1.0485  1.6957
12314TIP3    H258434   2.014   6.457   3.351  0.2511 -1.1339  1.3644
12315TIP3   OH258435   4.901   5.774   2.702 -0.0582  0.6578 -0.0614
12315TIP3    H158436   4.988   5.734   2.693 -0.9886 -1.1533 -1.3205
12315TIP3    H258437   4.895   5.834   2.628 -0.1060  0.3091 -0.3455
12316TIP3   OH258438   3.580   5.266  14.230 -0.1815  0.2783  0.2135
12316TIP3    H158439   3.603   5.200  14.295 -0.4150 -0.2684 -0.2473
12316TIP3    H258440   3.523   5.219  14.168  0.0833  0.7698 -0.4109
12317TIP3   OH258441   4.069   5.016  11.082 -0.5914 -0.8637 -0.2450
12317TIP3    H158442   4.030   5.083  11.139  2.1904  1.8478 -1.4130
12317TIP3    H258443   4.116   4.958  11.142  1.6947  1.5445  0.3951
12318TIP3   OH258444   1.146   5.702  16.361 -0.2565  0.0931  0.0858
12318TIP3    H158445   1.146   5.786  16.313  0.3103  0.6911  1.1134
12318TIP3    H258446   1.108   5.723  16.446 -0.6777 -0.8334  0.1303
12319TIP3   OH258447   6.399   4.617  14.084 -0.2287  0.4467 -0.0748
12319TIP3    H158448   6.339   4.543  14.085  0.2359  0.0663 -0.0050
12319TIP3    H258449   6.486   4.577  14.078 -0.0275  1.0074 -1.0506
12320TIP3   OH258450   0.801   1.246   0.921  0.4847 -0.7335  0.0238
12320TIP3    H158451   0.741   1.207   0.985 -0.1902  2.2427  1.2925
12320TIP3    H258452   0.749   1.251   0.840  0.0395 -0.9551  0.2933
12321TIP3   OH258453   3.923   5.498  13.962  0.0645  0.0660 -0.0978
12321TIP3    H158454   4.016   5.515  13.978  0.4374 -0.4617 -1.6590
12321TIP3    H258455   3.905   5.416  14.007  0.6828 -0.5188 -0.9072
12322TIP3   OH258456   2.030   2.224   2.859 -0.4510 -0.0413  0.4186
12322TIP3    H158457   1.957   2.280   2.834 -0.8868 -0.5041  0.6493
12322TIP3    H258458   2.008   2.138   2.824  0.6373  0.1207 -0.6996
12323TIP3   OH258459   1.390   5.853   3.411  0.0464 -0.3532 -0.1857
12323TIP3    H158460   1.335   5.908   3.355  1.4467  0.8023 -0.4936
12323TIP3    H258461   1.385   5.766   3.372 -0.5417  0.0168 -0.9608
12324TIP3   OH258462   2.717   5.964   6.064 -0.1446  0.3390  0.1663
12324TIP3    H158463   2.770   5.935   6.138 -0.0684  0.3463  0.1139
12324TIP3    H258464   2.638   5.909   6.069 -0.3051  0.6002  0.4716
12325TIP3   OH258465   5.397   5.164   4.872 -0.1937  0.0523 -0.1893
12325TIP3    H158466   5.396   5.103   4.798 -3.5817  0.5231 -0.5718
12325TIP3    H258467   5.425   5.248   4.834  0.1615 -0.1981 -0.4932
12326TIP3   OH258468   5.014   5.039  13.204 -0.3802 -0.6484 -0.1161
12326TIP3    H158469   5.004   5.058  13.298  0.6600 -2.6594  0.4437
12326TIP3    H258470   5.103   5.006  13.196 -0.1577  0.3395 -1.9937
12327TIP3   OH258471   0.809   0.773  12.319 -0.3283 -0.1597 -0.0482
12327TIP3    H158472   0.827   0.681  12.340  0.1824 -0.0178  0.1483
12327TIP3    H258473   0.836   0.821  12.398  0.7059  0.2851 -0.6544
12328TIP3   OH258474   5.907   3.425  14.237 -0.2136 -0.4753 -0.4664
12328TIP3    H158475   5.849   3.349  14.233  1.8080 -2.0727 -0.0363
12328TIP3    H258476   5.934   3.441  14.147 -1.3075  0.2797 -0.6681
12329TIP3   OH258477   2.569   0.052   1.895  0.5309 -0.0898  0.2096
12329TIP3    H158478   2.582   0.135   1.850 -1.4786  0.3599  0.3830
12329TIP3    H258479   2.635   0.052   1.964  1.6589  0.5838 -0.8516
12330TIP3   OH258480   4.350   3.290  12.950 -0.2335  0.6866 -0.4557
12330TIP3    H158481   4.263   3.304  12.986 -0.6134  0.1111 -1.1312
12330TIP3    H258482   4.347   3.335  12.865 -0.2854 -0.3872 -1.0308
12331TIP3   OH258483   6.534   1.427  15.854 -0.0277  0.4812  0.6659
12331TIP3    H158484   6.498   1.492  15.794  1.0313 -0.5301 -1.1203
12331TIP3    H258485   6.555   1.477  15.933  0.2743  2.2189 -0.4781
12332TIP3   OH258486   2.181   1.998  17.258 -0.1260  0.5876 -1.0600
12332TIP3    H158487   2.200   2.089  17.278  0.3652  0.4255 -0.7870
12332TIP3    H258488   2.182   1.954  17.343 -0.6179  0.3701 -1.1593
12333TIP3   OH258489   1.152   6.506  15.080 -0.1169 -0.5540  0.3403
12333TIP3    H158490   1.222   6.571  15.081  1.1319 -1.8319 -1.1671
12333TIP3    H258491   1.162   6.459  15.163  0.8585 -0.7697  0.1077
12334TIP3   OH258492   2.264   2.941  11.146  0.2199 -0.0670  0.0414
12334TIP3    H158493   2.176   2.910  11.125 -0.2726  0.6475  0.9968
12334TIP3    H258494   2.280   3.012  11.083  1.4627 -2.3877 -2.3273
12335TIP3   OH258495   4.479   4.546   6.459  0.2928 -0.1341  0.2891
12335TIP3    H158496   4.388   4.519   6.476  0.5814 -0.6127  1.1403
12335TIP3    H258497   4.484   4.556   6.364 -0.6067 -0.2827  0.2192
12336TIP3   OH258498   1.530   1.252  12.714  0.4561  0.6075  0.2226
12336TIP3    H158499   1.616   1.264  12.674  0.0192  0.6564 -0.7098
12336TIP3    H258500   1.485   1.191  12.657 -1.1856  2.8317 -0.9227
12337TIP3   OH258501   4.854   0.736   1.409 -0.2752  0.2348 -0.3479
12337TIP3    H158502   4.795   0.693   1.348  1.4772 -1.4712 -0.8984
12337TIP3    H258503   4.932   0.680   1.412  1.4820  2.5790  0.0605
12338TIP3   OH258504   3.218   1.718   5.635 -0.7043  0.2880  0.1580
12338TIP3    H158505   3.197   1.693   5.545  0.4044 -0.7937  0.1978
12338TIP3    H258506   3.303   1.760   5.630 -1.6412  2.2657  0.3959
12339TIP3   OH258507   1.996   0.771   4.723  0.3405  0.0358 -0.2788
12339TIP3    H158508   1.985   0.740   4.813  0.4437 -0.7267 -0.5274
12339TIP3    H258509   1.909   0.804   4.698 -0.1897 -1.5577 -0.5747
12340TIP3   OH258510   4.296   5.218  11.323  0.1026  0.1387  0.2310
12340TIP3    H158511   4.220   5.265  11.289  1.2093  1.3410 -0.6011
12340TIP3    H258512   4.369   5.245  11.267  0.7709 -2.5914 -0.2972
12341TIP3   OH258513   3.241   2.019  14.238 -0.4042 -0.0769  0.5269
12341TIP3    H158514   3.214   2.044  14.326 -1.4287 -0.7296  0.3974
12341TIP3    H258515   3.337   2.023  14.241 -0.4755  3.7064  0.5530
12342TIP3   OH258516   0.992   0.952   1.521 -0.0084  0.3718  0.1318
12342TIP3    H158517   1.029   0.906   1.446 -2.6224 -0.7661 -0.5190
12342TIP3    H258518   1.032   1.039   1.519  1.7327 -0.4389 -1.1608
12343TIP3   OH258519   1.081   2.883   3.629 -0.0813  0.2071 -0.0236
12343TIP3    H158520   1.088   2.792   3.601  0.0446  0.1481  0.1917
12343TIP3    H258521   1.078   2.878   3.725  0.6682  0.4713  0.0175
12344TIP3   OH258522   3.787   3.463   5.181  0.1107 -0.3967  0.1929
12344TIP3    H158523   3.834   3.546   5.187 -0.7041  0.2611 -2.1586
12344TIP3    H258524   3.729   3.462   5.257  1.0255  0.5965  0.9136
12345TIP3   OH258525   4.538   2.089   3.359  0.3040 -0.1122  0.2131
12345TIP3    H158526   4.476   2.094   3.432  0.1576 -0.3556  0.1080
12345TIP3    H258527   4.488   2.050   3.288  0.6260 -0.4663  0.1777
12346TIP3   OH258528   6.375   4.787  10.981 -0.3734  0.3347  0.4893
12346TIP3    H158529   6.321   4.715  11.014  1.9451 -0.2066  3.1769
12346TIP3    H258530   6.457   4.746  10.955  1.0586  2.0233  2.2691
12347TIP3   OH258531   0.388   3.829  12.067  0.4634 -0.1623 -0.0512
12347TIP3    H158532   0.294   3.817  12.055  0.0430  0.5565  2.2505
12347TIP3    H258533   0.422   3.741  12.083  0.2903 -0.5012 -1.5049
12348TIP3   OH258534   5.217   3.116   1.160 -0.0089 -0.0524 -0.3928
12348TIP3    H158535   5.167   3.089   1.083 -1.8063 -0.2205  0.7819
12348TIP3    H258536   5.300   3.147   1.126 -0.7707 -0.1595 -2.3950
12349TIP3   OH258537   4.294   5.730  14.084 -0.3562  0.3785  0.0663
12349TIP3    H158538   4.373   5.767  14.044 -1.1410 -0.1548 -2.0877
12349TIP3    H258539   4.243   5.807  14.110 -0.9766  0.8248 -2.3525
12350TIP3   OH258540   0.919   3.955  12.928  0.2916 -0.6070 -0.4380
12350TIP3    H158541   0.926   3.878  12.872  1.7490 -0.4473 -0.4913
12350TIP3    H258542   0.952   3.926  13.013  0.3240 -0.2014 -0.3109
12351TIP3   OH258543   3.135   2.715  11.794 -0.0949 -0.3673  0.1013
12351TIP3    H158544   3.187   2.634  11.790 -1.8425 -1.5037  0.1303
12351TIP3    H258545   3.047   2.689  11.768 -0.4032  1.7947 -1.1444
12352TIP3   OH258546   2.561   5.138  12.220  0.6696  0.2908 -0.1733
12352TIP3    H158547   2.597   5.076  12.156  0.1512 -0.7303  0.4934
12352TIP3    H258548   2.469   5.146  12.196  0.4273 -0.2544  0.5527
12353TIP3   OH258549   1.200   3.015  15.895  0.0569 -0.2158  0.0082
12353TIP3    H158550   1.137   3.079  15.862 -0.9245 -0.1249  1.9928
12353TIP3    H258551   1.280   3.066  15.910 -0.4119  0.3394  0.6248
12354TIP3   OH258552   0.524   1.810   0.103 -0.0717  0.1442  0.4163
12354TIP3    H158553   0.520   1.727   0.054  0.2924  0.3174  0.0887
12354TIP3    H258554   0.606   1.850   0.075  0.4701 -0.0604  1.6841
12355TIP3   OH258555   5.373   1.808   3.734  0.2001  0.4123  0.0817
12355TIP3    H158556   5.368   1.900   3.762  0.5547  0.6608 -0.6434
12355TIP3    H258557   5.448   1.806   3.674  1.4936 -0.7830  1.7096
12356TIP3   OH258558   0.411   0.981  11.455 -0.0098  0.7935 -0.1895
12356TIP3    H158559   0.446   0.965  11.368  1.0517 -1.3598  0.6058
12356TIP3    H258560   0.424   0.899  11.502 -0.0120  2.1013  2.1861
12357TIP3   OH258561   6.551   1.910  16.908  0.2049  0.2737  0.3760
12357TIP3    H158562   6.560   1.975  16.977  2.0534  0.2523  0.1867
12357TIP3    H258563   6.573   1.957  16.827 -1.0937  0.0834 -0.1015
12358TIP3   OH258564   2.807   1.398  16.158  0.1729 -0.2443 -0.3502
12358TIP3    H158565   2.844   1.452  16.088  1.8903 -0.7898  0.1182
12358TIP3    H258566   2.816   1.451  16.237 -1.8350  0.4024 -0.5300
12359TIP3   OH258567   2.469   1.178   5.057 -0.3086  0.1171  0.3623
12359TIP3    H158568   2.542   1.236   5.078 -0.1896  0.2619 -0.4272
12359TIP3    H258569   2.465   1.178   4.961  0.5093 -2.1530  0.2828
12360TIP3   OH258570   3.649   2.308   0.343  0.3811  0.2397  0.3347
12360TIP3    H158571   3.637   2.255   0.264  0.6396  0.9837 -0.2137
12360TIP3    H258572   3.722   2.268   0.389 -0.7180 -1.0953  0.9652
12361TIP3   OH258573   2.395   0.900  14.051 -0.3968  0.1030 -0.8514
12361TIP3    H158574   2.471   0.921  13.997 -1.2993  0.7038 -1.9077
12361TIP3    H258575   2.432   0.868  14.133  0.9991  2.6083 -0.4603
12362TIP3   OH258576   5.506   5.029  11.204  0.1979  0.1808  0.3078
12362TIP3    H158577   5.520   5.114  11.246  0.2683  0.1943  0.2584
12362TIP3    H258578   5.560   5.032  11.125 -0.2052  0.2892  0.0374
12363TIP3   OH258579   5.848   5.997  17.022  0.5634  0.3482  0.0695
12363TIP3    H158580   5.903   5.919  17.033  0.7668  0.6287  0.9917
12363TIP3    H258581   5.783   5.970  16.956  0.7486 -0.5422  0.2375
12364TIP3   OH258582   0.815   2.833   3.643  0.0512 -0.0079 -0.3933
12364TIP3    H158583   0.782   2.825   3.553  0.7098  1.6772 -0.8007
12364TIP3    H258584   0.908   2.849   3.632 -0.2021  2.1577  0.5319
12365TIP3   OH258585   3.018   2.870   0.497  0.2529 -0.1632  0.1534
12365TIP3    H158586   2.948   2.932   0.521  0.7737  0.5583 -0.1744
12365TIP3    H258587   2.971   2.796   0.459 -0.3874 -0.0226  0.6488
12366TIP3   OH258588   4.762   1.434  17.082  0.7977 -0.4816 -0.5380
12366TIP3    H158589   4.775   1.528  17.091 -1.0057 -0.2956  0.3512
12366TIP3    H258590   4.849   1.396  17.095  2.1198  1.2218 -3.7726
12367TIP3   OH258591   1.956   1.330   2.902 -0.2813 -0.1926  0.1269
12367TIP3    H158592   2.033   1.386   2.892 -0.8587  0.5900  0.0142
12367TIP3    H258593   1.983   1.264   2.966  0.1946  0.5910  0.7475
12368TIP3   OH258594   6.379   3.005  13.978 -0.4654  0.5721  0.4341
12368TIP3    H158595   6.472   3.019  13.964 -0.0521 -0.2137  2.2004
12368TIP3    H258596   6.347   3.088  14.014 -0.3637  0.7130  0.1994
12369TIP3   OH258597   4.511   3.405  11.721  0.8061 -0.4451  0.3043
12369TIP3    H158598   4.484   3.325  11.767 -0.8426  0.2216  0.5430
12369TIP3    H258599   4.432   3.433  11.674  1.2855  1.1877  0.4558
12370TIP3   OH258600   1.613   4.984  15.977  0.3922 -0.7178 -0.3292
12370TIP3    H158601   1.617   4.897  15.938  0.4995 -0.6619 -0.4458
12370TIP3    H258602   1.662   4.976  16.059  2.8730 -0.0830 -1.6944
12371TIP3   OH258603   1.980   4.893  13.878 -0.4387 -0.0157 -0.2050
12371TIP3    H158604   1.962   4.837  13.803  0.5407  0.0013 -0.4580
12371TIP3    H258605   1.895   4.932  13.900 -1.0967 -1.4365 -0.1539
12372TIP3   OH258606   3.661   4.807  15.663  0.0881  0.1437  0.1818
12372TIP3    H158607   3.623   4.742  15.605 -0.6643  1.3576 -0.7033
12372TIP3    H258608   3.633   4.891  15.628  3.0865  1.0766 -0.1699
12373TIP3   OH258609   4.730   0.444  11.289  0.2473 -0.0606  0.3448
12373TIP3    H158610   4.800   0.465  11.351  1.2206 -0.1492 -0.7028
12373TIP3    H258611   4.752   0.493  11.210 -1.4130  0.6705  0.3242
12374TIP3   OH258612   1.436   3.046   0.336  0.0701 -0.1304 -0.5503
12374TIP3    H158613   1.420   3.121   0.393 -0.3605  0.3433 -1.2905
12374TIP3    H258614   1.380   2.976   0.371  0.1274  0.0302 -0.1375
12375TIP3   OH258615   5.327   4.129   4.742 -0.4353  0.3504 -0.3659
12375TIP3    H158616   5.308   4.186   4.816 -0.7624  0.7514 -0.7562
12375TIP3    H258617   5.385   4.180   4.686  1.1587 -0.5552  0.4040
12376TIP3   OH258618   1.759   1.582   4.943  0.1954  0.3170 -0.4210
12376TIP3    H158619   1.719   1.500   4.915  0.9657 -1.0381  2.2398
12376TIP3    H258620   1.688   1.647   4.937 -1.6649 -1.4694  1.6001
12377TIP3   OH258621   5.894   2.148   2.569  0.2525  0.6561  0.2929
12377TIP3    H158622   5.908   2.179   2.658  0.6474 -0.9811  0.8267
12377TIP3    H258623   5.819   2.089   2.576 -1.2743  2.4298 -0.9162
12378TIP3   OH258624   5.978   0.457  15.681 -0.5378  0.0886  0.6367
12378TIP3    H158625   5.898   0.506  15.699 -0.2316  0.5010  0.8724
12378TIP3    H258626   5.973   0.438  15.587 -0.5360  0.8023  0.4825
12379TIP3   OH258627   0.639   3.522  14.382  0.2118 -0.3433 -0.3636
12379TIP3    H158628   0.565   3.561  14.429  0.2072 -0.2105 -0.4823
12379TIP3    H258629   0.706   3.590  14.381 -0.4047  0.2651 -2.0322
12380TIP3   OH258630   2.807   3.432  16.870  0.3130 -0.4133 -0.1784
12380TIP3    H158631   2.891   3.477  16.853 -0.7256  1.4192 -0.6403
12380TIP3    H258632   2.749   3.462  16.800 -0.6762 -1.8636 -0.0028
12381TIP3   OH258633   5.554   1.896   5.133  0.5630  0.2703 -0.0227
12381TIP3    H158634   5.587   1.897   5.223 -2.1064  0.6295  1.0167
12381TIP3    H258635   5.570   1.984   5.100  1.9113  0.0203 -0.0616
12382TIP3   OH258636   5.920   1.880  15.076 -0.4257 -0.3999 -0.2929
12382TIP3    H158637   5.947   1.835  15.156 -1.8537 -0.5525  0.1166
12382TIP3    H258638   5.862   1.950  15.106  1.3940  1.4440 -0.9640
12383TIP3   OH258639   3.667   3.321   2.617 -0.1093  0.1029  0.2791
12383TIP3    H158640   3.655   3.322   2.712 -0.5278  1.2049  0.2185
12383TIP3    H258641   3.727   3.393   2.599  1.5149 -1.3024 -0.1093
12384TIP3   OH258642   4.919   3.958  16.514  0.2554  0.2613  0.5574
12384TIP3    H158643   4.913   3.946  16.420  2.6165  2.2262  0.0967
12384TIP3    H258644   4.894   4.050  16.528 -1.3270 -0.3594  2.0192
12385TIP3   OH258645   2.765   3.741  14.107 -0.1213 -0.0827 -0.0852
12385TIP3    H158646   2.851   3.780  14.121  0.3954 -1.1091 -0.4311
12385TIP3    H258647   2.755   3.678  14.178 -0.6331  0.1210  0.0236
12386TIP3   OH258648   2.610   1.700   0.280  0.3549 -0.1663  0.3889
12386TIP3    H158649   2.599   1.628   0.343  1.0671 -0.5589  0.0718
12386TIP3    H258650   2.537   1.691   0.219  0.6479 -0.8450  0.1358
12387TIP3   OH258651   0.440   2.029   3.768 -0.3265  0.0373  0.4879
12387TIP3    H158652   0.412   2.054   3.857 -0.4479 -0.9253  0.7231
12387TIP3    H258653   0.534   2.044   3.768 -0.1695 -0.9175  1.1078
12388TIP3   OH258654   1.935   5.241  15.507 -0.5582 -0.0877 -0.0453
12388TIP3    H158655   1.876   5.260  15.580 -0.6239 -0.3695 -0.0227
12388TIP3    H258656   1.943   5.324  15.460  0.9005  0.5613  1.3051
12389TIP3   OH258657   6.277   3.156   3.132  0.2078  0.0187 -0.1362
12389TIP3    H158658   6.235   3.114   3.057 -2.2464  0.0183  1.1770
12389TIP3    H258659   6.220   3.134   3.206  3.2347 -1.0599  1.9769
12390TIP3   OH258660   4.564   6.813   0.311  0.1833 -0.0526  0.2163
12390TIP3    H158661   4.614   6.773   0.383 -0.9189  0.3626  1.2305
12390TIP3    H258662   4.539   6.899   0.345  0.9564  0.7695 -1.2595
12391TIP3   OH258663   2.133   2.495   6.420  0.1725  0.5479  0.0431
12391TIP3    H158664   2.094   2.580   6.441  0.7700  1.1288 -1.1383
12391TIP3    H258665   2.226   2.505   6.441  0.2312  0.1671 -0.0330
12392TIP3   OH258666   6.503   1.276  13.847 -0.5698  0.6098  0.0231
12392TIP3    H158667   6.564   1.282  13.774 -0.7605  2.6050 -0.0025
12392TIP3    H258668   6.466   1.187  13.840  0.2840  0.3574 -1.5894
12393TIP3   OH258669   4.502   3.898  12.547  0.0913  1.0500  0.3201
12393TIP3    H158670   4.522   3.881  12.454  0.3882  0.8035  0.4266
12393TIP3    H258671   4.530   3.818  12.592 -0.5548  0.9571  0.5550
12394TIP3   OH258672   2.379   0.502   1.877  0.1535  0.2346  0.1150
12394TIP3    H158673   2.292   0.466   1.890 -0.0295  0.5834 -0.1341
12394TIP3    H258674   2.428   0.432   1.833  0.4314 -0.5038  1.5649
12395TIP3   OH258675   6.346   1.694   2.752  0.1561 -0.4506  0.4694
12395TIP3    H158676   6.441   1.689   2.763  0.3572 -1.1879 -1.3477
12395TIP3    H258677   6.316   1.748   2.825  1.8526 -1.0490  1.6562
12396TIP3   OH258678   2.764   3.183   0.002 -0.3685  0.6621  0.1571
12396TIP3    H158679   2.688   3.188  -0.056  1.1302 -0.9754 -2.0234
12396TIP3    H258680   2.839   3.203  -0.054  1.0851 -0.4784  1.6354
12397TIP3   OH258681   6.173   1.052   1.266 -0.1928  1.0109  0.0071
12397TIP3    H158682   6.200   1.048   1.174  0.6198  0.6895  0.2600
12397TIP3    H258683   6.081   1.080   1.263 -0.6567 -0.5556 -0.9764
12398TIP3   OH258684   2.218   3.574   2.473  0.2762  0.6913  0.2001
12398TIP3    H158685   2.296   3.518   2.478 -0.3102  0.0246  2.3232
12398TIP3    H258686   2.187   3.564   2.383  2.8140  1.2421 -0.8039
12399TIP3   OH258687   5.027   5.093   5.780  0.3173 -0.4709  0.5738
12399TIP3    H158688   5.008   5.133   5.865 -1.3093  0.2660 -0.1037
12399TIP3    H258689   4.976   5.012   5.779  0.5115 -0.5924  0.3996
12400TIP3   OH258690   0.265   5.283   0.764  0.2603  0.0111 -0.1313
12400TIP3    H158691   0.259   5.377   0.775  1.6850  0.4471 -2.7128
12400TIP3    H258692   0.355   5.262   0.789  0.5689 -0.3330 -1.4537
12401TIP3   OH258693   2.584   2.645   0.462  0.0413 -0.7197  0.3143
12401TIP3    H158694   2.524   2.570   0.466 -2.3433  1.0113 -1.2675
12401TIP3    H258695   2.579   2.683   0.550 -1.9643 -0.0664 -0.0393
12402TIP3   OH258696   4.522   4.614  16.169 -0.5764 -0.1036  0.2149
12402TIP3    H158697   4.584   4.684  16.186 -0.4845  0.1081 -0.9408
12402TIP3    H258698   4.445   4.637  16.221 -0.6740  1.0430 -0.4056
12403TIP3   OH258699   6.457   6.114   3.575 -0.6141 -0.1131  0.1533
12403TIP3    H158700   6.407   6.150   3.648  0.8260  3.1104 -0.3798
12403TIP3    H258701   6.423   6.159   3.497  2.5772  1.6493 -0.2924
12404TIP3   OH258702   4.725   4.586   5.656 -0.1618  0.7900 -0.0664
12404TIP3    H158703   4.809   4.542   5.670  1.2489  3.1674 -0.7164
12404TIP3    H258704   4.660   4.518   5.671  1.8936 -1.3346 -0.3883
12405TIP3   OH258705   3.342   1.753  14.429 -0.4285 -0.1854 -0.0431
12405TIP3    H158706   3.253   1.767  14.397 -0.3415 -1.1775 -0.7575
12405TIP3    H258707   3.378   1.686  14.371  0.3148 -0.7918  1.1003
12406TIP3   OH258708   0.322   0.651   6.024  0.2093 -0.4678  0.3675
12406TIP3    H158709   0.271   0.571   6.008  1.5058 -1.3022  0.3033
12406TIP3    H258710   0.324   0.659   6.120  0.8696 -1.0594  0.4144
12407TIP3   OH258711   3.781   3.620  16.451 -0.2678  0.3225  0.2414
12407TIP3    H158712   3.854   3.632  16.391  1.9618 -0.6189  2.7079
12407TIP3    H258713   3.790   3.689  16.516 -1.0203 -0.3494  1.0896
12408TIP3   OH258714   4.599   3.724   4.546 -0.1830  0.0961 -0.0625
12408TIP3    H158715   4.581   3.673   4.467 -0.9946 -1.0825  0.8636
12408TIP3    H258716   4.604   3.815   4.516  0.5592 -0.4389 -1.6240
12409TIP3   OH258717   4.680   4.199   0.638  0.4831  0.0112 -0.2139
12409TIP3    H158718   4.700   4.213   0.545  0.4010  0.4791 -0.1627
12409TIP3    H258719   4.644   4.110   0.642 -0.5137  0.3852 -0.7893
12410TIP3   OH258720   1.742   6.734  11.319 -0.1833 -0.3582 -0.1522
12410TIP3    H158721   1.691   6.677  11.261 -3.0335  2.3372 -0.4079
12410TIP3    H258722   1.678   6.768  11.382  2.1588 -0.2756  2.2637
12411TIP3   OH258723   1.469   5.029  13.353  0.1455 -0.1160  0.6021
12411TIP3    H158724   1.379   5.004  13.375  0.6624 -0.5964  2.2294
12411TIP3    H258725   1.470   5.124  13.363 -0.3513 -0.0202 -0.1313
12412TIP3   OH258726   0.772   2.974  15.204  0.2342  0.3278  0.0435
12412TIP3    H158727   0.759   2.885  15.236  0.3811 -0.1010 -1.0517
12412TIP3    H258728   0.688   3.017  15.217  0.1986  0.0707  0.6932
12413TIP3   OH258729   2.336   1.984   4.912 -0.5529  0.0621  0.1525
12413TIP3    H158730   2.390   2.030   4.848  1.9930 -1.1451  1.3817
12413TIP3    H258731   2.272   2.049   4.941 -0.2441  1.2984 -1.8530
12414TIP3   OH258732   5.688   0.888  12.789  0.8174  0.5293  0.8410
12414TIP3    H158733   5.628   0.830  12.742  1.9749  0.8935 -1.1425
12414TIP3    H258734   5.640   0.971  12.797 -0.1508 -0.1264  2.1190
12415TIP3   OH258735   2.101   3.922  11.215 -0.0356 -0.8336 -0.3070
12415TIP3    H158736   2.104   3.830  11.191  0.8011 -0.6503 -0.9204
12415TIP3    H258737   2.015   3.933  11.257  0.0580 -1.9881  0.2023
12416TIP3   OH258738   3.274   6.145   5.843 -0.0959  0.1219 -0.2167
12416TIP3    H158739   3.207   6.205   5.811 -0.9295 -0.1956  0.8972
12416TIP3    H258740   3.250   6.127   5.934  0.7964 -0.9771 -0.1730
12417TIP3   OH258741   4.182   0.007  12.073 -0.7357 -0.3412 -0.3440
12417TIP3    H158742   4.125   0.080  12.097  0.9834  0.6677  0.8081
12417TIP3    H258743   4.153  -0.066  12.127  0.7065  0.8848  2.1431
12418TIP3   OH258744   6.199   4.028  13.650 -0.3742 -0.5672  0.1577
12418TIP3    H158745   6.167   3.984  13.728  0.9747 -2.2447 -0.2138
12418TIP3    H258746   6.225   4.115  13.681 -0.0830 -1.1306  1.5103
12419TIP3   OH258747   0.048   5.005   4.553 -0.1623 -0.0200 -0.3931
12419TIP3    H158748   0.126   4.960   4.588 -0.1524 -0.6229 -1.1711
12419TIP3    H258749   0.068   5.098   4.561  0.8423 -0.1737 -1.0289
12420TIP3   OH258750   2.518   3.206   5.537  0.0300 -0.0628 -0.0937
12420TIP3    H158751   2.515   3.280   5.597  0.0145 -0.2305  0.1156
12420TIP3    H258752   2.591   3.224   5.479  0.5766 -0.3129  0.5141
12421TIP3   OH258753   3.904   6.049  15.545  0.5491 -0.1152  0.4065
12421TIP3    H158754   3.933   5.973  15.494  1.0965  0.0378  0.4798
12421TIP3    H258755   3.809   6.041  15.548  0.3879  0.5222 -1.7111
12422TIP3   OH258756   4.277   3.515   0.613  0.4189 -0.7412 -0.0282
12422TIP3    H158757   4.341   3.467   0.666 -0.0821 -2.2603 -0.7699
12422TIP3    H258758   4.280   3.473   0.527 -0.7813 -0.1080 -0.3925
12423TIP3   OH258759   4.434   4.530   1.431 -0.0099 -0.1772 -0.0288
12423TIP3    H158760   4.433   4.438   1.406  0.5487 -0.3972  0.7666
12423TIP3    H258761   4.513   4.566   1.391  0.6065 -0.4105  0.9534
12424TIP3   OH258762   1.582   3.144   5.059 -0.4648  0.3834  0.1297
12424TIP3    H158763   1.497   3.104   5.078 -0.7799  1.0439  0.1118
12424TIP3    H258764   1.576   3.232   5.097  0.4215  0.2256  0.6435
12425TIP3   OH258765   3.558   3.829   3.076 -0.4290 -0.7990 -0.8881
12425TIP3    H158766   3.612   3.908   3.076 -1.0907 -0.3389 -0.6792
12425TIP3    H258767   3.544   3.809   2.984 -0.7935 -0.2978 -0.9434
12426TIP3   OH258768   1.228   0.481   4.799  0.1950 -0.4186  0.3979
12426TIP3    H158769   1.310   0.431   4.792  1.6557  1.5303  2.6314
12426TIP3    H258770   1.247   0.563   4.755 -1.0211 -0.4514 -0.2074
12427TIP3   OH258771   0.867   1.506  11.945  0.1609 -0.1009  0.1873
12427TIP3    H158772   0.923   1.528  11.870  0.3330  0.3802  0.4548
12427TIP3    H258773   0.805   1.442  11.910  0.6267 -0.3384 -0.2143
12428TIP3   OH258774   5.628   1.059   0.079  0.0822 -0.9217 -0.0591
12428TIP3    H158775   5.587   1.029   0.160 -0.0720  1.5786  0.8098
12428TIP3    H258776   5.591   1.145   0.063  2.0964 -0.2528 -1.3687
12429TIP3   OH258777   3.109   3.092  10.825 -0.3184 -0.3777  0.2513
12429TIP3    H158778   3.051   3.156  10.865  0.3788  0.3874  0.0635
12429TIP3    H258779   3.054   3.047  10.760 -0.4359  1.0855 -0.6959
12430TIP3   OH258780   0.654   4.827  15.642  0.4041 -0.5007  0.2137
12430TIP3    H158781   0.559   4.832  15.635  0.5112  0.1699 -1.0252
12430TIP3    H258782   0.679   4.755  15.584  0.7348  0.1445 -0.4646
12431TIP3   OH258783   5.588   5.306  16.544 -0.0881 -0.0706 -0.1492
12431TIP3    H158784   5.604   5.381  16.601  1.6693 -0.3996 -0.1645
12431TIP3    H258785   5.520   5.255  16.588 -2.6071  2.4340 -1.0381
12432TIP3   OH258786   6.426   3.811   4.726  0.3499 -0.2816  0.3859
12432TIP3    H158787   6.423   3.740   4.790  0.2578 -1.7249 -1.1799
12432TIP3    H258788   6.499   3.788   4.669  1.3961  1.7670  0.8244
12433TIP3   OH258789   3.068   4.054  15.953  0.2755 -0.0451 -0.1697
12433TIP3    H158790   3.064   4.146  15.976  1.5924 -0.0084 -0.0931
12433TIP3    H258791   3.156   4.040  15.919 -0.1676 -1.1009 -0.9359
12434TIP3   OH258792   3.605   1.423   0.181 -0.5986  0.6949  0.2656
12434TIP3    H158793   3.575   1.479   0.253  0.8154  1.5773  0.1829
12434TIP3    H258794   3.667   1.478   0.133 -0.0123 -0.5912 -0.4540
12435TIP3   OH258795   5.271   5.793   1.420 -0.1523 -0.5427 -0.3444
12435TIP3    H158796   5.216   5.746   1.483  2.5206  0.1649  2.6256
12435TIP3    H258797   5.281   5.732   1.347 -0.7170 -2.6862  1.3121
12436TIP3   OH258798   5.493   1.087  11.233  0.0498 -0.9224 -0.2789
12436TIP3    H158799   5.416   1.034  11.253 -0.3921 -1.0733 -2.2073
12436TIP3    H258800   5.487   1.102  11.138  1.0817  1.1414 -0.0427
12437TIP3   OH258801   6.030   3.506   1.152 -0.3761  0.0688  0.4105
12437TIP3    H158802   5.983   3.463   1.222 -0.7454  1.5506  1.0972
12437TIP3    H258803   6.016   3.600   1.167  1.6772  0.5001 -0.1326
12438TIP3   OH258804   5.488   6.350   5.397 -0.4326 -0.3361  0.5721
12438TIP3    H158805   5.500   6.330   5.490  0.0951 -1.0357  0.3643
12438TIP3    H258806   5.510   6.268   5.353  1.1344  0.5120 -0.2761
12439TIP3   OH258807   0.278   4.744  14.394  0.2912  0.6541  0.0656
12439TIP3    H158808   0.224   4.717  14.320 -0.0047  1.2310  0.0697
12439TIP3    H258809   0.363   4.766  14.355 -0.1449  1.8483 -0.2259
12440TIP3   OH258810   5.227   5.761  14.022 -0.1626 -0.7427  0.0706
12440TIP3    H158811   5.258   5.673  14.000 -1.1601 -1.5593  1.8691
12440TIP3    H258812   5.189   5.794  13.940  0.9680 -1.6552 -0.8305
12441TIP3   OH258813   1.685   6.417  15.500  0.3243 -0.1645  0.3876
12441TIP3    H158814   1.698   6.400  15.593 -0.1972  0.3762  0.5639
12441TIP3    H258815   1.594   6.392  15.483  0.4470 -0.3604 -0.0038
12442TIP3   OH258816   2.995   0.878  13.217 -0.3675 -0.0417 -0.5044
12442TIP3    H158817   2.952   0.833  13.145  0.3047 -0.9666 -0.3351
12442TIP3    H258818   3.089   0.869  13.200 -0.2000  2.9010 -1.4517
12443TIP3   OH258819   6.733   0.537  11.881  0.0520  0.8157  0.1486
12443TIP3    H158820   6.645   0.565  11.858 -0.1451 -0.1504 -0.2789
12443TIP3    H258821   6.786   0.560  11.805 -0.3096 -0.9340 -0.6562
12444TIP3   OH258822   4.067   3.721  12.776 -0.0932  0.1724  0.2248
12444TIP3    H158823   4.039   3.710  12.685 -0.9929 -1.0983  0.6372
12444TIP3    H258824   3.993   3.690  12.828 -0.2862  2.5404  1.4408
12445TIP3   OH258825   6.057   2.511   1.085 -0.3563  0.0670 -0.1907
12445TIP3    H158826   6.077   2.473   0.999 -0.7715 -0.0046 -0.2588
12445TIP3    H258827   6.142   2.528   1.125 -0.1614  1.0086 -1.0129
12446TIP3   OH258828   2.281   3.391  11.234  0.3929 -0.2289  0.0589
12446TIP3    H158829   2.291   3.432  11.147  0.2213 -0.2280  0.0397
12446TIP3    H258830   2.318   3.455  11.294  1.3023 -0.6068 -0.1012
12447TIP3   OH258831   4.808   1.239   5.551  0.0962  0.0153 -0.0128
12447TIP3    H158832   4.822   1.216   5.642 -0.6702 -0.6891 -0.0758
12447TIP3    H258833   4.776   1.329   5.554 -0.0048 -0.0357  0.4109
12448TIP3   OH258834   4.648   1.169   0.815  0.3839 -0.5737 -0.5794
12448TIP3    H158835   4.724   1.224   0.836  0.3608  0.2309 -2.4476
12448TIP3    H258836   4.682   1.080   0.812  0.7364 -0.5047  1.0070
12449TIP3   OH258837   6.082   5.355  10.930 -0.3896  0.3384  0.5636
12449TIP3    H158838   6.020   5.297  10.887 -0.7274  0.4285  0.9336
12449TIP3    H258839   6.030   5.429  10.961 -0.1427  0.3026  1.0815
12450TIP3   OH258840   0.973   6.521   3.597  0.2412  0.0178 -0.3099
12450TIP3    H158841   1.039   6.453   3.588 -0.0679 -0.1714 -1.3129
12450TIP3    H258842   1.017   6.601   3.572  0.8663  0.3536  1.7811
12451TIP3   OH258843   6.340   3.376   4.339  0.0088  0.2523  0.0721
12451TIP3    H158844   6.313   3.309   4.276 -0.1889  0.1280  0.2901
12451TIP3    H258845   6.434   3.360   4.351  0.1084  0.4581 -0.4070
12452TIP3   OH258846   6.643   3.848   3.814 -0.4822 -0.6589  0.1527
12452TIP3    H158847   6.670   3.938   3.834 -0.3529 -0.3442 -1.3557
12452TIP3    H258848   6.706   3.818   3.749 -2.5886 -0.5842 -2.0152
12453TIP3   OH258849   6.373   2.368   4.099 -0.2360 -0.0026 -0.1485
12453TIP3    H158850   6.352   2.450   4.055 -2.4161 -0.9341 -0.8944
12453TIP3    H258851   6.352   2.384   4.191 -1.1876  0.1127 -0.3793
12454TIP3   OH258852   3.591   6.299  14.292 -0.6439 -0.2167 -0.1341
12454TIP3    H158853   3.605   6.352  14.214 -1.6466  1.7102  0.9652
12454TIP3    H258854   3.666   6.240  14.295  0.7790  1.5142 -1.0581
12455TIP3   OH258855   4.338   3.735   1.452  0.2971  0.0904  0.2630
12455TIP3    H158856   4.380   3.804   1.504 -0.9636  0.3904  0.8878
12455TIP3    H258857   4.411   3.694   1.404  1.1137  1.5306  0.2478
12456TIP3   OH258858   2.811   0.056  14.142 -0.1682 -0.2268 -0.4303
12456TIP3    H158859   2.763  -0.027  14.141 -1.7796  0.6785  0.3198
12456TIP3    H258860   2.793   0.093  14.228  0.4361  0.9668 -0.8090
12457TIP3   OH258861   5.657   3.293   2.253 -0.1648 -0.3751 -0.3511
12457TIP3    H158862   5.636   3.252   2.337  0.7195 -0.2095 -0.0473
12457TIP3    H258863   5.610   3.376   2.254  1.6417  0.6590  0.9396
12458TIP3   OH258864   3.600   6.006   3.786  0.0383 -0.0024  0.1617
12458TIP3    H158865   3.662   6.032   3.718  0.9375 -0.4987  0.7812
12458TIP3    H258866   3.601   5.910   3.783  0.3013 -0.0332  1.0664
12459TIP3   OH258867   4.732   4.542   4.564 -0.4069 -0.5594  0.6577
12459TIP3    H158868   4.819   4.571   4.592  0.1603 -0.6220 -1.0281
12459TIP3    H258869   4.674   4.569   4.635  0.2042  4.0966 -0.5041
12460TIP3   OH258870   0.974   5.088  17.017 -0.5390  0.2959  0.1058
12460TIP3    H158871   0.884   5.061  17.037 -1.2161  1.1459 -1.6592
12460TIP3    H258872   1.027   5.011  17.036 -1.3735  0.3667  3.0249
12461TIP3   OH258873   4.245   5.832  12.623  0.3608  0.4305  0.5318
12461TIP3    H158874   4.170   5.807  12.677 -0.0038 -0.7787 -0.5141
12461TIP3    H258875   4.291   5.750  12.606  2.6853  1.3236  2.2420
12462TIP3   OH258876   1.860   2.265   0.709 -0.2852 -0.4233 -0.6310
12462TIP3    H158877   1.869   2.176   0.675  2.3285  0.0192 -1.2102
12462TIP3    H258878   1.846   2.319   0.631 -0.5494 -0.1703 -0.4070
12463TIP3   OH258879   5.162   5.795  12.883  0.1525  0.1792 -0.1938
12463TIP3    H158880   5.090   5.793  12.819 -0.8426  1.0281  0.8814
12463TIP3    H258881   5.142   5.871  12.938  0.2345 -1.3931  2.0352
12464TIP3   OH258882   3.205   1.237   2.391 -0.0818 -0.2333 -0.0149
12464TIP3    H158883   3.169   1.301   2.453 -0.5398 -1.4890  1.0446
12464TIP3    H258884   3.289   1.274   2.363  0.4506  0.0331  1.8848
12465TIP3   OH258885   5.932   2.882   0.934  0.3516 -0.2568  0.0167
12465TIP3    H158886   5.881   2.862   1.013  0.4353 -2.4309 -0.4588
12465TIP3    H258887   6.023   2.874   0.962  0.3793 -1.3702 -0.3648
12466TIP3   OH258888   3.668   3.380  15.604  0.1468 -0.1172 -0.3517
12466TIP3    H158889   3.588   3.352  15.560  0.9249  0.1743 -1.9944
12466TIP3    H258890   3.724   3.302  15.604 -0.4855 -0.5796  1.6240
12467TIP3   OH258891   3.138   3.579  14.104  0.4595  0.2370 -0.2668
12467TIP3    H158892   3.158   3.651  14.043  0.0827  1.5791  1.1650
12467TIP3    H258893   3.106   3.623  14.183 -1.4912 -1.5945 -0.0053
12468TIP3   OH258894   4.663   5.834   2.346 -0.0129 -0.4257 -0.2472
12468TIP3    H158895   4.754   5.861   2.361  0.0920 -0.9497  0.0673
12468TIP3    H258896   4.612   5.915   2.354  0.4274 -0.1274 -0.4361
12469TIP3   OH258897   3.431   3.604   0.454  0.1715  0.5269 -0.2335
12469TIP3    H158898   3.361   3.541   0.466 -0.0455  0.7233 -0.4596
12469TIP3    H258899   3.389   3.679   0.412 -0.0719  1.7415  2.0909
12470TIP3   OH258900   3.591   6.246  15.183  0.1762  0.2048  0.1545
12470TIP3    H158901   3.580   6.199  15.100  2.2314 -0.8691  0.4583
12470TIP3    H258902   3.551   6.190  15.249  0.5230 -0.0014  0.1894
12471TIP3   OH258903   3.408   0.858   1.830 -0.3829  0.7111  0.0057
12471TIP3    H158904   3.367   0.799   1.893 -0.3062  1.4461  0.7666
12471TIP3    H258905   3.340   0.924   1.812 -0.6752  0.0641 -1.2901
12472TIP3   OH258906   2.054   3.624   0.198 -0.0681 -0.4030 -0.0952
12472TIP3    H158907   2.107   3.545   0.184  0.6209  0.1257 -0.4876
12472TIP3    H258908   1.968   3.602   0.161  0.6078 -0.3973 -1.7186
12473TIP3   OH258909   3.400   0.808   5.820 -0.3511 -0.2085 -0.0479
12473TIP3    H158910   3.427   0.773   5.735 -2.0106 -0.1988 -0.5949
12473TIP3    H258911   3.308   0.828   5.809 -0.6838 -0.5919  1.9033
12474TIP3   OH258912   1.862   2.124  12.055  0.3316  0.1153  0.6398
12474TIP3    H158913   1.880   2.216  12.070 -0.4767  0.3200  0.3830
12474TIP3    H258914   1.829   2.121  11.965 -0.4260 -0.3167  0.9324
12475TIP3   OH258915   1.779   1.507  12.065 -0.0645  0.5626 -0.1449
12475TIP3    H158916   1.724   1.582  12.042 -0.1477  0.4074 -0.4536
12475TIP3    H258917   1.737   1.433  12.022  0.4636  0.4667 -0.5030
12476TIP3   OH258918   3.603   1.309   6.578  0.3183 -0.3715 -0.9636
12476TIP3    H158919   3.592   1.234   6.519 -0.8897  0.8896 -2.3740
12476TIP3    H258920   3.521   1.312   6.628  0.1859  0.2568 -1.2121
12477TIP3   OH258921   4.374   0.424   5.186 -0.5597 -0.1899 -0.5056
12477TIP3    H158922   4.345   0.350   5.240 -1.9545 -0.0153 -0.9803
12477TIP3    H258923   4.411   0.384   5.108 -1.5237 -0.4087 -0.8680
12478TIP3   OH258924   5.007   2.427  12.704  0.0581  0.5876 -0.7091
12478TIP3    H158925   5.101   2.409  12.712 -0.2823 -0.4381  1.1073
12478TIP3    H258926   4.998   2.517  12.734  0.2611  0.2081  0.5040
12479TIP3   OH258927   3.580   3.916   5.916 -0.6466  0.3066  0.0149
12479TIP3    H158928   3.566   3.924   5.822  0.1038  1.0038 -0.0399
12479TIP3    H258929   3.610   3.826   5.929 -0.9519  0.1504 -0.3892
12480TIP3   OH258930   1.827   2.157  10.624 -0.0983 -0.0136  0.4152
12480TIP3    H158931   1.879   2.127  10.699  0.1488  0.9686  0.6562
12480TIP3    H258932   1.791   2.241  10.653 -0.5909  0.0259 -0.3073
12481TIP3   OH258933   1.106   1.889  16.769 -0.4269 -0.1035  0.2535
12481TIP3    H158934   1.189   1.887  16.817  0.7623 -0.1476 -1.7255
12481TIP3    H258935   1.073   1.799  16.776 -0.6493  0.0685  1.5871
12482TIP3   OH258936   1.784   5.685   6.617  0.0721  0.1554 -0.2411
12482TIP3    H158937   1.837   5.728   6.684  0.7019 -1.7495  0.5088
12482TIP3    H258938   1.705   5.658   6.662  0.8543 -1.8658 -0.0554
12483TIP3   OH258939   2.765   4.552   1.070 -0.0044  0.0447 -0.1089
12483TIP3    H158940   2.761   4.552   1.165  1.9683  0.5425  0.0019
12483TIP3    H258941   2.754   4.461   1.045 -1.3948  0.0267  0.5427
12484TIP3   OH258942   1.032   2.060   5.550 -0.5209  0.2051  0.6729
12484TIP3    H158943   1.008   2.152   5.560  0.0863  0.4389 -0.0197
12484TIP3    H258944   1.125   2.057   5.569  0.2522  0.3464 -2.7072
12485TIP3   OH258945   3.310   5.262   3.984  0.1599  0.0791 -0.6876
12485TIP3    H158946   3.222   5.261   4.022  0.0981 -1.8817 -0.8107
12485TIP3    H258947   3.369   5.257   4.059  0.1292  0.3220 -0.6493
12486TIP3   OH258948   5.039   1.090   0.301 -0.1600  0.1771  0.4944
12486TIP3    H158949   5.055   1.110   0.393  0.3127  0.7171  0.2962
12486TIP3    H258950   5.123   1.058   0.268 -0.5351 -0.7826  0.4463
12487TIP3   OH258951   2.115   2.574   3.698  0.0515 -0.2471  0.0838
12487TIP3    H158952   2.159   2.575   3.783  2.2435 -1.9641 -0.9581
12487TIP3    H258953   2.036   2.522   3.711 -0.8820  1.4869  1.6006
12488TIP3   OH258954   3.456   4.090   1.990  0.0242 -0.8281  0.1409
12488TIP3    H158955   3.386   4.088   2.056  0.4450  0.4161  0.6501
12488TIP3    H258956   3.535   4.107   2.041  0.3158  0.4216 -0.7165
12489TIP3   OH258957   2.578   5.843  16.510 -0.0856 -0.1680 -0.2337
12489TIP3    H158958   2.543   5.912  16.566 -2.3891 -1.1630 -0.3862
12489TIP3    H258959   2.517   5.839  16.436  1.1254 -1.0270 -1.2200
12490TIP3   OH258960   5.773   1.559  13.313  0.1890  0.4242  0.4934
12490TIP3    H158961   5.747   1.468  13.302  0.2876  0.2896  1.3317
12490TIP3    H258962   5.764   1.576  13.407 -0.1143  1.3661  0.3080
12491TIP3   OH258963   3.950   3.766  13.208  0.3360  0.1645  0.0021
12491TIP3    H158964   3.987   3.854  13.202 -1.2701  0.9445  0.8944
12491TIP3    H258965   4.017   3.708  13.173  1.9123  1.6235  0.5819
12492TIP3   OH258966   1.095   5.133   0.820 -0.4887  0.2151  0.3401
12492TIP3    H158967   1.156   5.100   0.754 -1.1786  0.8633 -0.6434
12492TIP3    H258968   1.147   5.194   0.873 -0.2829  0.7909 -0.5112
12493TIP3   OH258969   4.844   1.708  14.954 -0.1060 -0.1568  0.5135
12493TIP3    H158970   4.793   1.638  14.994  0.7086 -0.4999  0.9687
12493TIP3    H258971   4.851   1.682  14.862 -1.4146  0.2951  0.2818
12494TIP3   OH258972   4.636   6.448  10.363 -0.3242 -0.4816  0.6558
12494TIP3    H158973   4.549   6.488  10.353 -1.2828 -2.4959  0.7075
12494TIP3    H258974   4.692   6.520  10.393 -2.2111  0.6055  1.7055
12495TIP3   OH258975   1.339   5.559   4.195  0.1708  0.0908  0.4562
12495TIP3    H158976   1.386   5.640   4.174  0.8556 -0.4733 -0.2330
12495TIP3    H258977   1.287   5.581   4.272  0.1947  1.2469  0.1545
12496TIP3   OH258978   0.058   5.439  12.610 -0.0553  0.4549 -0.4201
12496TIP3    H158979  -0.003   5.451  12.684 -0.6471 -0.8082 -0.6803
12496TIP3    H258980   0.001   5.437  12.533  0.3992  0.0745 -0.7424
12497TIP3   OH258981   3.159   3.775  12.139  0.5795  0.3247  0.2511
12497TIP3    H158982   3.142   3.860  12.179 -0.3957  1.3461 -2.2934
12497TIP3    H258983   3.211   3.795  12.061  2.0455 -1.6021  0.6991
12498TIP3   OH258984   3.403   3.868   3.716  0.2162  0.1420 -0.0204
12498TIP3    H158985   3.391   3.774   3.705 -2.1367  0.3330  0.6562
12498TIP3    H258986   3.431   3.899   3.630  0.4622 -1.0932 -0.3976
12499TIP3   OH258987   2.865   1.386   3.403 -0.6076  0.4720 -0.0986
12499TIP3    H158988   2.770   1.376   3.391 -0.5519  1.6828 -1.7891
12499TIP3    H258989   2.876   1.478   3.426  0.1287  0.1927  0.6921
12500TIP3   OH258990   4.082   2.963   6.626  0.1884  0.1060  0.0747
12500TIP3    H158991   4.005   2.965   6.568 -0.1658 -0.4503  0.5241
12500TIP3    H258992   4.124   2.879   6.606  0.3656  0.1570  0.2374
12501TIP3   OH258993   5.621   0.076   0.350  0.3500  0.0620 -0.7940
12501TIP3    H158994   5.574  -0.004   0.326  0.2637  0.1297 -0.8540
12501TIP3    H258995   5.609   0.134   0.274 -0.6147  0.5836 -0.2523
12502TIP3   OH258996   4.625   3.329  14.820  0.5140  0.5746  0.1242
12502TIP3    H158997   4.667   3.350  14.736 -0.2098  2.4203  0.2066
12502TIP3    H258998   4.642   3.406  14.875 -2.4941  1.1642  0.3325
12503TIP3   OH258999   4.676   0.817  14.868 -0.0701 -0.4514  0.6091
12503TIP3    H159000   4.734   0.747  14.841 -2.2473 -1.6750 -1.0006
12503TIP3    H259001   4.631   0.783  14.945 -1.0404 -0.8013 -0.1012
12504TIP3   OH259002   2.584   1.315   5.350  0.1434  0.1618  0.1309
12504TIP3    H159003   2.672   1.331   5.318  0.4833 -1.2927  0.3043
12504TIP3    H259004   2.539   1.273   5.277  0.0209 -0.3973  0.5243
12505TIP3   OH259005   5.817   6.007  14.183 -0.5673  0.2315  0.7603
12505TIP3    H159006   5.723   6.008  14.197 -0.6482  1.6170  0.2213
12505TIP3    H259007   5.840   6.098  14.165  0.4476 -0.4972 -1.8806
12506TIP3   OH259008   3.681   2.187  13.624  0.4746  0.1607  0.4611
12506TIP3    H159009   3.648   2.121  13.686 -0.7547  0.0677 -0.2943
12506TIP3    H259010   3.776   2.175  13.627  0.3070 -1.2393  0.7902
12507TIP3   OH259011   4.446   3.030   1.456  0.3049 -0.1105 -0.1669
12507TIP3    H159012   4.457   2.964   1.388  1.5483 -0.1878  0.1094
12507TIP3    H259013   4.488   2.993   1.533  3.7236  2.2353 -0.7954
12508TIP3   OH259014   4.780   1.850   1.828  0.8622 -0.2241  0.0888
12508TIP3    H159015   4.701   1.801   1.805  0.2708  0.7376  0.0595
12508TIP3    H259016   4.847   1.783   1.839  0.2149 -0.9925 -0.5895
12509TIP3   OH259017   1.541   0.343  14.412  0.2948 -0.2579 -0.0862
12509TIP3    H159018   1.478   0.399  14.457  0.3993  0.6120 -0.9938
12509TIP3    H259019   1.504   0.255  14.419 -1.8837  0.4389 -2.0001
12510TIP3   OH259020   4.714   4.943  16.516  0.6689  0.2628  0.0437
12510TIP3    H159021   4.681   4.868  16.468  0.6823  0.8979 -0.9637
12510TIP3    H259022   4.771   4.988  16.454 -1.6965  2.7854 -0.3923
12511TIP3   OH259023   5.151   1.552   4.377 -0.3787  0.3371  0.1590
12511TIP3    H159024   5.071   1.506   4.403  0.5900 -0.9639  0.9289
12511TIP3    H259025   5.125   1.644   4.371 -1.7355  0.0476  1.2436
12512TIP3   OH259026   6.216   0.106  15.147  0.2994  0.0623  0.0791
12512TIP3    H159027   6.158   0.063  15.083  0.8125 -0.1998 -0.2154
12512TIP3    H259028   6.164   0.110  15.227 -0.7128  1.2772 -0.6197
12513TIP3   OH259029   3.743   6.551   1.048 -0.5128 -0.0233 -0.0021
12513TIP3    H159030   3.771   6.541   0.957 -2.3711 -0.7916 -0.5068
12513TIP3    H259031   3.739   6.646   1.061  0.0778  0.0903 -0.6136
12514TIP3   OH259032   3.759   4.517  11.878 -0.3827  0.2279 -0.0050
12514TIP3    H159033   3.702   4.475  11.942  0.7305 -1.5825 -0.1577
12514TIP3    H259034   3.837   4.541  11.928 -0.1058  0.1049 -0.3780
12515TIP3   OH259035   4.002   0.836   1.708  0.2152 -0.0077  0.2515
12515TIP3    H159036   3.992   0.746   1.736 -1.3757  0.2248  0.4740
12515TIP3    H259037   3.997   0.833   1.612 -0.4046 -0.0862  0.2875
12516TIP3   OH259038   5.559   6.269   5.655  0.6886 -0.1341  0.1583
12516TIP3    H159039   5.633   6.329   5.655  0.5860  0.0316 -1.8665
12516TIP3    H259040   5.599   6.182   5.652  0.8229 -0.0547 -0.5589
12517TIP3   OH259041   3.689   5.389  15.531 -0.0064  0.6258  0.2834
12517TIP3    H159042   3.772   5.354  15.499  0.3184  2.5798 -1.0369
12517TIP3    H259043   3.694   5.377  15.626  0.8841 -1.1710  0.0442
12518TIP3   OH259044   5.422   0.595   0.304  0.5561 -0.0979 -0.3246
12518TIP3    H159045   5.459   0.515   0.340 -0.3767 -0.6495 -0.5530
12518TIP3    H259046   5.490   0.630   0.247  0.7521 -1.0523 -0.6904
12519TIP3   OH259047   5.269   2.488   6.141 -0.1742  0.0945 -0.2566
12519TIP3    H159048   5.358   2.466   6.111  0.5513  1.7574  0.5759
12519TIP3    H259049   5.242   2.412   6.192  1.8965  0.6495  1.7920
12520TIP3   OH259050   6.612   4.732  16.458  0.0128 -0.0103  0.8987
12520TIP3    H159051   6.602   4.740  16.553 -0.6598 -1.9184  1.0022
12520TIP3    H259052   6.527   4.702  16.427  0.7745 -1.2368 -0.0664
12521TIP3   OH259053   1.085   1.335  12.219 -0.0295 -0.2100 -0.0203
12521TIP3    H159054   1.122   1.292  12.142  1.6004  3.5686 -1.4987
12521TIP3    H259055   1.016   1.391  12.184  0.2569  1.0275  1.3154
12522TIP3   OH259056   2.948   0.049   1.744 -0.5718 -0.1153 -0.3118
12522TIP3    H159057   2.929   0.130   1.697  0.4805 -0.0995 -0.7065
12522TIP3    H259058   2.881  -0.012   1.714 -1.3452  0.5926 -0.0444
12523TIP3   OH259059   1.835   5.826  13.993 -0.0964  0.8925  0.7745
12523TIP3    H159060   1.876   5.866  13.916 -0.1737  2.1355  1.3577
12523TIP3    H259061   1.905   5.772  14.032  0.1783  0.8863  0.2704
12524TIP3   OH259062   1.305   3.153  11.409 -0.4888 -0.1245 -0.4159
12524TIP3    H159063   1.209   3.156  11.410 -0.4640  1.6092 -2.1352
12524TIP3    H259064   1.327   3.109  11.327  0.2149  1.3377 -1.0297
12525TIP3   OH259065   3.128   4.016  10.925  0.0863  0.1621 -0.0804
12525TIP3    H159066   3.150   3.978  10.840 -0.4403 -1.2591  0.4014
12525TIP3    H259067   3.061   3.957  10.961 -2.3856  2.7831 -0.2788
12526TIP3   OH259068   1.774   5.315  14.893 -0.2176  0.8816  0.6106
12526TIP3    H159069   1.700   5.258  14.913 -1.0688  1.9588  0.5887
12526TIP3    H259070   1.843   5.256  14.862 -1.8410  0.0842 -1.5723
12527TIP3   OH259071   5.696   2.545  11.640  0.2179  0.0217 -0.2852
12527TIP3    H159072   5.684   2.544  11.735 -0.4375 -0.5277 -0.3692
12527TIP3    H259073   5.759   2.615  11.624 -2.0182  2.2004  0.2901
12528TIP3   OH259074   2.150   0.215  16.050  0.1612  0.5430  0.1713
12528TIP3    H159075   2.244   0.222  16.036 -0.0564  0.3782 -1.5097
12528TIP3    H259076   2.140   0.139  16.108  1.0317  0.3364  0.0608
12529TIP3   OH259077   0.292   4.250  15.642 -0.3409  0.1709  0.0394
12529TIP3    H159078   0.353   4.324  15.644 -0.2632  0.0654  1.7948
12529TIP3    H259079   0.218   4.277  15.696 -2.1848  0.5464 -2.5752
12530TIP3   OH259080   5.025   2.067  15.803  0.0444 -0.2181 -0.1418
12530TIP3    H159081   5.050   2.150  15.763 -0.1711 -0.7820 -1.4598
12530TIP3    H259082   4.953   2.089  15.861 -1.8300  0.1107 -2.5239
12531TIP3   OH259083   5.719   2.097   3.888  0.6996  0.1955 -0.3354
12531TIP3    H159084   5.636   2.124   3.849 -0.7684 -0.0020  2.4983
12531TIP3    H259085   5.781   2.096   3.815 -1.4557  1.7009 -2.2555
12532TIP3   OH259086   0.585   5.600  11.807 -0.4496  0.1044 -0.1523
12532TIP3    H159087   0.541   5.683  11.791  0.9695  0.5160 -2.0107
12532TIP3    H259088   0.513   5.538  11.823 -1.5362  1.4821  0.4389
12533TIP3   OH259089   6.815   0.874   4.766  0.1433 -0.4008  0.2942
12533TIP3    H159090   6.849   0.824   4.840  0.3460  2.1950  2.0136
12533TIP3    H259091   6.735   0.914   4.799 -0.9010 -0.9008 -1.5772
12534TIP3   OH259092   4.717   3.323  12.448 -0.7898 -0.3564 -0.1135
12534TIP3    H159093   4.752   3.264  12.382 -0.1372 -0.6684  0.5079
12534TIP3    H259094   4.724   3.410  12.408  1.0170 -0.3720  0.1169
12535TIP3   OH259095   0.562   4.319  11.250  0.2688  0.7298 -0.8645
12535TIP3    H159096   0.645   4.300  11.206  0.7664  0.4439  0.1691
12535TIP3    H259097   0.498   4.260  11.209  1.3081 -1.5817  0.7329
12536TIP3   OH259098   5.956   2.181  14.920  0.0917 -0.0728  0.7031
12536TIP3    H159099   5.871   2.139  14.905  0.7260 -1.1125  0.0034
12536TIP3    H259100   5.983   2.212  14.833  0.6240 -0.1027  0.8561
12537TIP3   OH259101   0.144   5.277   4.958  0.1877 -0.0648  0.0762
12537TIP3    H159102   0.156   5.370   4.972  1.7392 -0.1620 -0.5328
12537TIP3    H259103   0.052   5.268   4.932  0.3926  1.4551 -1.2217
12538TIP3   OH259104   2.110   1.040  12.660 -0.3809  0.3406 -0.0735
12538TIP3    H159105   2.071   1.012  12.743 -1.6624  2.8591  0.2294
12538TIP3    H259106   2.182   1.098  12.685 -1.5416  2.1117 -0.6547
12539TIP3   OH259107   3.126   1.900  15.426 -0.2541  0.1520 -0.2657
12539TIP3    H159108   3.068   1.927  15.354 -0.4956  1.2203  0.3214
12539TIP3    H259109   3.091   1.815  15.454 -1.4710  0.7318  0.0087
12540TIP3   OH259110   2.304   4.210  13.365  0.3558  0.6087  0.2259
12540TIP3    H159111   2.389   4.180  13.334  0.5636  1.3884  0.0208
12540TIP3    H259112   2.325   4.273  13.434 -0.0828 -0.4390  1.3489
12541TIP3   OH259113   4.590   0.167   0.029 -0.1997  0.0646 -0.3950
12541TIP3    H159114   4.641   0.127  -0.042 -2.3879 -0.9837 -1.3990
12541TIP3    H259115   4.603   0.261   0.017  2.0644 -0.1764 -0.1836
12542TIP3   OH259116   2.645   6.278   6.547  0.6866 -0.1018  0.3664
12542TIP3    H159117   2.563   6.276   6.499  0.6845 -1.3633  0.4077
12542TIP3    H259118   2.689   6.357   6.515 -0.2398  0.2224 -0.1422
12543TIP3   OH259119   3.414   3.730  14.139  0.2015 -0.4042  0.1691
12543TIP3    H159120   3.479   3.782  14.187 -0.8181  0.0702  1.0478
12543TIP3    H259121   3.429   3.640  14.168  2.8430 -0.8565 -2.3346
12544TIP3   OH259122   6.641   1.234  14.943  0.1101 -0.2037 -0.0141
12544TIP3    H159123   6.549   1.246  14.923 -0.1995  0.9960  1.9224
12544TIP3    H259124   6.678   1.193  14.865 -1.7550  0.6212 -1.3734
12545TIP3   OH259125   2.359   5.817  16.346  0.1005  0.3631  0.6946
12545TIP3    H159126   2.315   5.739  16.311 -0.1478  0.8021  0.0274
12545TIP3    H259127   2.289   5.869  16.385  0.3644 -0.0809  1.7755
12546TIP3   OH259128   6.383   0.504   1.356 -0.1003  0.8763  0.2347
12546TIP3    H159129   6.371   0.598   1.349 -0.4217  0.9010  1.0458
12546TIP3    H259130   6.476   0.489   1.338  0.0000  1.3702  0.3594
12547TIP3   OH259131   0.075   0.634  16.403  0.0267  0.0557  0.0495
12547TIP3    H159132   0.131   0.561  16.430 -0.5680  0.2247  1.7872
12547TIP3    H259133   0.052   0.615  16.312 -1.4626 -2.7633  0.9801
12548TIP3   OH259134   1.415   6.205  11.811  0.2088  0.1349 -0.2511
12548TIP3    H159135   1.354   6.132  11.795  0.4155 -0.0285 -0.3040
12548TIP3    H259136   1.360   6.276  11.844  0.2302 -0.5870  1.4136
12549TIP3   OH259137   6.426   3.923   1.520 -0.5825  0.4754 -0.0121
12549TIP3    H159138   6.384   3.989   1.464 -0.5510 -0.1748 -0.8207
12549TIP3    H259139   6.357   3.860   1.539 -0.9009  1.3094  1.6816
12550TIP3   OH259140   3.221   0.814  12.172 -0.0280 -0.0021  0.1312
12550TIP3    H159141   3.270   0.883  12.217 -0.8643  0.2747  0.6100
12550TIP3    H259142   3.275   0.735  12.184 -0.3704  0.0060  1.8488
12551TIP3   OH259143   3.174   3.369  12.216 -0.2841  0.4223 -0.5489
12551TIP3    H159144   3.250   3.405  12.261 -0.5503 -1.0015  1.0891
12551TIP3    H259145   3.196   3.373  12.123  0.4005  3.1405 -0.3028
12552TIP3   OH259146   6.779   2.630  14.355 -0.1985  0.5330 -0.1059
12552TIP3    H159147   6.815   2.544  14.376  0.9070  0.9331 -0.3728
12552TIP3    H259148   6.836   2.664  14.286 -0.2786  1.7322  0.4103
12553TIP3   OH259149   1.003   0.278   4.845  0.2905 -0.1155 -0.1848
12553TIP3    H159150   0.935   0.304   4.783 -1.1565 -0.5353  1.1784
12553TIP3    H259151   1.077   0.334   4.825 -0.9154  1.2759 -0.8291
12554TIP3   OH259152   2.607   3.404   2.683 -0.0518 -0.0306 -0.0844
12554TIP3    H159153   2.665   3.401   2.607  0.3167  1.4434  0.1194
12554TIP3    H259154   2.578   3.495   2.687  3.0193  0.9094  3.8067
12555TIP3   OH259155   3.640   3.911   3.353  0.0281 -0.0524  0.2042
12555TIP3    H159156   3.617   3.862   3.274 -0.2218  0.4366 -0.0284
12555TIP3    H259157   3.642   4.002   3.325  0.9704  0.0341  0.5217
12556TIP3   OH259158   1.196   1.115   5.963 -0.0091  0.5433 -0.1427
12556TIP3    H159159   1.191   1.151   6.051  0.1787  0.3800 -0.0660
12556TIP3    H259160   1.141   1.036   5.966 -0.1758  0.6568 -0.2286
12557TIP3   OH259161   0.555   0.902   1.210  0.1833  0.6379  0.0880
12557TIP3    H159162   0.476   0.956   1.211 -0.3994 -0.2016  0.3687
12557TIP3    H259163   0.550   0.855   1.127 -0.0261 -0.0104  0.4627
12558TIP3   OH259164   5.077   0.376   3.536  0.3303 -0.1285  0.1258
12558TIP3    H159165   5.074   0.283   3.514 -1.4119  0.2236 -1.2792
12558TIP3    H259166   5.164   0.389   3.574  0.6916 -2.2674  0.1073
12559TIP3   OH259167   1.287   0.814  16.179  0.0570  0.4094 -0.2489
12559TIP3    H159168   1.210   0.778  16.136  0.7383 -1.7615  0.2752
12559TIP3    H259169   1.278   0.788  16.271  0.5691  1.5992  0.1448
12560TIP3   OH259170   4.689   3.664   4.070  0.9067 -0.3727  0.0627
12560TIP3    H159171   4.658   3.656   3.980  0.5487  1.4691  0.0062
12560TIP3    H259172   4.777   3.626   4.069  1.2497  0.4477 -1.2535
12561TIP3   OH259173   5.334   4.302  16.063  0.2127  0.3383  0.2799
12561TIP3    H159174   5.325   4.362  15.989  0.6393  2.0157  1.5652
12561TIP3    H259175   5.296   4.220  16.032  0.2153  1.0760 -1.7264
12562TIP3   OH259176   6.080   1.274  15.967  0.5658 -0.3795 -0.1672
12562TIP3    H159177   6.140   1.346  15.985  0.2451 -0.3958  1.0667
12562TIP3    H259178   6.081   1.264  15.872 -1.3781  3.0112 -0.6336
12563TIP3   OH259179   2.826   4.732  14.943 -0.3224  0.6148  0.2625
12563TIP3    H159180   2.862   4.648  14.915 -0.2308  0.9951 -0.7813
12563TIP3    H259181   2.898   4.794  14.931 -0.8030  1.0774 -0.2316
12564TIP3   OH259182   1.749   2.888   2.282  0.3259 -0.1564 -0.3232
12564TIP3    H159183   1.791   2.893   2.196 -0.8435 -1.7440 -1.0072
12564TIP3    H259184   1.702   2.805   2.281 -1.5865  0.8769  1.0006
12565TIP3   OH259185   4.006   5.993   6.154  0.1283 -0.3180 -0.0157
12565TIP3    H159186   3.912   5.975   6.148  0.4163 -1.3704 -1.9152
12565TIP3    H259187   4.044   5.914   6.192  0.5373 -0.9345 -1.6677
12566TIP3   OH259188   5.735   4.068   0.600  0.5812  0.1213 -0.3929
12566TIP3    H159189   5.781   4.032   0.524 -0.4919  0.5942 -1.2713
12566TIP3    H259190   5.796   4.056   0.673  1.5022 -0.5902 -1.2765
12567TIP3   OH259191   3.202   1.360  13.204  0.4719  0.1093  0.4057
12567TIP3    H159192   3.200   1.420  13.279  0.9443  0.7590 -0.1020
12567TIP3    H259193   3.110   1.335  13.191 -0.0454  2.5148 -0.8168
12568TIP3   OH259194   3.505   2.383   2.796 -0.3620 -0.3558 -0.0728
12568TIP3    H159195   3.502   2.457   2.856  2.1034 -0.0185 -0.3002
12568TIP3    H259196   3.584   2.398   2.743 -1.8503 -1.2382 -2.6229
12569TIP3   OH259197   1.815   1.408   5.993 -0.1967 -0.5307 -0.1140
12569TIP3    H159198   1.854   1.464   5.925  0.1627 -1.0736 -0.3562
12569TIP3    H259199   1.837   1.453   6.075  1.4852 -1.1365 -0.2018
12570TIP3   OH259200   2.677   6.664  17.095 -0.0358 -0.4697 -0.2639
12570TIP3    H159201   2.590   6.623  17.088  0.4010 -2.3397  3.7041
12570TIP3    H259202   2.737   6.597  17.061  0.1786 -0.9345  0.9898
12571TIP3   OH259203   6.175   4.583   4.454  0.1473  0.6908 -0.5357
12571TIP3    H159204   6.211   4.576   4.543 -0.7507 -0.9580 -0.2706
12571TIP3    H259205   6.223   4.655   4.414  1.4496  0.6329  0.8759
12572TIP3   OH259206   1.261   0.790   1.881  0.2879 -0.2291 -0.1952
12572TIP3    H159207   1.343   0.835   1.899  1.0955 -1.8504  0.2909
12572TIP3    H259208   1.197   0.860   1.869  2.0600  1.1134 -2.2107
12573TIP3   OH259209   1.774   0.921   5.632 -0.0610  0.3213 -0.2254
12573TIP3    H159210   1.788   0.858   5.703  1.6783  1.3100  0.3411
12573TIP3    H259211   1.846   0.983   5.640 -0.6040  1.2364 -2.0320
12574TIP3   OH259212   4.547   6.491  16.649  0.0041  0.0507 -0.1518
12574TIP3    H159213   4.535   6.406  16.691 -2.1189  0.0527 -0.6886
12574TIP3    H259214   4.491   6.487  16.571  0.9883  1.4168 -0.9442
12575TIP3   OH259215   1.122   5.476   6.016  0.1788 -0.0276  0.2276
12575TIP3    H159216   1.082   5.496   6.101 -1.7372 -1.4020 -0.2925
12575TIP3    H259217   1.104   5.553   5.963 -1.2054 -0.3154  0.2362
12576TIP3   OH259218   6.076   3.206   1.635  0.0526  0.4661 -0.1381
12576TIP3    H159219   6.079   3.113   1.657  0.7315  0.7139  0.8225
12576TIP3    H259220   5.983   3.224   1.624 -0.2755  0.1898  1.9567
12577TIP3   OH259221   1.447   2.458  16.513  0.2216 -0.7418  0.1316
12577TIP3    H159222   1.517   2.520  16.532  0.1052 -0.4927 -0.2361
12577TIP3    H259223   1.382   2.473  16.582 -0.2825  0.2808 -0.5409
12578TIP3   OH259224   0.511   6.333  11.828 -0.1139  0.3312 -0.2767
12578TIP3    H159225   0.428   6.377  11.810  0.5051  1.7651  0.3266
12578TIP3    H259226   0.510   6.256  11.771 -2.0491  0.0948  0.0447
12579TIP3   OH259227   2.936   0.539   3.120  0.1399  0.1609  0.9042
12579TIP3    H159228   2.892   0.601   3.178 -0.9696  2.4414 -2.2979
12579TIP3    H259229   2.866   0.499   3.069  1.1451 -1.5241  0.8150
12580TIP3   OH259230   1.661   3.852   0.066  0.6957  0.4026  0.1336
12580TIP3    H159231   1.696   3.880   0.150 -0.4490  0.1286  0.7109
12580TIP3    H259232   1.586   3.910   0.050  0.0449 -0.4534 -0.0041
12581TIP3   OH259233   1.801   2.798  13.574  0.8124 -0.0601  0.0020
12581TIP3    H159234   1.774   2.884  13.606  2.3885  0.5303 -0.2241
12581TIP3    H259235   1.772   2.797  13.482  2.7009  1.0953 -0.6267
12582TIP3   OH259236   1.808   2.188  12.703 -0.1305  0.2003 -0.6667
12582TIP3    H159237   1.885   2.164  12.756  0.3075  0.8366 -1.0106
12582TIP3    H259238   1.742   2.213  12.767  0.0588 -0.0261 -0.3798
12583TIP3   OH259239   1.025   5.553  14.644 -0.8432 -0.1540  0.2992
12583TIP3    H159240   0.962   5.486  14.616 -0.3355 -0.7967  0.6801
12583TIP3    H259241   0.984   5.593  14.721 -0.0336 -1.7442  1.5955
12584TIP3   OH259242   3.070   3.758   2.420  0.4070  0.4481  0.0696
12584TIP3    H159243   3.033   3.677   2.458  0.6647  0.0250 -0.5774
12584TIP3    H259244   3.036   3.828   2.476  0.8454 -0.1753  1.1315
12585TIP3   OH259245   6.597   6.572  11.527 -0.1302  0.2767 -0.2379
12585TIP3    H159246   6.542   6.632  11.577  0.4545 -0.3832  1.2247
12585TIP3    H259247   6.559   6.572  11.439 -1.4234  1.1331  0.3141
12586TIP3   OH259248   4.387   6.073  16.243 -0.2432  0.0278 -0.1223
12586TIP3    H159249   4.320   6.014  16.208 -0.9023  0.9806 -0.4620
12586TIP3    H259250   4.408   6.131  16.170  2.7052 -1.7700 -0.8376
12587TIP3   OH259251   3.123   4.243   1.277 -0.3260  0.3919  0.3618
12587TIP3    H159252   3.090   4.251   1.188  0.0435  0.8334  0.2648
12587TIP3    H259253   3.218   4.253   1.269  0.0779 -2.7356  0.3955
12588TIP3   OH259254   0.896   5.861  14.598 -0.2443 -0.3333 -0.1158
12588TIP3    H159255   0.990   5.882  14.592 -0.3175  0.5281  1.3095
12588TIP3    H259256   0.859   5.891  14.515  0.8641 -1.3620 -0.9953
12589TIP3   OH259257   1.918   4.261  11.122 -0.4547  0.0221 -0.5630
12589TIP3    H159258   1.989   4.301  11.172  0.2389  0.7085 -2.0794
12589TIP3    H259259   1.861   4.223  11.189  1.0849 -0.1450  0.7014
12590TIP3   OH259260   1.182   1.112  12.797  0.5825  0.3119 -0.5238
12590TIP3    H159261   1.237   1.173  12.845 -1.2392  1.9876 -0.5210
12590TIP3    H259262   1.191   1.137  12.705  1.3849 -0.7023 -0.7339
12591TIP3   OH259263   0.501   1.958  10.763  0.0195 -0.2823  0.2711
12591TIP3    H159264   0.452   1.916  10.834  0.6704 -1.3632  0.0833
12591TIP3    H259265   0.448   1.941  10.684 -0.8444  1.1523  0.5214
12592TIP3   OH259266   1.637   0.753  16.375  0.6239  0.1981 -0.5787
12592TIP3    H159267   1.623   0.736  16.468 -2.1093 -0.2061 -1.0226
12592TIP3    H259268   1.715   0.701  16.352  0.3746 -0.9478  1.1071
12593TIP3   OH259269   2.552   0.887   5.973 -0.0357 -0.3948 -0.2676
12593TIP3    H159270   2.621   0.937   6.016 -0.9203 -0.3411  1.1203
12593TIP3    H259271   2.483   0.951   5.956 -0.4854 -0.7986  0.0130
12594TIP3   OH259272   3.078   2.363   4.735  0.0981  0.1304 -0.8379
12594TIP3    H159273   3.162   2.401   4.709  1.4790 -3.2141 -1.5498
12594TIP3    H259274   3.031   2.351   4.653 -0.2994  0.2470 -0.6274
12595TIP3   OH259275   5.070   5.125   4.822 -0.9507 -0.0640 -0.5465
12595TIP3    H159276   5.016   5.176   4.882 -0.8212 -0.3209 -0.2097
12595TIP3    H259277   5.118   5.191   4.771 -1.7662  0.1664 -1.0216
12596TIP3   OH259278   6.748   5.790  14.183  0.3138 -0.1254  0.3660
12596TIP3    H159279   6.684   5.746  14.238  1.2886 -0.4698  1.2418
12596TIP3    H259280   6.824   5.731  14.184  1.3170  1.1624  0.8616
12597TIP3   OH259281   3.575   5.167   2.822  0.6677 -0.3285 -0.0126
12597TIP3    H159282   3.589   5.208   2.908  1.2352 -1.6564  0.5408
12597TIP3    H259283   3.638   5.210   2.765 -0.3962  1.2668 -0.0091
12598TIP3   OH259284   2.212   1.996   1.746 -0.2249 -0.2955  0.3859
12598TIP3    H159285   2.270   2.009   1.670 -0.4618  1.4695  0.4920
12598TIP3    H259286   2.149   2.068   1.741  0.3672  0.4266  2.8204
12599TIP3   OH259287   2.209   5.962   1.702 -0.5078  0.0605  0.3423
12599TIP3    H159288   2.244   5.915   1.626 -1.4953  0.4066 -0.3414
12599TIP3    H259289   2.264   5.934   1.775  0.7691  0.0950 -0.5901
12600TIP3   OH259290   1.182   6.395  13.512 -0.0765 -0.0571 -0.1710
12600TIP3    H159291   1.246   6.427  13.448  1.5383 -1.8776  0.5140
12600TIP3    H259292   1.194   6.452  13.588  0.9917 -0.6097  0.0854
12601TIP3   OH259293   0.640   3.590   0.682 -0.1041 -0.0490 -0.5246
12601TIP3    H159294   0.572   3.655   0.668  0.4769  0.7353  0.2574
12601TIP3    H259295   0.643   3.540   0.600  0.4834  1.8927 -1.7117
12602TIP3   OH259296   0.790   4.291  14.256  0.0581 -0.4000  0.0329
12602TIP3    H159297   0.810   4.384  14.242  1.8897 -0.9459 -1.0223
12602TIP3    H259298   0.838   4.245  14.187 -1.1307 -2.1231  0.3210
12603TIP3   OH259299   1.075   5.586   1.236 -0.2775  1.0623  0.2013
12603TIP3    H159300   1.130   5.511   1.212 -0.2755  0.9484  0.5628
12603TIP3    H259301   0.997   5.546   1.275 -0.2979  1.2506  0.3494
12604TIP3   OH259302   3.639   2.388  11.825  0.0969 -0.2381  0.0433
12604TIP3    H159303   3.690   2.443  11.883  3.1580 -3.4699  0.5763
12604TIP3    H259304   3.615   2.445  11.752  1.2907  2.3064  1.5989
12605TIP3   OH259305   0.606   6.567  17.114 -0.4007  0.6393 -0.0439
12605TIP3    H159306   0.550   6.507  17.164 -0.8485  0.7292 -0.4435
12605TIP3    H259307   0.685   6.575  17.167 -0.5944  0.1855  0.3154
12606TIP3   OH259308   5.486   4.578  16.554 -0.5790  0.3033 -0.1609
12606TIP3    H159309   5.473   4.495  16.600 -3.4728  1.0768  0.5044
12606TIP3    H259310   5.577   4.574  16.524 -0.7442 -3.2435 -0.4528
12607TIP3   OH259311   5.376   1.733   1.996 -0.3053  0.2613  0.2472
12607TIP3    H159312   5.323   1.760   1.921 -0.6316  0.3342  0.5025
12607TIP3    H259313   5.421   1.655   1.966  1.7074  1.8395 -0.9657
12608TIP3   OH259314   0.820   0.358  12.197  0.3422  0.4881  0.7551
12608TIP3    H159315   0.781   0.434  12.155 -0.0875  0.6674  1.4749
12608TIP3    H259316   0.881   0.394  12.261  0.2111  0.2304  1.0283
12609TIP3   OH259317   1.517   6.021  12.003 -0.0218  0.7974 -0.1070
12609TIP3    H159318   1.497   6.104  11.960 -0.7163  0.6621 -0.0543
12609TIP3    H259319   1.611   6.010  11.992  0.1038  1.6903  0.0589
12610TIP3   OH259320   5.469   3.883  14.471  0.2962  0.1039 -0.0023
12610TIP3    H159321   5.451   3.959  14.525  1.6003  0.7462 -0.4510
12610TIP3    H259322   5.552   3.848  14.506  0.5507 -0.1416 -0.8407
12611TIP3   OH259323   2.161   3.232  15.366 -0.2270 -0.1544 -0.3831
12611TIP3    H159324   2.090   3.177  15.399 -0.2637 -0.8666 -1.6279
12611TIP3    H259325   2.176   3.201  15.277 -0.1358  1.7300 -1.0572
12612TIP3   OH259326   1.272   5.279   5.581  0.4607  0.1368 -0.3045
12612TIP3    H159327   1.268   5.305   5.673 -2.6226 -0.3905 -0.2400
12612TIP3    H259328   1.245   5.357   5.534 -2.1193 -0.8341 -0.4939
12613TIP3   OH259329   4.111   4.596   1.311  0.1736 -0.0148  0.1540
12613TIP3    H159330   4.076   4.684   1.298  0.7153  0.6208  2.6510
12613TIP3    H259331   4.058   4.559   1.382  2.7629  0.0001  2.1794
12614TIP3   OH259332   1.149   2.683  13.832 -0.2128 -0.4375 -0.3531
12614TIP3    H159333   1.177   2.625  13.761 -1.7748 -1.3490 -0.2546
12614TIP3    H259334   1.075   2.732  13.795  0.1278  0.4085  0.0626
12615TIP3   OH259335   1.950   3.987   0.925 -0.4643  0.6016 -0.2245
12615TIP3    H159336   1.994   4.004   1.008 -0.1568  2.3359 -0.7269
12615TIP3    H259337   1.857   3.993   0.946 -0.4652 -1.3202  0.4644
12616TIP3   OH259338   6.035   4.586  15.695 -0.2068  0.2048  0.5318
12616TIP3    H159339   6.126   4.561  15.677 -0.0185  0.2443  1.4051
12616TIP3    H259340   5.989   4.502  15.705 -0.1640  0.1919  0.6118
12617TIP3   OH259341   3.774   6.230  15.822 -0.7221 -0.3460  0.6450
12617TIP3    H159342   3.772   6.243  15.727 -0.4765 -1.6439  0.4573
12617TIP3    H259343   3.782   6.319  15.858  2.2559 -0.0165 -0.6664
12618TIP3   OH259344   4.098   4.248   1.128 -0.0967  0.5501  0.3114
12618TIP3    H159345   4.044   4.264   1.051  0.3428  0.7430  0.0415
12618TIP3    H259346   4.040   4.267   1.202  0.7629  4.8445  0.0433
12619TIP3   OH259347   4.750   3.809  11.243 -0.0055 -0.2168  0.2464
12619TIP3    H159348   4.679   3.860  11.283 -0.3495 -0.7511  0.3131
12619TIP3    H259349   4.801   3.874  11.194 -0.6277  0.1385  0.0678
12620TIP3   OH259350   4.598   2.076   6.005  0.4053  0.1679 -0.5072
12620TIP3    H159351   4.646   2.090   6.087 -0.1577 -2.1713  0.2772
12620TIP3    H259352   4.664   2.084   5.936  1.4821 -0.8293  0.4023
12621TIP3   OH259353   2.325   6.567   0.028  0.4731  0.1924  0.2151
12621TIP3    H159354   2.397   6.588  -0.032  0.5348  0.1640  0.2771
12621TIP3    H259355   2.246   6.600  -0.016  0.5578  0.4771  0.2721
12622TIP3   OH259356   3.079   1.219  11.221 -0.4343  0.2322  0.1822
12622TIP3    H159357   3.028   1.289  11.261  0.4529 -0.1590  2.0482
12622TIP3    H259358   3.145   1.264  11.169  0.4685  0.8192  1.8003
12623TIP3   OH259359   4.392   2.474   0.995  0.3158  0.3548 -0.2843
12623TIP3    H159360   4.388   2.403   0.932 -2.1555 -1.1599  1.4635
12623TIP3    H259361   4.305   2.514   0.991  0.8244  1.5837  0.6238
12624TIP3   OH259362   3.807   4.222   1.757 -0.1681  0.1685  0.2086
12624TIP3    H159363   3.759   4.301   1.781 -0.5102  0.3197 -0.9332
12624TIP3    H259364   3.789   4.210   1.663 -0.2004 -1.3170  0.3898
12625TIP3   OH259365   1.961   6.708  16.888 -0.4115  0.0347 -0.2849
12625TIP3    H159366   2.052   6.735  16.901 -0.7849  0.8311  0.7988
12625TIP3    H259367   1.966   6.615  16.867  0.6344  0.0260 -0.0224
12626TIP3   OH259368   1.611   4.799  11.657  0.1762 -0.4261 -0.4536
12626TIP3    H159369   1.588   4.784  11.749  2.1395 -1.4403 -0.1219
12626TIP3    H259370   1.694   4.846  11.660  0.3496 -0.6444 -1.7235
12627TIP3   OH259371   0.472   3.992  15.319  0.3344  0.3497  0.5024
12627TIP3    H159372   0.476   4.046  15.398 -1.4539  1.7387 -0.3148
12627TIP3    H259373   0.460   3.903  15.351  1.3189  0.6804  1.8353
12628TIP3   OH259374   2.560   4.586   4.609 -0.2418 -0.4402  0.0381
12628TIP3    H159375   2.465   4.570   4.610 -0.2940 -0.1100  0.7388
12628TIP3    H259376   2.595   4.516   4.555 -0.8930 -0.5577 -0.2402
12629TIP3   OH259377   5.104   2.275  13.490  0.1238 -0.1605 -0.0796
12629TIP3    H159378   5.192   2.252  13.519  0.7524 -0.0760 -1.8661
12629TIP3    H259379   5.045   2.228  13.550  1.3657  0.6274  1.7931
12630TIP3   OH259380   3.904   2.309  17.129 -0.0788  0.0542 -0.4972
12630TIP3    H159381   3.998   2.306  17.109  0.0017 -0.3601 -0.0712
12630TIP3    H259382   3.871   2.222  17.106  0.0473 -0.4757  1.2739
12631TIP3   OH259383   2.769   5.310  11.794 -0.3466  0.9984 -0.2145
12631TIP3    H159384   2.771   5.356  11.878 -3.1233  2.0873 -0.6818
12631TIP3    H259385   2.722   5.228  11.813  2.3158 -0.5183  0.0546
12632TIP3   OH259386   5.272   3.694   2.376 -0.0361  0.4495 -0.5748
12632TIP3    H159387   5.267   3.789   2.383 -1.0584  0.3577 -0.0445
12632TIP3    H259388   5.191   3.668   2.332  0.8465 -0.0628 -1.9330
12633TIP3   OH259389   0.534   1.998   5.576 -0.5419  0.6781 -0.0647
12633TIP3    H159390   0.505   2.088   5.561 -1.1887  0.7438  1.5040
12633TIP3    H259391   0.453   1.946   5.571 -0.4903  0.4666  1.1726
12634TIP3   OH259392   3.822   4.117   2.423  0.0544  0.0651  0.5381
12634TIP3    H159393   3.835   4.025   2.402  0.6627 -0.4710  3.1358
12634TIP3    H259394   3.902   4.160   2.394  0.4296 -0.4708  0.7857
12635TIP3   OH259395   0.799   1.753  10.184  0.1640 -0.4039  0.2390
12635TIP3    H159396   0.811   1.702  10.264 -0.9403  1.9331  1.9567
12635TIP3    H259397   0.704   1.768  10.179  0.3774  0.7379 -0.6832
12636TIP3   OH259398   1.462   2.461  14.313 -0.0498 -0.0057  0.6593
12636TIP3    H159399   1.501   2.448  14.400  0.9888 -2.8430 -0.1648
12636TIP3    H259400   1.532   2.501  14.261 -0.2100  0.3914  0.7470
12637TIP3   OH259401   2.364   4.856   5.062 -0.3700 -0.4183 -0.7209
12637TIP3    H159402   2.397   4.878   5.149 -0.1669 -1.0202 -0.6472
12637TIP3    H259403   2.278   4.898   5.058  0.0490  0.4689 -0.6100
12638TIP3   OH259404   1.650   4.911  16.508  0.5906  0.4771 -0.3640
12638TIP3    H159405   1.738   4.884  16.533  0.4009  2.2450  2.4573
12638TIP3    H259406   1.660   5.003  16.482 -0.2521  0.4071 -0.9520
12639TIP3   OH259407   4.317   5.575   0.058 -0.0802  0.1369  0.1563
12639TIP3    H159408   4.274   5.533  -0.016 -0.1999  0.3907  0.0836
12639TIP3    H259409   4.250   5.634   0.094  0.1343  0.3623  0.1806
12640TIP3   OH259410   3.709   3.325  12.315 -0.2668 -0.0483 -0.0034
12640TIP3    H159411   3.775   3.337  12.384  1.9584 -1.7757 -1.7367
12640TIP3    H259412   3.707   3.409  12.269 -0.4099  0.5072  0.9999
12641TIP3   OH259413   2.978   0.022  15.076 -0.2195 -0.0296 -0.1522
12641TIP3    H159414   3.065   0.055  15.097 -0.0728 -1.3804  1.5115
12641TIP3    H259415   2.973   0.025  14.981  0.1322  3.8095 -0.1255
12642TIP3   OH259416   6.365   1.711  14.172 -0.0998 -0.3762 -0.4255
12642TIP3    H159417   6.374   1.806  14.182 -0.3355 -0.5047  1.2027
12642TIP3    H259418   6.443   1.675  14.216 -1.6816 -1.0240  1.9871
12643TIP3   OH259419   1.203   6.243  16.816  0.4821  0.2762  0.3619
12643TIP3    H159420   1.282   6.277  16.775  0.4363 -1.5930 -1.3270
12643TIP3    H259421   1.203   6.282  16.903  2.0753  2.0620 -0.4038
12644TIP3   OH259422   2.278   1.730   2.054  0.5018 -0.2074 -0.0349
12644TIP3    H159423   2.338   1.803   2.040  0.3659  0.0887  0.8927
12644TIP3    H259424   2.243   1.744   2.142 -1.4072 -0.0394 -0.8048
12645TIP3   OH259425   1.843   3.751  12.368 -0.1404 -0.4735  0.3910
12645TIP3    H159426   1.888   3.681  12.416 -1.8658 -2.6930 -1.1349
12645TIP3    H259427   1.850   3.828  12.425  2.9505 -1.5131  1.5162
12646TIP3   OH259428   0.262   5.209  13.460  0.7129 -0.4207  0.4622
12646TIP3    H159429   0.318   5.280  13.429  0.9080 -0.5442  0.5344
12646TIP3    H259430   0.320   5.154  13.512  0.7509 -1.0871 -0.2865
12647TIP3   OH259431   6.186   3.743   2.303 -0.0699 -0.1008 -0.2963
12647TIP3    H159432   6.191   3.827   2.257 -0.9872  0.4220  0.5280
12647TIP3    H259433   6.275   3.708   2.299  0.0925  0.4069 -1.5723
12648TIP3   OH259434   4.364   5.444   3.219 -0.3490  0.5959 -0.0664
12648TIP3    H159435   4.317   5.361   3.228 -0.4650  0.7581  0.9216
12648TIP3    H259436   4.356   5.485   3.305  1.4696  0.6969  0.0687
12649TIP3   OH259437   0.154   6.467  16.123  0.0120  0.4879 -0.4086
12649TIP3    H159438   0.145   6.373  16.107 -0.2678  0.3412  0.5770
12649TIP3    H259439   0.103   6.508  16.053 -1.9851 -0.1558  0.6486
12650TIP3   OH259440   6.128   2.585   1.386  0.0582  0.1387  0.0043
12650TIP3    H159441   6.204   2.537   1.354 -1.1059 -0.4085 -2.0874
12650TIP3    H259442   6.053   2.529   1.364 -1.2051  2.1662 -1.0752
12651TIP3   OH259443   4.265   5.162  14.585  0.0617 -0.0845  0.5673
12651TIP3    H159444   4.307   5.106  14.651 -2.3829 -1.3175  1.1406
12651TIP3    H259445   4.227   5.100  14.522  0.0288  1.0117 -0.4849
12652TIP3   OH259446   5.420   5.702  12.975 -0.0231  0.3400 -0.4088
12652TIP3    H159447   5.328   5.728  12.969 -0.5683 -1.3027  0.7448
12652TIP3    H259448   5.428   5.655  13.058  1.6366 -0.4208 -0.9551
12653TIP3   OH259449   2.239   4.817   0.867  0.1829 -0.6232  0.3160
12653TIP3    H159450   2.275   4.813   0.779  0.1428 -0.1772  0.2753
12653TIP3    H259451   2.314   4.802   0.924  0.9648  2.7014  0.3053
12654TIP3   OH259452   3.021   5.084   2.277 -0.1989  0.4066  0.0428
12654TIP3    H159453   3.053   5.124   2.196  1.0144 -0.2831  0.1658
12654TIP3    H259454   2.942   5.133   2.298 -1.9632 -1.0234 -2.9080
12655TIP3   OH259455   5.807   0.017   0.557  0.1364 -0.2747  0.4099
12655TIP3    H159456   5.770  -0.062   0.599 -0.9411  0.3765  0.7159
12655TIP3    H259457   5.758   0.025   0.475  1.6611 -1.0653 -0.6136
12656TIP3   OH259458   0.238   5.993   0.907 -0.4173  0.1513  0.3705
12656TIP3    H159459   0.202   6.078   0.880 -1.6973 -1.0484 -1.7969
12656TIP3    H259460   0.200   5.930   0.846  0.1898 -2.0667  2.2030
12657TIP3   OH259461   2.175   2.393  16.734  0.1493 -0.1389 -0.0786
12657TIP3    H159462   2.190   2.434  16.819  1.4713  0.3008 -0.5119
12657TIP3    H259463   2.210   2.304  16.743  1.4614  0.3149 -0.5392
12658TIP3   OH259464   0.526   6.573   1.961  0.1353  0.1565  0.2987
12658TIP3    H159465   0.453   6.563   1.900  0.2511  0.0521  0.1753
12658TIP3    H259466   0.604   6.573   1.905  0.1542  1.6191  0.3048
12659TIP3   OH259467   2.447   1.684  17.059  0.1845  0.1289 -0.1811
12659TIP3    H159468   2.377   1.630  17.094 -0.5626 -0.0023 -1.8313
12659TIP3    H259469   2.410   1.773  17.057  0.5438  0.2879  0.2306
12660TIP3   OH259470   1.402   0.652  11.881 -0.1106  0.0551  0.0976
12660TIP3    H159471   1.496   0.663  11.898 -0.3249  0.9945  0.7222
12660TIP3    H259472   1.360   0.718  11.936 -1.2037 -1.0660  0.6409
12661TIP3   OH259473   3.121   2.055   5.646 -0.2073  0.3756 -0.3159
12661TIP3    H159474   3.112   2.138   5.693 -0.2494  1.7079 -2.6004
12661TIP3    H259475   3.125   1.989   5.715 -0.0228  2.2783  1.5563
12662TIP3   OH259476   0.351   3.826   1.907  0.3162  0.3466  1.0563
12662TIP3    H159477   0.369   3.860   1.820  0.5292 -1.2406  0.4699
12662TIP3    H259478   0.256   3.818   1.911  0.3849 -0.9864  0.4079
12663TIP3   OH259479   0.026   4.878  14.167 -0.0243 -0.2227 -0.2797
12663TIP3    H159480   0.085   4.937  14.214 -1.4673 -0.5468  2.0248
12663TIP3    H259481   0.078   4.801  14.148  0.7450  0.1520  0.3045
12664TIP3   OH259482   5.672   0.115   4.471  0.1856 -0.3029  0.1921
12664TIP3    H159483   5.678   0.055   4.397  1.2875 -0.4531  0.3957
12664TIP3    H259484   5.597   0.084   4.521  0.5548 -1.3092  0.1181
12665TIP3   OH259485   3.244   2.157   3.392 -0.0816  0.6972 -0.0330
12665TIP3    H159486   3.277   2.153   3.302 -0.2249  1.1451 -0.1043
12665TIP3    H259487   3.323   2.163   3.446  0.1391 -2.4318  0.0502
12666TIP3   OH259488   6.499   1.688  17.079  0.1521 -0.2773  0.2470
12666TIP3    H159489   6.563   1.720  17.142 -0.9633  0.8076  0.8651
12666TIP3    H259490   6.498   1.754  17.009  1.1319 -1.2985 -0.7624
12667TIP3   OH259491   1.479   0.161   2.384 -0.1896  0.6221 -0.3472
12667TIP3    H159492   1.525   0.239   2.355  0.5239  0.5237  0.4915
12667TIP3    H259493   1.521   0.089   2.337 -1.0795  0.7624 -1.3876
12668TIP3   OH259494   6.724   4.671  14.631 -0.8882 -0.5048 -0.2107
12668TIP3    H159495   6.647   4.683  14.687 -0.2359  0.5423  0.4544
12668TIP3    H259496   6.689   4.625  14.554 -1.8752 -1.5082  0.8137
12669TIP3   OH259497   2.547   0.853   1.353 -1.0281 -0.3258  0.0630
12669TIP3    H159498   2.577   0.867   1.263 -0.6230 -1.2784  0.0432
12669TIP3    H259499   2.488   0.927   1.370 -1.2567 -0.2371 -1.0452
12670TIP3   OH259500   1.556   1.938   3.690 -0.2167  0.2583  0.3800
12670TIP3    H159501   1.515   1.854   3.710 -1.2688  0.8763  0.9033
12670TIP3    H259502   1.493   1.982   3.632  1.7700 -0.6018 -2.5529
12671TIP3   OH259503   4.050   0.685  16.491 -0.3148  0.4257  0.5034
12671TIP3    H159504   3.968   0.638  16.505 -0.2986 -0.4576 -2.1304
12671TIP3    H259505   4.037   0.733  16.410  1.4342  1.0416  0.5671
12672TIP3   OH259506   6.304   2.704   2.492  0.6283 -0.2782 -0.3149
12672TIP3    H159507   6.356   2.720   2.570  1.4033  0.3093 -0.9435
12672TIP3    H259508   6.365   2.663   2.430 -0.6636 -3.3965  0.3485
12673TIP3   OH259509   6.305   1.110  16.811 -0.0452 -0.4651 -0.3027
12673TIP3    H159510   6.355   1.044  16.858 -1.2881 -0.7730  0.6240
12673TIP3    H259511   6.223   1.066  16.788 -0.3965  0.3937 -0.7419
12674TIP3   OH259512   0.950   3.940  12.072 -0.1669  0.2755  0.1972
12674TIP3    H159513   0.973   3.959  11.981 -0.3824  0.5485  0.1997
12674TIP3    H259514   0.948   4.026  12.115 -1.7339  0.3080  0.0786
12675TIP3   OH259515   1.000   5.986  11.438 -0.2681 -0.5066  0.0994
12675TIP3    H159516   1.063   5.915  11.425  0.4262  0.2869 -1.0293
12675TIP3    H259517   0.930   5.947  11.490 -0.8753 -2.5908 -2.1764
12676TIP3   OH259518   2.728   4.024   0.430  0.1900  0.1257 -0.3383
12676TIP3    H159519   2.671   4.100   0.441 -0.3748 -0.6499  2.2716
12676TIP3    H259520   2.690   3.956   0.485  1.9809 -1.3476 -0.8458
12677TIP3   OH259521   1.959   2.851   2.469 -0.4526 -0.0558 -0.2176
12677TIP3    H159522   2.017   2.841   2.394 -0.4758  1.2886 -0.4346
12677TIP3    H259523   1.878   2.886   2.432 -1.0776 -1.0335  0.2089
12678TIP3   OH259524   4.119   3.522  11.302  0.3806 -0.3402  0.2404
12678TIP3    H159525   4.207   3.540  11.268 -0.3238 -0.0346 -1.4694
12678TIP3    H259526   4.121   3.429  11.325  1.2970 -0.2237  0.6447
12679TIP3   OH259527   0.691   4.130  12.647  0.0829 -0.1221  0.0173
12679TIP3    H159528   0.786   4.128  12.640  0.1094 -2.6335  0.3258
12679TIP3    H259529   0.670   4.218  12.678  2.0808  1.3562 -2.7045
12680TIP3   OH259530   0.322   3.491   6.019 -0.3008 -0.5676  0.3344
12680TIP3    H159531   0.402   3.535   5.988 -1.1360  0.1789 -0.7811
12680TIP3    H259532   0.256   3.510   5.952 -1.0306 -2.4453  0.4875
12681TIP3   OH259533   1.840   2.758  12.497  0.9293  0.1977 -0.2814
12681TIP3    H159534   1.864   2.851  12.492  1.1522  0.1830  0.4729
12681TIP3    H259535   1.846   2.737  12.590 -2.7481  0.3939  0.1040
12682TIP3   OH259536   2.116   6.528   5.854 -0.6657 -0.1866 -0.2901
12682TIP3    H159537   2.027   6.563   5.848 -1.8990 -2.6056  2.5248
12682TIP3    H259538   2.154   6.574   5.929  0.4833  0.8301 -1.4813
12683TIP3   OH259539   4.775   5.821   0.685  0.2434 -0.4559 -0.2034
12683TIP3    H159540   4.697   5.806   0.632 -1.7524  1.5059  2.0374
12683TIP3    H259541   4.825   5.887   0.636 -0.2233 -0.6540 -0.9511
12684TIP3   OH259542   1.975   5.938   2.904  0.3373  0.0367  0.5559
12684TIP3    H159543   2.066   5.951   2.929  0.5865  1.8249 -1.1984
12684TIP3    H259544   1.925   5.984   2.972  0.7910  0.3940  0.6510
12685TIP3   OH259545   0.727   4.168  16.290 -0.8670  0.3832  0.3939
12685TIP3    H159546   0.784   4.209  16.225 -0.8904  0.3460  0.3494
12685TIP3    H259547   0.767   4.189  16.374 -0.9546  0.6175  0.3781
12686TIP3   OH259548   3.780   3.839   3.572  0.5391 -0.4486 -0.1448
12686TIP3    H159549   3.721   3.817   3.644  0.0785 -2.0107 -0.9834
12686TIP3    H259550   3.723   3.876   3.505  0.7297 -0.5167 -0.3456
12687TIP3   OH259551   4.814   1.241  11.513  0.3022 -0.0770 -0.8528
12687TIP3    H159552   4.721   1.254  11.528  0.3893 -0.2011 -0.1737
12687TIP3    H259553   4.822   1.150  11.483  0.4080 -0.7168  1.0518
12688TIP3   OH259554   0.922   6.322  13.030 -0.9254 -0.6045  0.2988
12688TIP3    H159555   0.950   6.400  12.983  0.2791  0.0633  2.0498
12688TIP3    H259556   0.844   6.349  13.078  0.7284  0.2228  2.6396
12689TIP3   OH259557   1.708   0.660   5.192 -0.2776  0.2850  0.0704
12689TIP3    H159558   1.703   0.750   5.158  1.4328  0.2337 -0.3359
12689TIP3    H259559   1.779   0.663   5.257  1.4057 -1.3070 -1.6411
12690TIP3   OH259560   0.816   0.072  13.423 -0.3503 -0.2910 -0.4204
12690TIP3    H159561   0.790   0.004  13.361 -2.4753 -0.0619  0.1911
12690TIP3    H259562   0.880   0.028  13.481 -1.0924 -1.5293 -0.5231
12691TIP3   OH259563   0.984   4.120   3.344  0.3854  0.2665  0.4516
12691TIP3    H159564   0.972   4.094   3.436 -0.9044  1.2131  0.5565
12691TIP3    H259565   0.933   4.056   3.294  0.4741  0.2001  0.4457
12692TIP3   OH259566   1.260   5.147   4.583  0.2123  0.2605  0.3779
12692TIP3    H159567   1.225   5.061   4.605  0.9048  0.1349  1.0126
12692TIP3    H259568   1.256   5.150   4.487  0.0913 -0.4366  0.3535
12693TIP3   OH259569   0.820   1.778  12.005  0.2368 -0.2013 -0.1015
12693TIP3    H159570   0.835   1.697  11.957  1.1377  0.6325 -1.2432
12693TIP3    H259571   0.888   1.778  12.073 -0.3364 -0.8345  0.4813
12694TIP3   OH259572   6.110   6.548  16.740 -0.5492  0.1563  0.0024
12694TIP3    H159573   6.183   6.492  16.767 -0.6482 -0.0948 -0.2525
12694TIP3    H259574   6.133   6.576  16.651 -2.0479 -2.1107 -1.1470
12695TIP3   OH259575   4.973   2.084   0.301 -0.0881 -1.0880 -0.1535
12695TIP3    H159576   4.899   2.134   0.336 -0.3396 -1.6578  0.1424
12695TIP3    H259577   4.965   1.999   0.343  1.4969 -0.7282  0.8824
12696TIP3   OH259578   5.820   0.162  14.218  0.1577 -0.4743 -0.3313
12696TIP3    H159579   5.827   0.246  14.174  1.3395 -0.2488  0.2646
12696TIP3    H259580   5.853   0.178  14.307  0.3336 -1.5372 -0.1962
12697TIP3   OH259581   6.404   3.888  13.241  0.0029 -0.4175 -0.1928
12697TIP3    H159582   6.475   3.937  13.201  0.0796 -0.3930 -0.0284
12697TIP3    H259583   6.386   3.816  13.180  0.5463 -0.7512  0.0383
12698TIP3   OH259584   4.465   4.293  14.978 -0.1897  0.6913 -0.5842
12698TIP3    H159585   4.447   4.307  15.071  1.3750  1.2047 -0.3336
12698TIP3    H259586   4.437   4.375  14.937 -0.4089  0.6620 -0.4973
12699TIP3   OH259587   0.615   5.936  12.463  0.0604 -0.5233 -0.6938
12699TIP3    H159588   0.585   5.846  12.468  3.1845 -1.5771  0.7774
12699TIP3    H259589   0.610   5.968  12.553  2.8699 -0.6580 -0.4368
12700TIP3   OH259590   5.400   0.663   4.325  0.3205  0.2737 -0.6714
12700TIP3    H159591   5.478   0.640   4.275  1.3844 -0.2656  1.1866
12700TIP3    H259592   5.356   0.730   4.272  2.2274  0.8511 -1.5704
12701TIP3   OH259593   6.638   4.558  12.062  0.1838  0.1520  0.0982
12701TIP3    H159594   6.579   4.623  12.022  1.5718  0.6882 -1.1357
12701TIP3    H259595   6.604   4.546  12.150 -0.9456  1.5030 -0.1287
12702TIP3   OH259596   5.069   3.531   0.957  0.1385 -0.1337 -0.6730
12702TIP3    H159597   5.006   3.552   0.889 -0.8896  1.6024  0.7667
12702TIP3    H259598   5.035   3.574   1.035  2.1888 -0.6598  0.5494
12703TIP3   OH259599   5.424   0.543   4.770 -0.3106 -0.1285 -0.0999
12703TIP3    H159600   5.357   0.557   4.703  1.3199 -1.2667 -2.0115
12703TIP3    H259601   5.456   0.630   4.791 -0.6720  0.2176 -0.9826
12704TIP3   OH259602   0.678   6.618  13.599  0.3358 -0.2276  0.4222
12704TIP3    H159603   0.630   6.649  13.522  1.5655  0.6327 -0.0335
12704TIP3    H259604   0.633   6.538  13.626 -0.7665  0.0606 -0.5401
12705TIP3   OH259605   5.959   6.372   0.486 -0.5894 -0.0906 -0.4898
12705TIP3    H159606   5.980   6.425   0.563 -2.4240 -1.2604  0.8404
12705TIP3    H259607   6.010   6.292   0.497 -0.6130 -0.1313 -0.6709
12706TIP3   OH259608   2.090   0.393  12.334 -0.0745 -0.3454  0.4791
12706TIP3    H159609   2.130   0.350  12.409  1.2412 -1.3424 -0.7741
12706TIP3    H259610   2.138   0.359  12.258 -2.3210 -0.4692 -0.9336
12707TIP3   OH259611   3.400   5.703  16.015 -0.1383 -0.0353  0.3334
12707TIP3    H159612   3.478   5.653  16.041  0.9900  1.7173  0.3806
12707TIP3    H259613   3.418   5.731  15.925 -1.1734 -0.4685 -0.0234
12708TIP3   OH259614   3.460   0.661  11.665  0.2294  0.1833  0.9804
12708TIP3    H159615   3.377   0.622  11.694 -0.2000  1.0209  0.9181
12708TIP3    H259616   3.447   0.755  11.678 -0.4367  0.7229 -3.0933
12709TIP3   OH259617   4.753   6.372   4.513 -0.2935 -0.2185 -0.0711
12709TIP3    H159618   4.700   6.334   4.443  0.0361 -0.4315 -0.2032
12709TIP3    H259619   4.843   6.351   4.490  0.0666  2.5316 -1.3049
12710TIP3   OH259620   0.061   6.706  11.477 -0.0717 -0.4103  0.2017
12710TIP3    H159621  -0.022   6.682  11.519 -0.0110  0.4416  0.8245
12710TIP3    H259622   0.034   6.752  11.397 -0.1879 -1.7832 -0.5580
12711TIP3   OH259623   5.951   4.508  16.515 -0.2527  0.0730 -0.4850
12711TIP3    H159624   6.020   4.442  16.505 -0.9021 -0.6497 -0.2336
12711TIP3    H259625   5.980   4.562  16.589  1.4018  1.4971 -2.0891
12712TIP3   OH259626   5.353   4.572  11.665 -0.4831  0.5483  0.1435
12712TIP3    H159627   5.425   4.534  11.715 -2.1569 -1.5200  1.0904
12712TIP3    H259628   5.393   4.601  11.583  1.2423 -1.6182  0.1660
12713TIP3   OH259629   1.988   2.433  13.089  0.4929 -0.0078  0.7371
12713TIP3    H159630   2.044   2.430  13.011 -1.4155 -2.5500 -0.6213
12713TIP3    H259631   1.925   2.502  13.069 -1.1900 -1.9449 -0.9092
12714TIP3   OH259632   1.234   2.956  13.228 -0.1611 -0.3814  0.0146
12714TIP3    H159633   1.142   2.935  13.212 -0.6955 -0.8506  3.3737
12714TIP3    H259634   1.242   3.048  13.201 -1.8755 -0.0201  0.6750
12715TIP3   OH259635   5.002   2.675  12.815 -0.3937 -0.0725  0.3247
12715TIP3    H159636   5.014   2.765  12.785  0.7016 -0.4002 -0.2372
12715TIP3    H259637   5.025   2.678  12.908  0.5250  0.0468  0.0992
12716TIP3   OH259638   5.478   6.081  11.232  0.1378  0.2694 -0.0672
12716TIP3    H159639   5.450   6.011  11.291 -0.0438  1.8836  1.8125
12716TIP3    H259640   5.568   6.059  11.209 -0.0947 -0.8512  0.0683
12717TIP3   OH259641   6.113   6.296  15.966  0.0434  0.3208 -0.3252
12717TIP3    H159642   6.099   6.334  15.879 -2.7224 -0.9100 -0.4725
12717TIP3    H259643   6.089   6.204  15.957 -2.3813  0.6253  2.1904
12718TIP3   OH259644   0.717   0.101   4.488 -0.6363 -0.0423  0.2351
12718TIP3    H159645   0.813   0.096   4.497 -0.6416 -1.9928 -0.5613
12718TIP3    H259646   0.684   0.083   4.575 -0.2795  0.2331  0.4305
12719TIP3   OH259647   0.333   6.518   1.770 -0.3162  0.1528 -0.3553
12719TIP3    H159648   0.326   6.483   1.681 -0.2893 -0.6970 -0.0340
12719TIP3    H259649   0.328   6.613   1.760 -3.7182 -0.0265 -0.9343
12720TIP3   OH259650   2.844   5.152  12.754  0.0719 -0.1822 -0.1383
12720TIP3    H159651   2.815   5.067  12.720 -1.1122 -0.7590  2.2381
12720TIP3    H259652   2.819   5.215  12.686 -2.4581 -1.2684 -0.2612
12721TIP3   OH259653   1.081   5.307   1.196  0.2320  0.5714 -0.4768
12721TIP3    H159654   1.021   5.234   1.212  0.3778 -0.0611 -2.5482
12721TIP3    H259655   1.168   5.267   1.197  0.4249  0.9965 -0.1327
12722TIP3   OH259656   1.326   2.624   0.350 -0.3991  0.4006 -0.0528
12722TIP3    H159657   1.302   2.709   0.386  1.3889  0.1319  1.8431
12722TIP3    H259658   1.352   2.572   0.426  0.8536 -1.0412 -1.4370
12723TIP3   OH259659   5.279   0.549  15.269 -0.0261 -0.1252  0.1616
12723TIP3    H159660   5.318   0.635  15.251  1.3123 -0.9339 -0.8862
12723TIP3    H259661   5.190   0.556  15.235 -0.3661  1.2832  1.2895
12724TIP3   OH259662   4.614   5.439  15.845  0.3400  0.2369 -0.1026
12724TIP3    H159663   4.629   5.346  15.830 -2.1078  0.0082 -1.3741
12724TIP3    H259664   4.519   5.451  15.833  0.7389  3.0525 -0.9012
12725TIP3   OH259665   3.461   1.266   1.697  0.1843 -0.3012  0.1722
12725TIP3    H159666   3.523   1.338   1.685  2.7695 -2.3918  0.7108
12725TIP3    H259667   3.397   1.300   1.759  1.2734  1.6047  0.2816
12726TIP3   OH259668   3.802   6.431  13.346 -0.3085 -0.3190 -0.1983
12726TIP3    H159669   3.819   6.379  13.425 -0.0523 -0.1544 -0.1467
12726TIP3    H259670   3.761   6.511  13.379  0.5496  0.1082 -0.1591
12727TIP3   OH259671   1.353   3.925   1.631  0.1775  0.1189 -0.1873
12727TIP3    H159672   1.330   3.927   1.538 -1.3847 -1.4050  0.1472
12727TIP3    H259673   1.276   3.962   1.675  1.0907  1.2548  0.4852
12728TIP3   OH259674   6.113   5.936   1.911  0.4008 -0.2996  0.0354
12728TIP3    H159675   6.133   5.996   1.840 -2.6933 -0.5534 -1.1516
12728TIP3    H259676   6.111   5.849   1.870  0.8112 -0.7218  0.8953
12729TIP3   OH259677   3.076   2.353   3.153 -0.8725 -0.1798 -0.0847
12729TIP3    H159678   3.020   2.320   3.083 -0.8042 -0.6479  0.0789
12729TIP3    H259679   3.148   2.290   3.158 -0.8127 -0.0805  0.3241
12730TIP3   OH259680   2.793   3.455   0.632 -0.1917 -0.2045 -0.1492
12730TIP3    H159681   2.861   3.398   0.596 -1.0924 -0.5594 -1.3422
12730TIP3    H259682   2.730   3.463   0.561 -0.6490  1.3467  0.4202
12731TIP3   OH259683   0.958   3.573   1.876 -0.2429 -0.2060  0.0625
12731TIP3    H159684   1.035   3.617   1.911  0.8635 -1.8165 -0.2757
12731TIP3    H259685   0.900   3.563   1.951  0.8598 -0.9992  0.8360
12732TIP3   OH259686   6.586   0.020  11.941  0.1136 -0.1595  0.2483
12732TIP3    H159687   6.519  -0.019  11.997 -0.1686 -1.0219 -0.6679
12732TIP3    H259688   6.555   0.005  11.851  1.3428 -0.2559 -0.1855
12733TIP3   OH259689   1.212   6.419   1.054  0.1687 -0.2196  0.4361
12733TIP3    H159690   1.183   6.460   0.973  0.5508 -1.7665 -0.5060
12733TIP3    H259691   1.292   6.372   1.030  2.4176  2.3819  2.5505
12734TIP3   OH259692   0.082   4.596   0.048  0.0586 -0.5455  0.1961
12734TIP3    H159693   0.025   4.528   0.012 -0.9246 -0.3638  1.3805
12734TIP3    H259694   0.170   4.570   0.022 -0.3311 -2.1759  0.4923
12735TIP3   OH259695   1.117   1.962  12.627 -0.5547  0.0039 -0.1162
12735TIP3    H159696   1.108   1.932  12.536  0.6588  0.0541 -0.2600
12735TIP3    H259697   1.036   1.933  12.670 -0.8385 -0.6044 -1.0509
12736TIP3   OH259698   3.966   1.306  12.489  0.2834  0.0953 -0.8148
12736TIP3    H159699   3.932   1.365  12.556  3.5825  2.7341 -1.3229
12736TIP3    H259700   4.056   1.337  12.473  1.0631 -3.1660 -3.3394
12737TIP3   OH259701   0.858   1.585  15.353  0.4325  0.3305  0.3929
12737TIP3    H159702   0.903   1.557  15.274 -0.4086  2.2924 -0.8265
12737TIP3    H259703   0.765   1.578  15.333  0.1772 -1.3116  2.0174
12738TIP3   OH259704   4.351   6.164   2.830 -0.3149 -0.4187  0.4235
12738TIP3    H159705   4.430   6.140   2.878  0.8396 -0.2210 -1.3268
12738TIP3    H259706   4.291   6.197   2.897  2.0605  1.9166  1.4742
12739TIP3   OH259707   5.730   3.581  12.108  0.2607 -0.2476 -0.3845
12739TIP3    H159708   5.808   3.606  12.058  0.5624 -1.5176 -0.5745
12739TIP3    H259709   5.694   3.664  12.139  2.0732  0.3186  0.2797
12740TIP3   OH259710   2.337   2.586   3.885  0.0334  0.4627  0.8306
12740TIP3    H159711   2.422   2.550   3.863 -0.7530 -0.1143 -1.3352
12740TIP3    H259712   2.325   2.564   3.978  0.8809 -2.2248  0.3452
12741TIP3   OH259713   2.446   1.137  12.231 -0.0655 -0.6387 -0.0030
12741TIP3    H159714   2.478   1.050  12.254 -0.1002 -0.6087  0.1552
12741TIP3    H259715   2.523   1.182  12.196 -0.3460 -1.1968 -1.3932
12742TIP3   OH259716   1.563   1.945   0.254  0.4202 -0.4423  0.2290
12742TIP3    H159717   1.572   2.040   0.260 -0.1772 -0.4426  1.1608
12742TIP3    H259718   1.634   1.910   0.308 -0.3207 -0.5024  1.1861
12743TIP3   OH259719   1.591   1.639  17.147  0.3313 -0.2110  0.1514
12743TIP3    H159720   1.607   1.671  17.236  1.4430  1.3746 -0.5747
12743TIP3    H259721   1.526   1.700  17.111 -0.3623 -1.0440 -0.0099
12744TIP3   OH259722   4.910   4.956   0.513 -0.6408  0.0081  0.1592
12744TIP3    H159723   4.862   4.990   0.588  1.2622  1.6282  0.7137
12744TIP3    H259724   4.951   4.876   0.544 -0.7318  0.1050  0.5279
12745TIP3   OH259725   6.674   4.180  17.047  0.2714  0.9428 -0.2078
12745TIP3    H159726   6.656   4.198  16.954 -0.9243 -2.7061 -0.7755
12745TIP3    H259727   6.751   4.123  17.046  0.6265  1.3850  1.0851
12746TIP3   OH259728   5.604   6.088   3.562  0.2680 -0.0881  0.3534
12746TIP3    H159729   5.519   6.111   3.599 -0.0889 -0.1887 -0.3830
12746TIP3    H259730   5.584   6.061   3.472  1.0461 -0.3732  0.2626
12747TIP3   OH259731   3.375   4.830  13.059  0.1200 -0.3337 -0.1095
12747TIP3    H159732   3.470   4.829  13.055  0.0765 -3.1264 -2.4054
12747TIP3    H259733   3.348   4.872  12.977 -0.6033 -1.8116 -0.6464
12748TIP3   OH259734   0.222   3.331  12.755  0.0445  0.1734  0.0993
12748TIP3    H159735   0.299   3.273  12.756 -0.3825 -0.4034  1.2789
12748TIP3    H259736   0.223   3.371  12.668  1.9923  0.5976  0.2962
12749TIP3   OH259737   1.167   6.364   4.038 -0.1022 -0.6269  0.2200
12749TIP3    H159738   1.226   6.296   4.070  1.6013  1.0609  0.7159
12749TIP3    H259739   1.083   6.319   4.028  0.9422 -2.7633  0.6893
12750TIP3   OH259740   4.346   4.428   2.419  0.3106 -0.2704 -0.3466
12750TIP3    H159741   4.266   4.399   2.464  0.0182 -2.0518 -1.9952
12750TIP3    H259742   4.333   4.523   2.408  0.2632  0.2029  3.0109
12751TIP3   OH259743   1.548   4.179   2.920  0.2375  0.2968  0.3223
12751TIP3    H159744   1.510   4.257   2.880 -0.9192 -0.7167 -0.5954
12751TIP3    H259745   1.498   4.166   3.000 -0.4362 -0.2224 -0.1720
12752TIP3   OH259746   6.186   5.157  12.864 -0.0895  0.1031 -0.5082
12752TIP3    H159747   6.097   5.123  12.867  0.3866 -1.1680 -0.2361
12752TIP3    H259748   6.241   5.079  12.857  1.0685  0.7777  0.7617
12753TIP3   OH259749   3.678   1.495  11.188  0.2737  0.0905 -0.1738
12753TIP3    H159750   3.620   1.427  11.152  0.1602 -0.2567  0.6379
12753TIP3    H259751   3.758   1.488  11.136  0.0867 -0.3557 -0.4094
12754TIP3   OH259752   6.185   2.687  15.794 -0.4191 -0.3049 -1.0441
12754TIP3    H159753   6.271   2.657  15.824 -1.4762 -1.2522  1.1295
12754TIP3    H259754   6.138   2.607  15.772 -0.8710  0.1900 -1.8863
12755TIP3   OH259755   5.713   1.233   0.554  0.2064 -0.2411  0.2113
12755TIP3    H159756   5.717   1.327   0.566 -0.3399 -0.0399 -1.0796
12755TIP3    H259757   5.758   1.196   0.631  0.3089  1.0517  0.7749
12756TIP3   OH259758   4.819   2.719  11.808  0.0899 -0.3735  0.0971
12756TIP3    H159759   4.874   2.765  11.744 -0.4564  0.4241  0.2047
12756TIP3    H259760   4.808   2.631  11.771  0.9076 -0.3411 -0.2367
12757TIP3   OH259761   1.308   5.903  11.200  0.9906 -0.2577  0.2055
12757TIP3    H159762   1.305   5.993  11.167  0.3055 -0.6699 -0.9127
12757TIP3    H259763   1.358   5.855  11.133 -0.3655 -1.0980 -0.2357
12758TIP3   OH259764   5.195   3.058  16.150  0.4468  0.0798 -0.2715
12758TIP3    H159765   5.153   3.125  16.096 -0.5163 -0.8899 -0.7313
12758TIP3    H259766   5.123   3.000  16.176  0.7385  0.9720  2.6951
12759TIP3   OH259767   3.020   6.193  11.210 -0.4386 -0.7111  0.0575
12759TIP3    H159768   2.983   6.273  11.248 -0.4732 -0.9943  0.6248
12759TIP3    H259769   2.991   6.194  11.119  1.0753  0.8518 -0.4232
12760TIP3   OH259770   4.280   6.007   4.556 -0.2513  0.1509 -0.2359
12760TIP3    H159771   4.349   6.062   4.594 -0.4471  0.2863 -0.0765
12760TIP3    H259772   4.289   5.923   4.600  0.9751 -0.3937 -1.5094
12761TIP3   OH259773   0.746   2.549   0.767 -0.0309 -0.5416 -0.2214
12761TIP3    H159774   0.667   2.588   0.805  0.1377 -0.1203 -0.3048
12761TIP3    H259775   0.717   2.517   0.682 -0.2422 -0.8663 -0.0287
12762TIP3   OH259776   5.348   0.284  15.272  0.1197 -0.1327  0.1490
12762TIP3    H159777   5.343   0.379  15.273  0.9623 -0.0769 -0.3746
12762TIP3    H259778   5.294   0.257  15.198 -3.0536 -0.2800  2.4090
12763TIP3   OH259779   5.917   6.536   5.906  0.5029  0.5741 -0.0876
12763TIP3    H159780   5.825   6.547   5.879 -0.0549 -0.8206  1.1331
12763TIP3    H259781   5.913   6.472   5.977  2.4077  0.7266  0.1791
12764TIP3   OH259782   3.692   2.580   1.546  0.4173 -0.6572 -0.0437
12764TIP3    H159783   3.650   2.558   1.629  0.2950  0.5619  0.2191
12764TIP3    H259784   3.722   2.670   1.557  0.9542 -0.6960 -1.1031
12765TIP3   OH259785   4.796   1.721   5.492 -0.6460 -0.2975  0.3555
12765TIP3    H159786   4.757   1.641   5.526 -0.2137  0.0731  1.7457
12765TIP3    H259787   4.778   1.787   5.558 -1.2536  0.8338 -0.9242
12766TIP3   OH259788   1.380   0.791  13.714 -0.0124  0.2171 -0.0763
12766TIP3    H159789   1.337   0.793  13.799 -0.3784 -0.5894 -0.2322
12766TIP3    H259790   1.387   0.698  13.693  0.0033  0.4082 -0.9593
12767TIP3   OH259791   4.497   0.885   3.651  0.1102  0.6241 -0.0647
12767TIP3    H159792   4.552   0.936   3.591 -0.0422 -1.5606 -2.0936
12767TIP3    H259793   4.534   0.797   3.648 -1.1201  0.0434  1.5653
12768TIP3   OH259794   0.816   3.598   2.949 -0.2563  0.0897 -0.4211
12768TIP3    H159795   0.863   3.516   2.961 -0.7751  0.1307  2.3979
12768TIP3    H259796   0.822   3.616   2.856 -0.9262 -3.6392 -1.2871
12769TIP3   OH259797   5.584   0.634   0.960 -0.1661 -0.2267  0.0348
12769TIP3    H159798   5.632   0.651   0.879  1.7595  0.1613  1.2277
12769TIP3    H259799   5.499   0.675   0.946  0.2890  0.1993 -1.6318
12770TIP3   OH259800   2.709   2.120  13.457 -0.5986  0.4352  0.4617
12770TIP3    H159801   2.718   2.053  13.388 -1.7172 -0.9403  1.6119
12770TIP3    H259802   2.791   2.168  13.455  0.3401 -1.1572 -0.2294
12771TIP3   OH259803   5.552   6.167  16.947  0.1491  0.8481 -0.5071
12771TIP3    H159804   5.554   6.072  16.946  1.3132  0.8619 -0.0483
12771TIP3    H259805   5.629   6.194  16.897 -0.8627  1.5586 -1.7270
12772TIP3   OH259806   5.544   2.919  15.653  0.1276  0.0261 -0.7609
12772TIP3    H159807   5.544   2.839  15.600  1.9294 -0.7568  0.3919
12772TIP3    H259808   5.480   2.903  15.722 -0.8576  0.3143 -1.6008
12773TIP3   OH259809   1.841   3.200   1.858  0.3608 -0.5092 -0.4903
12773TIP3    H159810   1.836   3.121   1.804  1.8131 -0.3492 -0.8777
12773TIP3    H259811   1.927   3.236   1.839 -0.7064  1.7775 -1.1349
12774TIP3   OH259812   0.493   0.661   0.314  0.5781  0.3400  0.3626
12774TIP3    H159813   0.443   0.695   0.239  0.3205  0.8728  0.7756
12774TIP3    H259814   0.427   0.649   0.382  0.9899  0.8804  0.8551
12775TIP3   OH259815   1.487   6.449   1.356 -0.4328 -0.2374  0.4915
12775TIP3    H159816   1.560   6.421   1.410 -0.6944 -0.2883  0.8201
12775TIP3    H259817   1.527   6.473   1.272 -0.3379 -2.9939 -0.3128
12776TIP3   OH259818   5.069   3.319  10.400 -0.2860  0.6557 -0.1770
12776TIP3    H159819   5.083   3.410  10.373  0.3438  1.2803  2.1218
12776TIP3    H259820   4.974   3.311  10.409 -0.2265  1.7339  1.6598
12777TIP3   OH259821   1.793   3.822   1.177 -0.8267 -0.1577  0.4019
12777TIP3    H159822   1.730   3.833   1.248 -1.2643  0.5069 -0.0817
12777TIP3    H259823   1.749   3.858   1.100 -0.6346 -1.4871 -0.3572
12778TIP3   OH259824   4.464   2.691  10.584  0.0164  0.2540  0.2155
12778TIP3    H159825   4.479   2.600  10.560  2.1686  0.6012  0.2173
12778TIP3    H259826   4.380   2.689  10.630 -1.0675 -1.3766 -1.7139
12779TIP3   OH259827   1.667   0.567   3.066  0.3145 -0.5272  0.4175
12779TIP3    H159828   1.727   0.640   3.081 -0.1107  0.2409 -1.4373
12779TIP3    H259829   1.594   0.583   3.127 -0.8447  1.8838 -1.5122
12780TIP3   OH259830   3.940   6.097   5.559  0.4045 -0.5001  0.2691
12780TIP3    H159831   3.864   6.040   5.551 -0.0288  0.1420 -0.1196
12780TIP3    H259832   3.927   6.166   5.494  0.0742  1.0140  1.8926
12781TIP3   OH259833   5.451   5.283  17.065  0.1679  0.1927  0.2059
12781TIP3    H159834   5.395   5.313  16.994  1.5106  0.2667 -0.8364
12781TIP3    H259835   5.496   5.206  17.031 -1.7085 -1.8170  2.1502
12782TIP3   OH259836   0.909   3.095  17.133 -0.3451 -0.0777 -0.5044
12782TIP3    H159837   0.963   3.018  17.113  0.3452  0.2379  0.0992
12782TIP3    H259838   0.972   3.166  17.144 -1.0144  0.7161 -1.6479
12783TIP3   OH259839   6.150   5.733  14.813 -0.0178  0.2864  0.0056
12783TIP3    H159840   6.234   5.687  14.810  0.8009  1.7247  0.1399
12783TIP3    H259841   6.143   5.774  14.726  0.2023  1.5145  0.5659
12784TIP3   OH259842   4.532   3.466  14.294 -0.1962  0.2802  0.1634
12784TIP3    H159843   4.468   3.506  14.353  0.6349 -1.3003  2.1768
12784TIP3    H259844   4.598   3.535  14.281  0.4857  0.0968  2.4480
12785TIP3   OH259845   3.709   5.149   4.428 -0.2300 -0.4734  0.6019
12785TIP3    H159846   3.657   5.118   4.354  0.9749 -0.7116 -0.1589
12785TIP3    H259847   3.790   5.182   4.389 -1.4964  3.8135  1.3492
12786TIP3   OH259848   4.404   4.525  13.620 -0.1578  0.0949  0.2328
12786TIP3    H159849   4.354   4.470  13.559 -0.8605  0.4213  0.5054
12786TIP3    H259850   4.494   4.492  13.614 -0.0504  0.6322 -1.5679
12787TIP3   OH259851   0.880   5.508  12.230  0.3354  0.3296  0.1780
12787TIP3    H159852   0.869   5.486  12.322 -0.5196  2.0783  0.5074
12787TIP3    H259853   0.954   5.454  12.201 -0.5344 -1.5668  1.3991
12788TIP3   OH259854   2.254   0.360  15.309  0.1185  0.0437  0.2518
12788TIP3    H159855   2.176   0.355  15.255  0.9562 -0.7146 -0.9251
12788TIP3    H259856   2.261   0.273  15.349  0.8371 -0.1820 -0.3502
12789TIP3   OH259857   4.108   5.717   0.330  0.2230  0.5406 -0.2684
12789TIP3    H159858   4.154   5.790   0.290  0.5527  0.9201  0.7878
12789TIP3    H259859   4.174   5.673   0.384 -0.5140  0.8094  0.8793
12790TIP3   OH259860   1.462   6.745   0.243 -0.1311  0.0945  0.6759
12790TIP3    H159861   1.532   6.683   0.259 -0.9477 -1.3990 -1.3431
12790TIP3    H259862   1.401   6.699   0.185 -3.1072  1.1178  2.8461
12791TIP3   OH259863   2.552   4.434  10.611  0.2094 -0.2990 -0.1142
12791TIP3    H159864   2.526   4.516  10.568  0.4797  1.8850  3.6450
12791TIP3    H259865   2.502   4.433  10.692  2.1055 -2.6406  1.0897
12792TIP3   OH259866   0.934   6.195  14.749  0.0976  0.5839  0.0814
12792TIP3    H159867   0.944   6.279  14.703  0.4866  0.2680 -0.4263
12792TIP3    H259868   0.952   6.216  14.841  1.5908  0.8126 -0.2354
12793TIP3   OH259869   5.073   5.024  11.917  0.0874  0.1160 -0.5540
12793TIP3    H159870   5.092   5.096  11.856  1.6634  0.7406  0.6263
12793TIP3    H259871   5.032   5.067  11.993 -2.0813 -0.6810 -1.2392
12794TIP3   OH259872   2.185   3.229   4.810 -0.3818  0.5515  0.0070
12794TIP3    H159873   2.177   3.260   4.900  1.3199 -0.0451  0.3928
12794TIP3    H259874   2.250   3.286   4.771 -2.3261  1.8668 -1.3671
12795TIP3   OH259875   0.189   0.586  14.626 -0.1720  0.1143  0.6098
12795TIP3    H159876   0.225   0.566  14.713 -0.7356 -3.0041  0.2042
12795TIP3    H259877   0.266   0.592  14.569  0.0135 -1.5222  0.6662
12796TIP3   OH259878   5.451   3.620  14.547  0.1765  0.1026  0.0013
12796TIP3    H159879   5.371   3.585  14.586 -0.9696  0.8530 -1.6050
12796TIP3    H259880   5.420   3.683  14.482  2.1114  1.1393  0.0606
12797TIP3   OH259881   5.630   2.976   9.900 -0.0148 -0.0710  0.0915
12797TIP3    H159882   5.634   3.048   9.964  0.6593 -0.1823  0.1805
12797TIP3    H259883   5.537   2.963   9.884 -0.1614  0.4144  0.5435
12798TIP3   OH259884   3.512   6.464   6.513  0.3770 -0.2638  0.1954
12798TIP3    H159885   3.554   6.498   6.434  1.4930 -1.3623  0.2981
12798TIP3    H259886   3.560   6.384   6.533 -0.0668 -0.1507  1.8263
12799TIP3   OH259887   1.834   4.917   1.834  0.1436  0.0524 -0.0355
12799TIP3    H159888   1.911   4.945   1.784  0.7432 -0.0612  0.8046
12799TIP3    H259889   1.826   4.823   1.815  0.7027 -0.1092  0.5097
12800TIP3   OH259890   0.851   5.030  15.640  0.0230  0.2115  0.4058
12800TIP3    H159891   0.789   4.958  15.651  1.9709 -1.3628  1.2967
12800TIP3    H259892   0.873   5.057  15.729  0.8342  0.5843  0.0941
12801TIP3   OH259893   0.937   2.858  16.640  0.3839 -0.5281 -0.4179
12801TIP3    H159894   1.007   2.793  16.640  0.8402 -0.0393 -0.2240
12801TIP3    H259895   0.865   2.815  16.685  0.9912 -0.5743  0.5228
12802TIP3   OH259896   5.064   3.409   4.535 -0.0519 -0.2036 -0.3401
12802TIP3    H159897   5.136   3.348   4.551 -1.3046 -1.2376  1.4862
12802TIP3    H259898   5.051   3.453   4.620 -0.1101  1.5757 -1.2472
12803TIP3   OH259899   2.073   3.474   2.668 -0.1010 -0.3281  0.1510
12803TIP3    H159900   2.114   3.400   2.714 -1.4260 -0.3212  1.3957
12803TIP3    H259901   2.129   3.490   2.593  0.4122 -2.3897  0.0600
12804TIP3   OH259902   2.789   6.511   6.524 -0.1308  0.2441 -0.4699
12804TIP3    H159903   2.734   6.589   6.520  0.1323  0.4107 -0.8981
12804TIP3    H259904   2.874   6.543   6.555 -0.3907 -0.0784  0.6141
12805TIP3   OH259905   1.305   1.135  11.653  0.0021  0.4696  0.7057
12805TIP3    H159906   1.294   1.176  11.738 -2.8017 -1.4802  1.3663
12805TIP3    H259907   1.251   1.188  11.594 -1.0928 -0.3676  0.9333
12806TIP3   OH259908   4.798   1.441   5.238 -0.1076  0.0940  0.8536
12806TIP3    H159909   4.840   1.527   5.236 -1.7071  0.9087  1.1451
12806TIP3    H259910   4.870   1.379   5.252  0.8875  1.5154  2.2668
12807TIP3   OH259911   2.150   5.045   5.043 -0.3665  0.3329 -0.2929
12807TIP3    H159912   2.105   5.049   4.959 -0.0804  0.3422 -0.4490
12807TIP3    H259913   2.178   5.135   5.059 -0.8149  0.4161  0.0321
12808TIP3   OH259914   0.584   1.267   2.264  0.6063  0.4860  0.2613
12808TIP3    H159915   0.554   1.323   2.335  0.8695  0.1053  0.6731
12808TIP3    H259916   0.639   1.201   2.306  0.0723 -0.2572 -0.1826
12809TIP3   OH259917   3.097   3.134  15.798  0.5291  0.6534 -0.2768
12809TIP3    H159918   3.008   3.108  15.777  0.2337  1.1050  0.4191
12809TIP3    H259919   3.099   3.143  15.893  1.7540 -0.9400 -0.1194
12810TIP3   OH259920   6.151   0.154   2.651 -0.6250  0.4379  0.0580
12810TIP3    H159921   6.181   0.071   2.614 -0.2210  0.4748  0.3024
12810TIP3    H259922   6.186   0.154   2.740  1.0833  1.7753 -0.5920
12811TIP3   OH259923   6.515   6.697  15.136 -0.0422 -0.0214  0.2843
12811TIP3    H159924   6.541   6.789  15.146  0.6090  0.1384 -2.3925
12811TIP3    H259925   6.598   6.649  15.140 -0.3281 -0.4455  1.1442
12812TIP3   OH259926   4.262   3.252  16.501 -0.1987  0.2812  0.2019
12812TIP3    H159927   4.294   3.258  16.411  1.3778 -2.3564  0.5444
12812TIP3    H259928   4.193   3.185  16.497 -0.9175  0.9844  0.7549
12813TIP3   OH259929   1.126   5.408  16.519  0.0820  0.0138  0.6297
12813TIP3    H159930   1.033   5.427  16.515  0.0494 -0.3914 -1.0827
12813TIP3    H259931   1.166   5.489  16.553 -0.7674  0.5969  0.2552
12814TIP3   OH259932   5.804   0.062   5.953 -0.1185  0.8180 -0.3987
12814TIP3    H159933   5.755  -0.020   5.941  1.1809  0.1936 -1.5396
12814TIP3    H259934   5.825   0.064   6.047  0.7847 -0.7111 -0.5492
12815TIP3   OH259935   3.931   1.729   2.270 -0.3288 -0.3005 -0.4578
12815TIP3    H159936   3.849   1.745   2.224 -0.8595  0.0086  0.5915
12815TIP3    H259937   3.968   1.816   2.284 -0.2010 -0.3910 -0.2327
12816TIP3   OH259938   5.866   2.693   3.572 -0.5647 -0.2747  0.1616
12816TIP3    H159939   5.873   2.662   3.662  0.8942  0.1777  0.2161
12816TIP3    H259940   5.821   2.777   3.579  0.1333  0.0752  0.5531
12817TIP3   OH259941   6.603   0.390   6.263  0.6677 -0.6316 -0.2778
12817TIP3    H159942   6.543   0.335   6.313  0.9586 -0.5389  0.1772
12817TIP3    H259943   6.626   0.461   6.323  1.6678 -0.9701 -0.2503
12818TIP3   OH259944   2.022   1.066   0.462 -0.6574 -0.1695 -0.1850
12818TIP3    H159945   2.114   1.090   0.452 -0.4006  0.1174  2.5514
12818TIP3    H259946   1.979   1.106   0.386  1.4331 -0.2400 -1.4482
12819TIP3   OH259947   4.024   5.720   1.881  0.6024  1.0267 -0.1527
12819TIP3    H159948   4.059   5.719   1.970  0.7688  0.6560 -0.2200
12819TIP3    H259949   4.030   5.811   1.854 -1.3262  1.4981  0.9490
12820TIP3   OH259950   3.978   5.263   2.457 -0.8014 -0.2766 -0.2794
12820TIP3    H159951   3.947   5.199   2.393  0.7393 -0.4640 -0.8713
12820TIP3    H259952   4.071   5.274   2.436 -0.3262 -0.1408  1.7435
12821TIP3   OH259953   3.578   4.043   5.051  0.4382 -0.2100 -0.1009
12821TIP3    H159954   3.575   4.043   4.955 -0.6373  0.7088 -0.0842
12821TIP3    H259955   3.575   3.951   5.075  1.2407 -0.4751 -0.9567
12822TIP3   OH259956   6.750   2.956  16.153  0.6733 -0.7886 -0.1034
12822TIP3    H159957   6.822   2.987  16.208  0.1966 -0.7846  0.5306
12822TIP3    H259958   6.710   3.036  16.119 -1.8957 -0.5616  3.2585
12823TIP3   OH259959   1.276   4.148  12.008 -0.0602  0.3642  0.1878
12823TIP3    H159960   1.313   4.234  11.989  3.8415 -1.2073  0.3453
12823TIP3    H259961   1.328   4.114  12.080  0.1216 -3.1609 -1.4724
12824TIP3   OH259962   2.837   1.848   5.684  0.0532 -0.1991  0.0441
12824TIP3    H159963   2.900   1.857   5.755 -0.2189 -1.8818  0.5186
12824TIP3    H259964   2.801   1.760   5.695 -1.4687  0.2763 -0.9663
12825TIP3   OH259965   2.441   0.980  11.243  0.5877  0.3373  0.2520
12825TIP3    H159966   2.500   0.926  11.190 -0.4590 -0.6853  0.1201
12825TIP3    H259967   2.453   1.069  11.210  1.3100 -0.0151 -0.4524
12826TIP3   OH259968   4.472   3.399   0.161  0.2481  0.1955  0.2653
12826TIP3    H159969   4.562   3.394   0.192  0.8457 -0.0493 -1.4442
12826TIP3    H259970   4.479   3.426   0.069 -1.4043  0.0060  0.0586
12827TIP3   OH259971   4.437   5.021   2.522 -0.5233 -0.2810 -0.0067
12827TIP3    H159972   4.444   5.107   2.564  1.6197 -0.9257  1.0411
12827TIP3    H259973   4.496   5.027   2.446  0.6777 -1.2499  0.8416
12828TIP3   OH259974   6.319   0.461   0.401 -0.1284 -0.8263  0.5127
12828TIP3    H159975   6.335   0.409   0.323  2.3884  1.5203 -0.5938
12828TIP3    H259976   6.264   0.533   0.372  1.9267  0.8037  0.5725
12829TIP3   OH259977   0.236   1.658  10.430  0.1553  0.1963  0.1017
12829TIP3    H159978   0.260   1.607  10.508  0.4349  0.4103  0.1540
12829TIP3    H259979   0.219   1.593  10.363 -1.8935 -0.0983  0.8485
12830TIP3   OH259980   2.135   2.062  14.028 -0.5769  0.0403 -0.2505
12830TIP3    H159981   2.177   1.982  14.059  1.1074  0.4917 -1.3161
12830TIP3    H259982   2.086   2.034  13.950  0.6177  0.1729 -1.0591
12831TIP3   OH259983   0.340   2.588  15.613 -0.4810  0.2367  0.2677
12831TIP3    H159984   0.345   2.636  15.695  1.5683  0.2220  0.1859
12831TIP3    H259985   0.268   2.629  15.565 -0.9255  1.0105  1.5775
12832TIP3   OH259986   3.402   4.458   4.410  0.4769 -0.1697 -0.0570
12832TIP3    H159987   3.468   4.461   4.341  2.2880 -0.6618  1.5894
12832TIP3    H259988   3.393   4.548   4.440  0.4830 -0.1180 -0.2124
12833TIP3   OH259989   6.456   4.576  13.279  0.3212 -0.9278 -0.0264
12833TIP3    H159990   6.514   4.629  13.333  0.0613  0.9169 -1.5006
12833TIP3    H259991   6.514   4.530  13.219  0.3412  0.2399 -0.9185
12834TIP3   OH259992   0.805   4.259   1.809 -0.7942 -0.4268  0.7386
12834TIP3    H159993   0.757   4.288   1.887  0.6813  0.1563  1.4501
12834TIP3    H259994   0.869   4.328   1.793 -0.9678 -0.6196 -0.9092
12835TIP3   OH259995   5.159   6.684  15.070 -0.1325  0.3300  0.2985
12835TIP3    H159996   5.115   6.676  15.155  0.1863  2.8726  0.7416
12835TIP3    H259997   5.200   6.771  15.073  0.0542  0.3530 -2.3705
12836TIP3   OH259998   1.752   2.221  15.635  0.5988  0.2896 -0.3428
12836TIP3    H159999   1.705   2.180  15.707  2.2575 -2.7970 -0.8870
12836TIP3    H260000   1.691   2.285  15.598 -0.8596  0.7229  2.7098
12837TIP3   OH260001   6.072   5.843  17.005  0.6761  0.6752 -0.1855
12837TIP3    H160002   6.142   5.891  16.960  0.9610  0.2390 -0.2180
12837TIP3    H260003   6.117   5.767  17.044  0.3337  0.7648  0.3762
12838TIP3   OH260004   4.060   6.299  15.454 -0.0475 -0.2059 -0.0951
12838TIP3    H160005   4.138   6.257  15.417  0.3704  1.3554 -1.0802
12838TIP3    H260006   4.015   6.230  15.501  2.6690 -0.8479  1.6873
12839TIP3   OH260007   1.759   6.713   5.365  0.5971 -0.1385 -0.5261
12839TIP3    H160008   1.771   6.631   5.413 -0.5219  0.2848  0.4959
12839TIP3    H260009   1.809   6.778   5.414 -0.3121  0.2374 -0.0881
12840TIP3   OH260010   0.001   1.831  10.866  0.0774 -0.1154  0.1376
12840TIP3    H160011   0.085   1.827  10.820  1.0246 -0.2838  1.8344
12840TIP3    H260012  -0.054   1.767  10.821  0.6259  0.4827 -1.4279
12841TIP3   OH260013   5.775   3.027  15.228 -0.3892  0.2466 -0.1924
12841TIP3    H160014   5.821   3.073  15.297 -0.0466 -0.7336  0.2461
12841TIP3    H260015   5.735   2.952  15.272  0.0698 -0.5441 -1.1009
12842TIP3   OH260016   2.064   0.755  17.229  0.3005  0.1603  0.2547
12842TIP3    H160017   2.010   0.714  17.296 -0.6920 -1.2119 -1.3803
12842TIP3    H260018   2.022   0.840  17.213 -0.8290 -0.5136 -0.3452
12843TIP3   OH260019   3.005   5.872   5.388 -0.3004 -0.2981 -0.0067
12843TIP3    H160020   3.076   5.931   5.416 -2.3136  1.0601  2.4583
12843TIP3    H260021   3.048   5.807   5.333  2.5900  1.4328  0.1065
12844TIP3   OH260022   6.556   5.417  16.681 -0.1288 -0.0296  1.4440
12844TIP3    H160023   6.647   5.431  16.708  0.0292  1.6213  0.1287
12844TIP3    H260024   6.508   5.492  16.717 -0.3219  0.9651 -0.7820
12845TIP3   OH260025   2.247   4.170  13.106 -0.1591  0.7891 -0.3423
12845TIP3    H160026   2.252   4.263  13.088 -0.3923  0.9663  0.4952
12845TIP3    H260027   2.271   4.161  13.198 -0.5758  0.0742 -0.2945
12846TIP3   OH260028   0.628   2.877   5.477  0.2431  0.0475  0.6101
12846TIP3    H160029   0.610   2.964   5.443 -0.3592 -0.4816 -0.4322
12846TIP3    H260030   0.672   2.831   5.406 -1.4472 -1.2083  0.3419
12847TIP3   OH260031   5.292   0.407   2.292 -0.5574  0.0164 -0.0934
12847TIP3    H160032   5.308   0.361   2.210 -0.5995  0.2739 -0.2465
12847TIP3    H260033   5.199   0.395   2.310 -0.7179  0.6320 -0.4950
12848TIP3   OH260034   0.026   4.957   5.009  0.1303 -0.0974  0.4067
12848TIP3    H160035   0.074   5.003   5.078  0.3657  0.2440  0.0172
12848TIP3    H260036  -0.002   5.026   4.949 -1.2293 -0.2514  0.8532
12849TIP3   OH260037   1.164   4.009  13.520 -0.3260 -0.3234 -0.1219
12849TIP3    H160038   1.092   4.044  13.466 -0.1303  1.8565  0.9719
12849TIP3    H260039   1.141   4.034  13.609  1.9068  0.6118  0.2116
12850TIP3   OH260040   3.025   3.254  13.313  0.5977 -0.6817  0.2532
12850TIP3    H160041   2.929   3.258  13.318  0.6094 -0.0707  0.0833
12850TIP3    H260042   3.049   3.184  13.373  0.0324 -0.9246  0.2005
12851TIP3   OH260043   2.007   6.671   1.978  0.0405 -0.8947  0.1378
12851TIP3    H160044   2.003   6.606   1.907  0.2584 -0.8876  0.1203
12851TIP3    H260045   2.098   6.698   1.981  0.0384 -0.9201  0.4458
12852TIP3   OH260046   0.170   3.118  16.226 -0.0004 -0.4188 -0.1661
12852TIP3    H160047   0.255   3.100  16.267  0.6278  0.1298 -1.2160
12852TIP3    H260048   0.138   3.195  16.272  1.6062  1.3908 -1.9923
12853TIP3   OH260049   3.642   2.435  13.934  0.0997 -0.3729 -0.1681
12853TIP3    H160050   3.599   2.351  13.919 -1.6806  0.3819  0.6579
12853TIP3    H260051   3.715   2.414  13.993 -0.0787 -1.3844 -0.2907
12854TIP3   OH260052   0.150   5.086  13.857  0.2127 -0.0947 -0.0223
12854TIP3    H160053   0.148   5.181  13.851 -0.5177 -0.1958 -1.5584
12854TIP3    H260054   0.059   5.061  13.869  0.0995 -0.7104 -1.9167
12855TIP3   OH260055   1.632   0.471   6.682 -0.4746 -0.2156  0.0866
12855TIP3    H160056   1.609   0.512   6.765 -1.0421 -2.3335  1.0087
12855TIP3    H260057   1.728   0.472   6.680 -0.4533 -0.4286  0.9219
12856TIP3   OH260058   2.862   4.138  14.209  0.1769 -0.1455  0.9637
12856TIP3    H160059   2.791   4.089  14.166  0.3555  0.3400  0.0957
12856TIP3    H260060   2.817   4.198  14.268 -0.0674 -0.9472  1.6032
12857TIP3   OH260061   2.746   1.612  15.276 -0.3013 -1.0877  0.4931
12857TIP3    H160062   2.728   1.567  15.194  1.0093  0.4451 -0.6582
12857TIP3    H260063   2.685   1.686  15.276  1.0221  0.0092 -0.0171
12858TIP3   OH260064   6.522   0.926   4.638 -0.4133 -0.5240 -0.2987
12858TIP3    H160065   6.541   0.925   4.732  2.2280 -2.9778 -0.7848
12858TIP3    H260066   6.437   0.883   4.630 -0.7879 -0.0445  0.9622
12859TIP3   OH260067   6.621   5.488  17.025  0.2288 -0.8754  0.3978
12859TIP3    H160068   6.611   5.531  17.110 -2.2813  0.3316 -0.4578
12859TIP3    H260069   6.641   5.397  17.047  0.8496 -0.3164  2.2624
12860TIP3   OH260070   1.986   1.023  12.904 -0.3319 -0.1752 -0.2270
12860TIP3    H160071   2.013   0.957  12.968 -1.9119 -0.7134 -0.0959
12860TIP3    H260072   1.897   1.047  12.931 -0.5024  0.5693 -1.4342
12861TIP3   OH260073   0.775   0.884  13.384 -0.4438  0.2096 -0.1827
12861TIP3    H160074   0.775   0.978  13.368  2.2450  0.1215 -0.8350
12861TIP3    H260075   0.842   0.871  13.451 -0.1836 -1.3441 -0.7226
12862TIP3   OH260076   4.417   0.520   5.986 -0.1861 -0.2192  0.4879
12862TIP3    H160077   4.475   0.524   6.062 -0.5972  1.7148  0.7180
12862TIP3    H260078   4.474   0.533   5.911  0.2426 -2.2743  0.4248
12863TIP3   OH260079   3.211   5.768  15.314  0.2925 -0.0707 -0.3793
12863TIP3    H160080   3.136   5.787  15.370  0.7269  1.5709 -0.3185
12863TIP3    H260081   3.229   5.675  15.328  1.2018  0.5628  3.2285
12864TIP3   OH260082   4.370   1.624   2.394 -0.0253 -0.4062  0.4839
12864TIP3    H160083   4.301   1.565   2.362  0.7986 -0.8792 -0.4254
12864TIP3    H260084   4.387   1.594   2.483  0.3707 -1.5303  0.0380
12865TIP3   OH260085   3.394   4.320  15.370 -0.1613 -0.1007 -0.0687
12865TIP3    H160086   3.317   4.296  15.422 -1.6973  1.7416 -1.4097
12865TIP3    H260087   3.468   4.308  15.430 -1.6718 -0.1364  1.8419
12866TIP3   OH260088   0.765   2.070  12.545 -0.1475 -0.0577  0.3844
12866TIP3    H160089   0.804   1.988  12.578  0.4370  0.3874  0.8035
12866TIP3    H260090   0.748   2.052  12.452  1.0868 -0.2600  0.1836
12867TIP3   OH260091   5.856   0.585  14.766  0.6373  0.0090 -0.6512
12867TIP3    H160092   5.902   0.614  14.844  2.0748  0.7992 -1.7846
12867TIP3    H260093   5.849   0.490  14.777 -0.1354  0.2192  0.9261
12868TIP3   OH260094   4.693   2.359   5.664 -0.0215 -0.0937  0.3159
12868TIP3    H160095   4.736   2.307   5.732  0.0854 -0.5722 -0.1127
12868TIP3    H260096   4.620   2.305   5.635  3.0054 -2.3019 -3.6553
12869TIP3   OH260097   4.227   4.992  15.112 -0.4190 -0.0684 -0.4237
12869TIP3    H160098   4.302   5.017  15.167  0.4141 -1.2943 -0.9878
12869TIP3    H260099   4.190   4.915  15.156 -2.3482  1.4678  0.7385
12870TIP3   OH260100   1.870   5.441   2.469  0.2389 -0.2131 -1.0807
12870TIP3    H160101   1.817   5.362   2.457  1.2929 -1.1133  0.0954
12870TIP3    H260102   1.840   5.477   2.553  2.1088 -1.2463  0.0605
12871TIP3   OH260103   3.903   6.449  12.026 -0.1268 -0.1781 -0.1631
12871TIP3    H160104   3.812   6.420  12.014  0.2342 -2.3126  1.8676
12871TIP3    H260105   3.898   6.514  12.096 -0.2692  1.0148 -1.2455
12872TIP3   OH260106   0.801   6.764   3.432  0.4949 -0.1727  0.0876
12872TIP3    H160107   0.896   6.748   3.434  0.6939  0.7321 -1.3645
12872TIP3    H260108   0.763   6.680   3.457  1.6412 -1.4046 -2.1256
12873TIP3   OH260109   4.901   6.367   0.769  0.0031 -0.1214 -0.6735
12873TIP3    H160110   4.905   6.290   0.826 -1.8710 -0.0958 -0.4916
12873TIP3    H260111   4.920   6.441   0.826 -1.1845 -0.1670 -0.1998
12874TIP3   OH260112   2.509   6.657  13.016 -0.2292  0.1295 -0.0751
12874TIP3    H160113   2.490   6.677  13.108 -0.1065  1.1621 -0.2698
12874TIP3    H260114   2.435   6.694  12.968 -1.4949 -2.4374 -0.2266
12875TIP3   OH260115   4.938   3.845  13.915 -0.4539  0.6492  0.1648
12875TIP3    H160116   5.014   3.798  13.947 -0.6746 -0.3705 -0.7725
12875TIP3    H260117   4.970   3.934  13.898  0.1907  0.5842  1.0501
12876TIP3   OH260118   5.495   1.770  13.976  0.3130 -0.4916  0.5290
12876TIP3    H160119   5.521   1.816  14.056 -0.3039 -0.9448  1.0049
12876TIP3    H260120   5.405   1.742  13.993  0.0243 -0.2132 -0.5044
12877TIP3   OH260121   5.589   2.114  12.931  0.3519  0.5764 -0.3544
12877TIP3    H160122   5.616   2.043  12.990 -0.5427  0.5789  0.0732
12877TIP3    H260123   5.496   2.098  12.917  0.3234  1.2205 -0.8890
12878TIP3   OH260124   2.830   4.649  13.490  0.4911 -0.0689  0.0491
12878TIP3    H160125   2.736   4.643  13.474  0.2645  2.7346  0.0741
12878TIP3    H260126   2.869   4.644  13.402  0.1905  0.5454 -0.1244
12879TIP3   OH260127   0.177   0.289  12.709  0.2418 -0.0303  0.0051
12879TIP3    H160128   0.254   0.270  12.655 -1.0493  1.0767 -2.3294
12879TIP3    H260129   0.155   0.206  12.750  1.0676 -1.0085 -1.4989
12880TIP3   OH260130   4.693   6.512   3.824 -0.4065  0.0237  0.2017
12880TIP3    H160131   4.682   6.419   3.839  0.2824  0.0429  0.8625
12880TIP3    H260132   4.726   6.547   3.907 -1.6550  1.0334  0.2957
12881TIP3   OH260133   3.431   0.453   5.448 -0.2196  1.0779 -0.2820
12881TIP3    H160134   3.382   0.426   5.370 -0.9763  0.7940  0.2819
12881TIP3    H260135   3.388   0.407   5.520  0.0995  1.8020  0.3776
12882TIP3   OH260136   5.468   1.570   4.526  0.1735  0.2098  0.7188
12882TIP3    H160137   5.482   1.631   4.454  0.2113  0.3552  0.8500
12882TIP3    H260138   5.543   1.583   4.584  0.1491  0.0859  0.7792
12883TIP3   OH260139   0.827   5.376   1.411  0.3355 -0.5766  0.3102
12883TIP3    H160140   0.877   5.295   1.404 -0.1360 -0.7808 -0.7547
12883TIP3    H260141   0.752   5.354   1.466 -0.2560 -1.0952 -0.6989
12884TIP3   OH260142   3.692   5.606  16.085  0.1221  0.3495 -0.2287
12884TIP3    H160143   3.781   5.641  16.074  0.2168 -0.1754 -1.1436
12884TIP3    H260144   3.685   5.589  16.179  1.3361 -0.5075 -0.2905
12885TIP3   OH260145   3.181   0.920  14.842  0.0553  0.1852 -0.5129
12885TIP3    H160146   3.178   1.005  14.886  2.2666 -0.0700  0.1355
12885TIP3    H260147   3.171   0.942  14.749  0.5681  1.1430 -0.3455
12886TIP3   OH260148   6.086   1.956   4.944 -0.0880 -0.6052  0.2811
12886TIP3    H160149   6.110   1.902   4.869  0.1395  1.4722 -1.1813
12886TIP3    H260150   5.995   1.983   4.925 -0.0503 -0.1318  0.7611
12887TIP3   OH260151   3.766   6.359   2.940 -0.1465  0.0074 -0.1445
12887TIP3    H160152   3.760   6.394   3.029 -1.9061 -0.3028 -0.1260
12887TIP3    H260153   3.687   6.390   2.896 -0.2700 -1.4770 -1.0151
12888TIP3   OH260154   4.312   5.790  11.699  0.1923  0.1380 -0.0063
12888TIP3    H160155   4.260   5.821  11.624  0.1467  0.2745  0.0834
12888TIP3    H260156   4.351   5.708  11.668  0.7549  0.5684 -0.4228
12889TIP3   OH260157   5.167   4.098   4.498  0.4296  0.2289 -0.5673
12889TIP3    H160158   5.222   4.103   4.576 -0.2355 -1.0360 -0.0142
12889TIP3    H260159   5.124   4.183   4.493  0.6724  0.4042  0.3020
12890TIP3   OH260160   3.962   1.297  13.483  0.4136 -0.1311  0.5809
12890TIP3    H160161   3.895   1.348  13.436  0.4588  0.1050  0.7742
12890TIP3    H260162   4.027   1.362  13.510  0.0201 -0.1566  1.6184
12891TIP3   OH260163   0.620   1.850   1.178  0.4193  0.0238 -0.1610
12891TIP3    H160164   0.570   1.774   1.146  0.3175  0.2362 -0.5130
12891TIP3    H260165   0.695   1.812   1.223  0.5217 -0.2873 -0.5863
12892TIP3   OH260166   2.663   6.794   3.168  0.1625  0.1745  0.7095
12892TIP3    H160167   2.667   6.846   3.088  1.7175  0.4913  0.9677
12892TIP3    H260168   2.753   6.794   3.201 -0.2942 -0.6531  2.0087
12893TIP3   OH260169   5.434   0.187   3.504 -0.1036 -0.3882 -0.2091
12893TIP3    H160170   5.410   0.216   3.592  0.0026 -1.1109  0.0598
12893TIP3    H260171   5.376   0.236   3.446 -0.0395  0.2397  0.2450
12894TIP3   OH260172   4.895   5.774  12.077 -0.0308  0.0270 -0.0115
12894TIP3    H160173   4.897   5.863  12.043  4.5846  0.8033  1.9066
12894TIP3    H260174   4.981   5.738  12.054 -0.9518 -3.1649  1.2556
12895TIP3   OH260175   0.145   3.396   4.207 -0.1936  0.3820  0.0734
12895TIP3    H160176   0.238   3.375   4.208 -0.6102 -1.6582 -0.5771
12895TIP3    H260177   0.117   3.380   4.298 -0.2741 -0.8763 -0.1597
12896TIP3   OH260178   2.401   3.650  15.516 -0.2193 -0.4215 -0.4247
12896TIP3    H160179   2.350   3.568  15.517  1.1644 -1.3243  3.0453
12896TIP3    H260180   2.482   3.628  15.561  0.3011  2.8129  0.3093
12897TIP3   OH260181   6.162   6.145   1.734 -0.2262  0.2229  0.5555
12897TIP3    H160182   6.256   6.133   1.745  0.0466 -0.0854 -1.8671
12897TIP3    H260183   6.151   6.240   1.725 -0.1285  0.2456  0.6753
12898TIP3   OH260184   6.397   4.509   2.688 -0.5455 -0.0952  0.4167
12898TIP3    H160185   6.461   4.579   2.702 -1.3827  0.8356 -0.3665
12898TIP3    H260186   6.399   4.493   2.594  0.2205 -1.6950  0.6893
12899TIP3   OH260187   1.638   3.655  13.700  0.5261  0.0286  0.0204
12899TIP3    H160188   1.660   3.690  13.786  2.3309 -3.8363  1.2448
12899TIP3    H260189   1.566   3.710  13.670 -0.9218  0.8135  4.4945
12900TIP3   OH260190   3.573   2.524  12.552  0.1312  1.0316 -0.3461
12900TIP3    H160191   3.526   2.516  12.635  0.0728 -1.9245 -0.6240
12900TIP3    H260192   3.623   2.606  12.561  0.2784  0.6823  2.6536
12901TIP3   OH260193   3.564   5.128  16.683  0.2686 -0.2841 -0.1207
12901TIP3    H160194   3.534   5.038  16.695 -1.2057  0.1307 -0.6699
12901TIP3    H260195   3.578   5.161  16.773  0.6715 -0.9939  0.0832
12902TIP3   OH260196   4.328   6.268   1.768 -0.2027  0.0509 -0.0366
12902TIP3    H160197   4.412   6.277   1.814 -0.1443 -1.6783  0.2222
12902TIP3    H260198   4.269   6.231   1.833 -0.9941  0.6315 -0.4258
12903TIP3   OH260199   3.062   6.281  16.574  0.0485  0.2443 -0.0530
12903TIP3    H160200   3.097   6.369  16.566  2.0602 -0.5032  0.1950
12903TIP3    H260201   3.131   6.224  16.539 -0.9614 -1.2641  0.3552
12904TIP3   OH260202   5.207   6.395   4.746 -0.0143  0.4857  0.2990
12904TIP3    H160203   5.120   6.358   4.762  0.1903  0.1450  0.6263
12904TIP3    H260204   5.211   6.472   4.803 -0.9046  1.7197 -1.2815
12905TIP3   OH260205   1.875   1.164   1.473  0.0625 -0.0993 -0.1437
12905TIP3    H160206   1.847   1.225   1.405  1.2110  0.8856  0.2370
12905TIP3    H260207   1.970   1.157   1.460  0.0346 -1.2478  0.2722
12906TIP3   OH260208   3.513   1.023  16.092  0.5627 -0.6454  0.2514
12906TIP3    H160209   3.583   1.055  16.035  0.2585  0.0616  0.2697
12906TIP3    H260210   3.525   1.072  16.174 -0.7307  0.4184 -0.1782
12907TIP3   OH260211   6.684   4.711   2.105 -0.3239 -0.0502 -0.2502
12907TIP3    H160212   6.644   4.625   2.115 -2.5028  1.1695  2.1118
12907TIP3    H260213   6.631   4.756   2.039 -0.7879  0.3687  0.4002
12908TIP3   OH260214   4.342   3.996   2.981  0.2126  0.1731 -0.1286
12908TIP3    H160215   4.319   4.086   2.961 -1.8032  0.1360  1.9716
12908TIP3    H260216   4.438   3.995   2.980  0.2405  1.8912 -1.9279
12909TIP3   OH260217   1.847   2.454  15.800 -0.2518  0.3869  0.0012
12909TIP3    H160218   1.892   2.398  15.736 -1.9344 -1.4283  0.3431
12909TIP3    H260219   1.792   2.511  15.747  1.2507  1.5749 -0.3346
12910TIP3   OH260220   2.291   3.472   4.755 -0.5874  0.0922  0.2795
12910TIP3    H160221   2.338   3.521   4.823 -1.2764 -0.8829  1.4918
12910TIP3    H260222   2.251   3.540   4.700  0.8693  0.9056  0.2028
12911TIP3   OH260223   2.943   6.534   0.540 -0.0791 -0.1740 -0.2114
12911TIP3    H160224   2.949   6.483   0.621 -1.7669  0.5641  0.3848
12911TIP3    H260225   2.928   6.468   0.472  0.7237 -0.7380  0.1495
12912TIP3   OH260226   1.352   1.319   5.014  0.6870  0.0571  0.7175
12912TIP3    H160227   1.316   1.251   4.956  1.7860  2.1236 -2.4848
12912TIP3    H260228   1.275   1.364   5.048  0.0754  0.5254 -1.2458
12913TIP3   OH260229   3.627   0.112  11.407  0.0810  0.2972 -0.2886
12913TIP3    H160230   3.613   0.023  11.374 -1.1508  0.9837 -1.6181
12913TIP3    H260231   3.561   0.122  11.476  0.4275  0.0854  0.0804
12914TIP3   OH260232   5.660   5.089  13.027  0.3606 -0.4549 -0.0914
12914TIP3    H160233   5.591   5.151  13.046  0.4907 -0.3803  0.1422
12914TIP3    H260234   5.617   5.018  12.980 -0.2905 -1.4371  1.9226
12915TIP3   OH260235   6.709   1.213   0.707  0.3326 -0.2419  0.2705
12915TIP3    H160236   6.702   1.267   0.628 -0.3849 -0.6798  0.0211
12915TIP3    H260237   6.797   1.176   0.703  0.0049 -0.9471 -0.7900
12916TIP3   OH260238   3.506   1.506  16.111  0.1869 -0.7151 -0.0776
12916TIP3    H160239   3.561   1.581  16.133 -0.0938 -0.1834 -1.1427
12916TIP3    H260240   3.536   1.436  16.170  2.0155 -0.4410 -0.6259
12917TIP3   OH260241   3.963   0.628   2.130  0.2461 -0.2196 -0.5183
12917TIP3    H160242   3.994   0.705   2.083 -1.9021  1.6864  1.0401
12917TIP3    H260243   4.038   0.568   2.132  2.6597  2.7296  0.1114
12918TIP3   OH260244   0.426   0.934   4.420 -0.0067 -0.4863 -0.4441
12918TIP3    H160245   0.490   0.912   4.488 -0.5780  0.2761  0.3516
12918TIP3    H260246   0.437   1.028   4.407 -0.6959 -0.4278 -0.5956
12919TIP3   OH260247   3.243   1.896  17.002  0.3764  0.1127  0.0625
12919TIP3    H160248   3.263   1.804  17.020 -1.5489 -0.4617 -0.5819
12919TIP3    H260249   3.306   1.922  16.935 -0.0177 -1.1889 -0.8405
12920TIP3   OH260250   2.148   1.710   3.190 -0.3761  0.1213 -0.0871
12920TIP3    H160251   2.185   1.727   3.277 -0.1428 -0.3690 -0.0837
12920TIP3    H260252   2.155   1.615   3.180  2.1473  0.4338 -1.7606
12921TIP3   OH260253   3.841   2.806   3.882 -0.1043  0.3867 -0.0905
12921TIP3    H160254   3.906   2.738   3.867  2.0309  2.0788  1.2471
12921TIP3    H260255   3.802   2.784   3.967  0.4622  0.7058  0.2585
12922TIP3   OH260256   1.523   4.897  16.818 -0.2482  0.3570 -0.0610
12922TIP3    H160257   1.533   4.890  16.723 -1.3199  2.7392 -0.3905
12922TIP3    H260258   1.605   4.936  16.848  0.1217 -0.4683  0.0116
12923TIP3   OH260259   6.030   1.705   2.504 -0.1371  0.5033  0.1884
12923TIP3    H160260   6.083   1.719   2.426 -1.8710 -0.5109 -1.1849
12923TIP3    H260261   6.066   1.626   2.544 -0.8385 -0.4064 -0.9501
12924TIP3   OH260262   1.980   6.749  11.229  0.0187  0.2618 -0.2047
12924TIP3    H160263   1.954   6.754  11.137 -0.1696 -1.5672 -0.2638
12924TIP3    H260264   1.898   6.740  11.277  0.1144  1.2337  0.1547
12925TIP3   OH260265   0.233   4.145   3.063 -0.2959  0.3870  0.1523
12925TIP3    H160266   0.174   4.099   3.122 -0.3408  1.6860  1.1534
12925TIP3    H260267   0.177   4.203   3.012 -0.2455 -0.6712 -1.1288
12926TIP3   OH260268   5.628   6.276  17.182  0.2457  0.1696 -0.4527
12926TIP3    H160269   5.563   6.240  17.242  3.4273 -3.4544  0.9850
12926TIP3    H260270   5.582   6.280  17.097 -2.3123 -0.7856  0.8258
12927TIP3   OH260271   3.374   2.878   1.772 -0.0929  0.4941  0.6542
12927TIP3    H160272   3.381   2.842   1.683  0.5498 -0.0117  0.9096
12927TIP3    H260273   3.398   2.970   1.762 -1.0045  0.6883  0.1315
12928TIP3   OH260274   5.236   3.754   4.256  0.0459 -0.4434  0.0503
12928TIP3    H160275   5.234   3.742   4.351  1.8394 -0.1314  0.1461
12928TIP3    H260276   5.175   3.826   4.239  0.0175 -0.2362  0.9971
12929TIP3   OH260277   1.351   5.063   6.272  0.2116 -0.7192 -0.3411
12929TIP3    H160278   1.302   5.095   6.348 -1.2501 -1.6576 -0.8690
12929TIP3    H260279   1.423   5.126   6.262  0.9743 -1.0704  2.3521
12930TIP3   OH260280   1.812   0.023  11.908  0.3627 -0.5248  0.4668
12930TIP3    H160281   1.877   0.083  11.870  0.5388 -1.4799 -0.7907
12930TIP3    H260282   1.865  -0.043  11.952  0.2794 -1.4719 -0.8136
12931TIP3   OH260283   4.834   5.567   0.753 -0.0669 -0.0793  0.1154
12931TIP3    H160284   4.804   5.654   0.728  2.1033  0.7941  0.3774
12931TIP3    H260285   4.765   5.508   0.724 -0.8392  1.5755 -1.5163
12932TIP3   OH260286   1.944   0.708  11.505 -0.0626  1.1137  0.1644
12932TIP3    H160287   2.023   0.662  11.478  0.3871  2.3895 -0.7292
12932TIP3    H260288   1.945   0.790  11.455 -1.5200  1.5117  0.7541
12933TIP3   OH260289   6.246   5.109  15.500 -0.3701  0.5134  0.1629
12933TIP3    H160290   6.233   5.143  15.411 -0.0945  1.4577  0.4771
12933TIP3    H260291   6.158   5.101  15.536 -0.4717  0.3313 -0.1178
12934TIP3   OH260292   0.775   2.450  16.428 -0.0364 -0.6424 -0.0378
12934TIP3    H160293   0.682   2.427  16.434 -0.4352  0.2692 -2.1242
12934TIP3    H260294   0.789   2.470  16.336  1.7083  1.4248  0.6204
12935TIP3   OH260295   2.292   2.230   0.148 -0.4056  0.2577 -0.1412
12935TIP3    H160296   2.291   2.310   0.096 -0.9426  1.0960  1.1193
12935TIP3    H260297   2.247   2.254   0.229  0.1761 -1.0862  0.5967
12936TIP3   OH260298   0.317   4.301   4.666 -0.4273  0.0573 -0.0525
12936TIP3    H160299   0.382   4.333   4.604 -2.1631  1.2278 -1.3135
12936TIP3    H260300   0.233   4.329   4.629 -1.6002 -0.7615  1.9332
12937TIP3   OH260301   3.305   0.626  16.246 -0.8484  0.0039 -0.3746
12937TIP3    H160302   3.381   0.568  16.248 -1.7550 -1.3384 -2.8125
12937TIP3    H260303   3.341   0.713  16.264  1.4264 -0.4858 -2.2385
12938TIP3   OH260304   3.565   6.361  11.565  0.3246  0.4550  0.3938
12938TIP3    H160305   3.545   6.276  11.525  0.2391  2.0438 -3.0278
12938TIP3    H260306   3.657   6.354  11.591  0.8042 -0.0793 -1.4254
12939TIP3   OH260307   2.255   2.407  12.393  0.3448  0.0430  0.0973
12939TIP3    H160308   2.168   2.446  12.390  0.1782 -0.3263  0.1882
12939TIP3    H260309   2.240   2.313  12.387  0.7524 -0.0067 -0.1491
12940TIP3   OH260310   0.499   2.961   6.121 -0.5597 -1.0318  0.0056
12940TIP3    H160311   0.536   2.959   6.209 -2.1850 -1.2926  0.6946
12940TIP3    H260312   0.574   2.983   6.064  0.6110 -1.4340  1.3671
12941TIP3   OH260313   2.867   2.772   4.115  0.3518  0.2225 -0.1066
12941TIP3    H160314   2.869   2.724   4.031  1.9161  0.6057 -0.3031
12941TIP3    H260315   2.840   2.861   4.091  1.7164  0.5815 -0.3438
12942TIP3   OH260316   6.333   3.685   1.771  0.6284 -0.1007 -0.6552
12942TIP3    H160317   6.294   3.612   1.723 -0.3332  0.8425 -1.3113
12942TIP3    H260318   6.265   3.752   1.772  0.7928  0.0576  1.6412
12943TIP3   OH260319   1.439   3.380   0.376 -0.2532 -0.4784 -0.3551
12943TIP3    H160320   1.533   3.388   0.362 -0.3642  1.5668 -0.1690
12943TIP3    H260321   1.427   3.405   0.468 -1.0719  0.3770 -0.6809
12944TIP3   OH260322   3.911   5.519   1.748  0.4631  0.2767  0.3474
12944TIP3    H160323   3.968   5.522   1.672  1.2528  1.6821  0.9772
12944TIP3    H260324   3.931   5.599   1.797 -1.9865  0.7950  0.6111
12945TIP3   OH260325   3.735   1.914  13.420  0.2298 -0.7396 -0.7062
12945TIP3    H160326   3.801   1.942  13.483 -0.1577 -0.5955 -0.3632
12945TIP3    H260327   3.779   1.920  13.335  0.3962  0.1657 -0.5630
12946TIP3   OH260328   6.751   6.633  12.308 -0.4788 -0.1581 -0.3384
12946TIP3    H160329   6.680   6.612  12.369 -1.2284  2.0634 -0.4169
12946TIP3    H260330   6.822   6.664  12.364 -0.3197 -0.3654 -0.4245
12947TIP3   OH260331   0.233   6.654  16.510 -0.4345 -0.0710  0.7406
12947TIP3    H160332   0.227   6.582  16.573 -0.1727  1.0560  2.0730
12947TIP3    H260333   0.246   6.732  16.563 -0.2408  0.9182 -0.7161
12948TIP3   OH260334   6.017   3.389   3.154  0.0889  0.8921  0.0702
12948TIP3    H160335   6.028   3.425   3.242  0.0647  1.2737 -0.0806
12948TIP3    H260336   6.022   3.294   3.165 -4.0113  0.7193  1.0809
12949TIP3   OH260337   6.044   1.145  14.711  0.1481  0.3670  0.1604
12949TIP3    H160338   5.957   1.158  14.673 -0.0070  1.5053  0.8646
12949TIP3    H260339   6.039   1.189  14.796  0.4610 -2.2008  1.5426
12950TIP3   OH260340   6.527   6.242   5.796  0.1394 -0.5307 -1.0247
12950TIP3    H160341   6.511   6.149   5.810  1.0389 -0.8499 -2.0482
12950TIP3    H260342   6.578   6.269   5.872  0.1175 -0.9294 -0.8631
12951TIP3   OH260343   4.407   6.421   4.419 -0.0838 -0.4601 -0.2903
12951TIP3    H160344   4.409   6.504   4.371 -1.1686 -0.0537  0.3325
12951TIP3    H260345   4.440   6.443   4.506 -0.1309 -0.7298 -0.2023
12952TIP3   OH260346   4.568   1.182  15.790 -0.5655 -0.5236 -0.4993
12952TIP3    H160347   4.606   1.165  15.704 -3.0624 -0.6428 -1.5956
12952TIP3    H260348   4.477   1.205  15.773 -0.6700  1.1132  1.9886
12953TIP3   OH260349   3.632   5.983  14.311 -0.2418  0.3616  0.2578
12953TIP3    H160350   3.579   5.930  14.372 -1.0099 -0.1682 -0.8447
12953TIP3    H260351   3.571   6.006  14.241  0.5614  1.2049 -0.1700
12954TIP3   OH260352   6.619   5.879   4.245  0.0802  0.6768 -0.3431
12954TIP3    H160353   6.554   5.817   4.278  0.3412 -1.8385 -4.2635
12954TIP3    H260354   6.702   5.845   4.278  0.0575 -0.2473 -1.1837
12955TIP3   OH260355   2.195   1.937  16.353  0.1247  0.4989 -0.2861
12955TIP3    H160356   2.186   1.848  16.320  0.0285  0.6107 -0.5659
12955TIP3    H260357   2.256   1.930  16.426  0.6003  0.2953 -0.6993
12956TIP3   OH260358   0.502   6.418  16.480  0.1388 -0.1339 -0.2546
12956TIP3    H160359   0.438   6.349  16.495 -0.8825  0.8185 -0.1856
12956TIP3    H260360   0.465   6.471  16.409  1.4918 -0.3667 -1.1532
12957TIP3   OH260361   5.126   0.576  15.525 -0.1513  0.0533 -0.0487
12957TIP3    H160362   5.108   0.503  15.585  2.0386 -0.0600  0.5138
12957TIP3    H260363   5.192   0.541  15.464 -1.6709  0.4603 -1.9935
12958TIP3   OH260364   0.980   4.095  14.854  0.5003  0.5433  0.0280
12958TIP3    H160365   1.057   4.151  14.863  0.2505  1.0381 -0.8569
12958TIP3    H260366   0.913   4.152  14.816  0.2382 -0.3546 -0.8812
12959TIP3   OH260367   6.475   2.515  16.325  0.4976 -0.0126 -0.1988
12959TIP3    H160368   6.527   2.457  16.269 -0.9138 -0.4753 -1.0366
12959TIP3    H260369   6.392   2.525  16.279 -0.0683  0.9335  1.0129
12960TIP3   OH260370   2.662   4.349  13.526  0.3859 -0.0949 -0.4466
12960TIP3    H160371   2.639   4.299  13.448 -1.2447 -0.0370 -0.0222
12960TIP3    H260372   2.745   4.311  13.556  1.0306 -0.0913 -2.2085
12961TIP3   OH260373   3.959   4.360   2.769  0.1629  0.0430  0.2316
12961TIP3    H160374   4.030   4.361   2.705 -0.9322  0.7700 -0.9922
12961TIP3    H260375   3.901   4.430   2.741 -2.2189 -2.0118 -0.1011
12962TIP3   OH260376   0.948   2.558  13.084 -0.2378  0.2779 -0.2955
12962TIP3    H160377   0.971   2.506  13.006 -0.0877 -0.1642  0.0396
12962TIP3    H260378   1.004   2.635  13.078 -0.9273  0.7203 -1.1417
12963TIP3   OH260379   4.880   2.282   4.548 -0.0364  0.2343 -0.5674
12963TIP3    H160380   4.838   2.347   4.604  1.3866  0.5655  0.1487
12963TIP3    H260381   4.956   2.252   4.599 -0.1649 -1.3229 -1.2578
12964TIP3   OH260382   4.623   5.560  11.645  0.7229 -0.0309 -0.4447
12964TIP3    H160383   4.631   5.651  11.617 -0.7132  1.1276  2.6995
12964TIP3    H260384   4.565   5.520  11.580  0.1011  1.7071 -0.9907
12965TIP3   OH260385   0.274   2.933  11.105  0.0868 -0.3152 -0.1894
12965TIP3    H160386   0.338   2.877  11.061  0.0871 -1.1490  0.8585
12965TIP3    H260387   0.191   2.915  11.061  0.2850 -0.3489 -0.5500
12966TIP3   OH260388   6.154   2.716  13.527 -0.0861 -0.5302  0.0177
12966TIP3    H160389   6.241   2.703  13.490  0.5003  2.6641  0.1324
12966TIP3    H260390   6.165   2.699  13.621  1.1040  2.3351  0.4749
12967TIP3   OH260391   0.980   1.678  11.164  0.5024  0.2853 -0.0445
12967TIP3    H160392   1.012   1.769  11.163  0.1825  0.4099  0.9349
12967TIP3    H260393   0.894   1.683  11.122  0.2500  0.5262  0.4957
12968TIP3   OH260394   6.090   1.995  11.906  0.7473 -0.4601  0.5801
12968TIP3    H160395   6.112   1.997  12.000  0.8961  0.5402  0.5364
12968TIP3    H260396   6.174   1.982  11.862  0.5150 -2.1479  0.6335
12969TIP3   OH260397   1.985   1.648  10.589  0.0035 -0.0044 -0.4331
12969TIP3    H160398   1.997   1.555  10.571 -2.0677 -0.5364  0.8223
12969TIP3    H260399   1.933   1.651  10.669  2.4725  2.2803  1.1621
12970TIP3   OH260400   2.676   1.662   2.547  0.2603 -0.0509 -0.3042
12970TIP3    H160401   2.673   1.694   2.637 -0.9618 -0.8739 -0.0467
12970TIP3    H260402   2.688   1.568   2.555  1.3917  0.0238 -1.0304
12971TIP3   OH260403   3.984   4.166  10.592  0.3183 -0.1514 -0.7203
12971TIP3    H160404   3.904   4.214  10.573  0.5193  0.2202 -0.6443
12971TIP3    H260405   4.054   4.231  10.584  0.6585 -0.5744 -1.2350
12972TIP3   OH260406   2.143   4.161   3.229  0.7890 -0.1765  0.0200
12972TIP3    H160407   2.105   4.232   3.176  2.0161 -0.1206 -0.7909
12972TIP3    H260408   2.194   4.206   3.296  0.2674 -0.2679  0.4761
12973TIP3   OH260409   0.620   6.326   4.690  0.2238 -0.0607  0.2520
12973TIP3    H160410   0.539   6.289   4.727 -0.2595  2.1202  1.4311
12973TIP3    H260411   0.681   6.327   4.764  1.2163 -1.2960 -0.5308
12974TIP3   OH260412   4.338   1.709  17.187 -0.3811  0.0170  0.5214
12974TIP3    H160413   4.354   1.717  17.281  2.5106  1.3612 -0.0485
12974TIP3    H260414   4.375   1.624  17.163 -0.8262 -0.1816  0.5308
12975TIP3   OH260415   5.970   1.614  12.496 -0.0958 -0.1824 -0.3495
12975TIP3    H160416   5.893   1.576  12.538  0.5396  0.5551  1.5683
12975TIP3    H260417   5.943   1.632  12.406 -1.5951 -1.5648 -0.1866
12976TIP3   OH260418   4.316   1.645   4.651 -0.7619 -0.3617  0.0183
12976TIP3    H160419   4.291   1.570   4.705 -1.2443 -0.8843 -0.9272
12976TIP3    H260420   4.404   1.667   4.681 -0.1795 -1.9873 -0.4459
12977TIP3   OH260421   0.105   2.732  15.529  0.4704 -0.3487  0.3642
12977TIP3    H160422   0.045   2.691  15.467  0.1707  0.9628 -0.2364
12977TIP3    H260423   0.082   2.825  15.527  0.6126 -0.2408  2.2754
12978TIP3   OH260424   4.573   1.743  14.700 -0.3086  0.5017 -0.3766
12978TIP3    H160425   4.529   1.750  14.785  0.2960 -1.5033  0.1451
12978TIP3    H260426   4.642   1.678  14.715 -0.4081 -0.1181 -2.4857
12979TIP3   OH260427   6.758   6.074  14.429 -0.6335 -0.2292 -0.0406
12979TIP3    H160428   6.818   6.000  14.429 -1.2799 -0.7889  1.7392
12979TIP3    H260429   6.671   6.034  14.423 -1.0545  0.2680  2.1067
12980TIP3   OH260430   4.001   2.352  11.883  0.0779  0.6174  0.0480
12980TIP3    H160431   3.970   2.377  11.796  0.4485  0.9662  0.0134
12980TIP3    H260432   4.097   2.356  11.876  0.1098  0.5564  0.4454
12981TIP3   OH260433   0.320   6.098  11.082 -0.2769  0.3320  0.0739
12981TIP3    H160434   0.317   6.044  11.003  0.2823  0.4216 -0.0101
12981TIP3    H260435   0.308   6.036  11.154  1.3485 -0.0571  0.0341
12982TIP3   OH260436   4.990   1.881  14.730  0.0331 -0.4584  0.3182
12982TIP3    H160437   4.985   1.963  14.779  1.5814 -0.2938  0.2342
12982TIP3    H260438   5.054   1.898  14.662  0.2977 -1.7203  0.2358
12983TIP3   OH260439   0.632   4.845   1.800  0.5213 -0.1613  0.7632
12983TIP3    H160440   0.610   4.757   1.772  0.1208  0.4269 -0.7990
12983TIP3    H260441   0.652   4.836   1.893 -2.2841 -1.4207  1.3057
12984TIP3   OH260442   3.307   0.289  13.861 -0.5562 -0.3201  0.6712
12984TIP3    H160443   3.388   0.326  13.895 -0.6697  0.2835  0.2966
12984TIP3    H260444   3.301   0.321  13.771  0.9415 -3.7930 -0.7817
12985TIP3   OH260445   4.026   5.735   2.473  0.6829  0.0624  0.6393
12985TIP3    H160446   3.973   5.657   2.460 -0.0988  0.9354 -1.5384
12985TIP3    H260447   4.054   5.729   2.565 -1.2790 -1.5651  1.1741
12986TIP3   OH260448   4.783   4.005   1.641  0.4610  0.7765 -0.0906
12986TIP3    H160449   4.786   3.911   1.661  0.5344  0.8457  0.2302
12986TIP3    H260450   4.860   4.020   1.586  0.9716  0.8281  0.6381
12987TIP3   OH260451   3.791   4.118   5.546  0.2528 -0.0673 -0.3084
12987TIP3    H160452   3.738   4.125   5.466  0.0655  0.2053 -0.1592
12987TIP3    H260453   3.777   4.201   5.591  0.0585 -0.3776  0.1978
12988TIP3   OH260454   3.382   6.644   0.940  0.1029 -0.1605  0.4592
12988TIP3    H160455   3.378   6.726   0.989  0.7290  0.9090 -1.2377
12988TIP3    H260456   3.413   6.580   1.004  1.0748  1.2306  1.4207
12989TIP3   OH260457   0.383   3.252   4.528  0.0460 -0.2269  1.0763
12989TIP3    H160458   0.432   3.229   4.606 -0.9062  3.7378  2.9598
12989TIP3    H260459   0.294   3.220   4.544  0.1984 -0.7434  0.9173
12990TIP3   OH260460   2.980   0.121   5.350  0.1069 -0.3834  0.1824
12990TIP3    H160461   2.959   0.138   5.258 -0.5383 -0.0865  0.3847
12990TIP3    H260462   2.915   0.057   5.378  0.0291 -0.1472  0.5514
12991TIP3   OH260463   0.121   0.459   6.010  0.0480 -0.1595 -0.4579
12991TIP3    H160464   0.075   0.397   5.953 -0.6195  0.0989 -0.2011
12991TIP3    H260465   0.116   0.419   6.097 -1.0743  0.6271 -0.1498
12992TIP3   OH260466   3.661   2.152  12.167  0.2482  0.4681  0.2817
12992TIP3    H160467   3.701   2.094  12.232 -0.0057 -0.2355 -0.1892
12992TIP3    H260468   3.626   2.225  12.218  1.6999  0.8528  0.7576
12993TIP3   OH260469   6.205   2.962  16.054 -0.8275 -0.1957  0.4756
12993TIP3    H160470   6.264   3.026  16.014 -1.2666 -0.2405 -0.2631
12993TIP3    H260471   6.244   2.877  16.034 -1.0483 -0.2180  0.1233
12994TIP3   OH260472   1.240   5.003   5.472 -0.1336  0.0601  0.4374
12994TIP3    H160473   1.228   5.014   5.566  0.3446 -0.0560  0.5148
12994TIP3    H260474   1.278   5.085   5.442  0.4452 -0.1879  0.4787
12995TIP3   OH260475   0.719   6.575   2.972 -0.4910  0.4380 -0.3881
12995TIP3    H160476   0.765   6.493   2.960  0.4345  0.8140  0.5933
12995TIP3    H260477   0.787   6.642   2.966 -1.0871  1.0714 -0.1493
12996TIP3   OH260478   5.132   2.953   5.377 -0.5778 -0.2697 -0.3717
12996TIP3    H160479   5.216   2.909   5.362 -0.9505 -0.8308 -0.8731
12996TIP3    H260480   5.078   2.926   5.302 -1.2206  0.0397 -0.0217
12997TIP3   OH260481   6.738   0.469  14.995  0.1931 -0.3051 -0.0541
12997TIP3    H160482   6.644   0.465  15.014  0.2338 -2.4242 -0.2418
12997TIP3    H260483   6.780   0.433  15.073  0.8807  0.7359  0.0753
12998TIP3   OH260484   0.027   6.658   4.026 -0.2419 -0.3914  0.1952
12998TIP3    H160485   0.051   6.611   4.106 -3.6963 -2.3340  0.2217
12998TIP3    H260486  -0.010   6.741   4.057  1.7562  0.4524  0.3843
12999TIP3   OH260487   1.592   1.871  11.114  0.0311 -0.5061  0.5357
12999TIP3    H160488   1.666   1.812  11.100  0.8869  1.1129 -2.2861
12999TIP3    H260489   1.558   1.888  11.026 -1.8038  1.1729  1.5142
13000TIP3   OH260490   1.723   2.826   1.389  0.3458  0.5298 -0.0695
13000TIP3    H160491   1.646   2.862   1.345  0.3488 -0.4878 -0.9166
13000TIP3    H260492   1.688   2.757   1.445  0.5420  0.7090  0.2775
13001TIP3   OH260493   4.159   4.786   4.541  0.4526 -0.4001 -0.1969
13001TIP3    H160494   4.190   4.753   4.626 -0.5604 -3.7664 -1.0693
13001TIP3    H260495   4.078   4.832   4.562 -0.2560 -1.9610  0.5854
13002TIP3   OH260496   5.465   0.385  15.494  0.0012 -0.2733  0.7602
13002TIP3    H160497   5.497   0.425  15.576  0.3658  2.3750 -0.6263
13002TIP3    H260498   5.370   0.391  15.500 -0.0226 -1.3632  1.5968
13003TIP3   OH260499   1.308   5.571   0.967 -0.3248 -0.4405  0.1063
13003TIP3    H160500   1.370   5.554   1.038  0.2356 -0.5729 -0.4115
13003TIP3    H260501   1.245   5.499   0.972  0.5586 -1.2642 -0.4560
13004TIP3   OH260502   2.429   1.277  14.554 -0.1970 -0.0912 -0.2950
13004TIP3    H160503   2.439   1.182  14.542 -1.8348 -0.1040 -1.8132
13004TIP3    H260504   2.507   1.315  14.516  0.5289 -0.8334  0.4362
13005TIP3   OH260505   5.710   2.677   0.922  0.6318  0.1319  0.1853
13005TIP3    H160506   5.684   2.735   0.850  2.3663  1.1909  0.3751
13005TIP3    H260507   5.793   2.640   0.893 -0.7476 -2.8105 -0.2044
13006TIP3   OH260508   2.540   3.778   4.299  0.3037  1.1180 -0.5133
13006TIP3    H160509   2.542   3.712   4.369 -0.7102  1.9441  0.3224
13006TIP3    H260510   2.508   3.857   4.343 -0.2263  1.6778 -1.8939
13007TIP3   OH260511   0.781   0.998   2.166  0.0301  0.6260  0.1835
13007TIP3    H160512   0.785   1.031   2.255  0.1290  1.3479 -0.0893
13007TIP3    H260513   0.704   0.941   2.166 -0.6326  1.4991  0.4454
13008TIP3   OH260514   0.996   1.750   5.825  0.1260 -0.6125  0.4180
13008TIP3    H160515   1.060   1.787   5.887  0.3112  1.4552 -0.9709
13008TIP3    H260516   1.036   1.668   5.797  0.9099 -0.6708  1.6375
13009TIP3   OH260517   5.116   2.778  15.907  0.1019 -0.0692 -1.0595
13009TIP3    H160518   5.042   2.720  15.891 -0.5318  0.4714 -0.0822
13009TIP3    H260519   5.091   2.861  15.866  0.5971 -0.1841 -1.6024
13010TIP3   OH260520   1.139   5.729  11.706 -0.2416 -0.5368 -0.1637
13010TIP3    H160521   1.200   5.660  11.731  1.6678  1.2037  0.2136
13010TIP3    H260522   1.161   5.748  11.614  1.5794  1.8110  0.7027
13011TIP3   OH260523   4.665   6.415   6.159 -0.2824 -0.1355  0.3146
13011TIP3    H160524   4.616   6.490   6.126 -0.7644 -0.4354  0.3330
13011TIP3    H260525   4.602   6.367   6.213 -0.0213 -0.6214  0.1943
13012TIP3   OH260526   4.971   0.589   3.395  0.4227  0.5647 -0.0470
13012TIP3    H160527   4.977   0.677   3.431  0.5460  0.7046 -0.4100
13012TIP3    H260528   5.014   0.534   3.461 -1.9953  0.4002  1.4591
13013TIP3   OH260529   5.154   2.284  17.140 -0.0791 -0.5549  0.1110
13013TIP3    H160530   5.108   2.203  17.118 -0.3989 -1.2880  3.2361
13013TIP3    H260531   5.165   2.328  17.056 -1.2440 -3.1162 -1.4727
13014TIP3   OH260532   3.324   5.527  15.564  0.1971  0.5273  0.2529
13014TIP3    H160533   3.256   5.502  15.501  1.5072  1.5209 -1.5846
13014TIP3    H260534   3.352   5.444  15.603 -1.8925  0.0783  0.8950
13015TIP3   OH260535   1.609   4.322  16.247  0.2772  0.0202  0.2476
13015TIP3    H160536   1.690   4.373  16.245  0.2530  0.1811  2.2902
13015TIP3    H260537   1.606   4.279  16.162  1.4258  1.6826 -0.6566
13016TIP3   OH260538   1.971   1.405   0.915  0.2479 -0.2358  0.0272
13016TIP3    H160539   1.958   1.383   0.823  0.8609  1.8641 -0.5875
13016TIP3    H260540   1.940   1.328   0.963 -0.6495 -1.1004 -1.9017
13017TIP3   OH260541   4.936   0.504  11.471 -0.6201 -0.1458 -0.0890
13017TIP3    H160542   4.943   0.557  11.550 -1.0493 -0.4327  0.1437
13017TIP3    H260543   5.026   0.481  11.449 -0.4909  0.0477  0.2409
13018TIP3   OH260544   2.768   0.474   1.845  0.7880  0.0600  0.2615
13018TIP3    H160545   2.805   0.419   1.915  2.4685 -0.3675 -0.9434
13018TIP3    H260546   2.839   0.484   1.783 -0.2453  1.6986 -0.6688
13019TIP3   OH260547   2.444   4.716  16.176  0.5894 -0.1518  0.8162
13019TIP3    H160548   2.487   4.670  16.248  0.2637 -0.2994  0.9190
13019TIP3    H260549   2.363   4.751  16.214 -0.6576 -2.0547  0.0194
13020TIP3   OH260550   3.584   6.609   1.934  0.3470  0.3952 -0.3571
13020TIP3    H160551   3.590   6.521   1.895 -1.5711 -0.7001  1.6813
13020TIP3    H260552   3.509   6.650   1.892 -0.4985 -0.0403  0.6885
13021TIP3   OH260553   0.374   3.994  12.685 -0.2451 -0.4455 -0.5351
13021TIP3    H160554   0.400   4.056  12.617  2.1250 -0.8340 -0.0085
13021TIP3    H260555   0.452   3.943  12.703 -1.0659 -0.9412  1.8738
13022TIP3   OH260556   3.773   2.946   1.768 -0.2295  0.4558 -0.0048
13022TIP3    H160557   3.722   2.933   1.848 -0.2363 -0.1666 -0.1032
13022TIP3    H260558   3.736   3.025   1.728  0.4905  1.3883  1.1457
13023TIP3   OH260559   1.528   5.507  13.712 -0.1754  0.2086  0.4074
13023TIP3    H160560   1.463   5.575  13.694  0.0198  0.4148  0.4931
13023TIP3    H260561   1.612   5.551  13.704 -0.0869  0.4124  2.2580
13024TIP3   OH260562   4.520   3.232  17.018  0.3325  0.0298 -0.2877
13024TIP3    H160563   4.540   3.302  17.080 -1.3831  0.2886  0.0069
13024TIP3    H260564   4.602   3.217  16.971  1.1471  1.1194  0.7630
13025TIP3   OH260565   1.145   3.475  15.825 -0.1259 -0.2370  0.4098
13025TIP3    H160566   1.075   3.481  15.760 -0.4353 -1.2903  0.6292
13025TIP3    H260567   1.117   3.534  15.895 -0.3780  0.0038  0.1075
13026TIP3   OH260568   5.217   6.610   4.907  0.4772 -0.0692  0.2469
13026TIP3    H160569   5.301   6.655   4.914 -0.1236  0.8794  1.4307
13026TIP3    H260570   5.170   6.632   4.987 -0.7606 -0.8960 -0.2253
13027TIP3   OH260571   3.527   5.145   3.560 -0.0579 -0.0256 -0.3858
13027TIP3    H160572   3.611   5.109   3.531  0.1959 -0.1925  0.5406
13027TIP3    H260573   3.486   5.073   3.608 -0.0237  0.5628  0.5344
13028TIP3   OH260574   5.534   4.754   2.117 -0.2859 -0.2287 -0.5843
13028TIP3    H160575   5.608   4.791   2.068 -0.1218  1.3779  0.8399
13028TIP3    H260576   5.574   4.712   2.192 -0.7875  0.3783  0.0284
13029TIP3   OH260577   6.745   6.259   1.566  0.0271 -0.7675 -0.1843
13029TIP3    H160578   6.684   6.261   1.492  0.0619 -0.7482 -0.2131
13029TIP3    H260579   6.691   6.281   1.642  0.0272 -0.6098 -0.2296
13030TIP3   OH260580   6.411   0.841   0.110  0.4208 -0.2507 -0.2947
13030TIP3    H160581   6.323   0.873   0.092  0.7801  0.7594 -0.2921
13030TIP3    H260582   6.430   0.871   0.199  0.6729 -0.6761 -0.2041
13031TIP3   OH260583   1.860   5.070  14.679  0.7029  0.2916 -0.2870
13031TIP3    H160584   1.936   5.058  14.736  2.8076  1.1489 -2.8443
13031TIP3    H260585   1.849   4.986  14.634  0.5743  0.3927 -0.4483
13032TIP3   OH260586   6.456   3.386  13.754 -0.0812 -0.3499 -0.0114
13032TIP3    H160587   6.453   3.481  13.749  3.0938 -0.2421 -0.9775
13032TIP3    H260588   6.365   3.360  13.769 -1.2525  2.7225 -1.2850
13033TIP3   OH260589   2.776   4.747   2.721 -0.2352 -0.4741  0.0036
13033TIP3    H160590   2.814   4.806   2.656 -0.7150  0.0230  0.1728
13033TIP3    H260591   2.722   4.804   2.776 -2.3178 -1.4041 -1.0692
13034TIP3   OH260592   3.469   2.344   3.261 -0.0498 -0.3425 -0.6213
13034TIP3    H160593   3.485   2.300   3.178  1.2531 -0.2602 -0.4259
13034TIP3    H260594   3.555   2.376   3.288 -0.5910  0.2846  0.3881
13035TIP3   OH260595   5.798   5.255  14.459  0.6805 -0.4998 -0.0876
13035TIP3    H160596   5.859   5.258  14.533  0.4683  0.3394  0.0616
13035TIP3    H260597   5.730   5.318  14.482  1.1855  0.5901 -1.5106
13036TIP3   OH260598   6.489   2.679  15.132 -0.0104 -0.3922 -0.0030
13036TIP3    H160599   6.460   2.594  15.166  0.9854 -0.9662 -0.5873
13036TIP3    H260600   6.426   2.741  15.170 -0.8183 -1.3868  0.3431
13037TIP3   OH260601   5.921   2.344  11.359  0.3104  0.0580  1.0298
13037TIP3    H160602   5.946   2.437  11.367  0.8750  0.1418 -1.4635
13037TIP3    H260603   5.892   2.334  11.269  1.3277 -2.4613  0.9413
13038TIP3   OH260604   2.623   0.629   4.333 -0.0404 -0.1546 -0.3319
13038TIP3    H160605   2.587   0.707   4.375  0.2781 -0.0725 -0.2070
13038TIP3    H260606   2.594   0.634   4.242 -2.8560 -1.6240  0.4123
13039TIP3   OH260607   1.295   1.471  10.666 -0.3344  0.2974  0.1773
13039TIP3    H160608   1.231   1.475  10.736 -0.9905  1.1994 -0.4513
13039TIP3    H260609   1.343   1.554  10.672 -1.2988  0.9940 -1.2517
13040TIP3   OH260610   2.396   6.800   6.311  0.3498 -0.4197 -0.7145
13040TIP3    H160611   2.391   6.771   6.402  3.2161  0.4094 -0.2171
13040TIP3    H260612   2.375   6.893   6.315  2.6130  0.1126 -0.5308
13041TIP3   OH260613   3.816   0.603   3.827 -0.0500  0.1305 -0.4499
13041TIP3    H160614   3.816   0.621   3.921  0.0809 -0.0457 -0.4155
13041TIP3    H260615   3.859   0.679   3.788 -2.0704  1.2367 -0.5748
13042TIP3   OH260616   6.561   6.059  13.108  0.0529 -0.6039  0.1244
13042TIP3    H160617   6.499   5.992  13.081  0.9922 -1.1951 -0.6153
13042TIP3    H260618   6.646   6.015  13.104  0.8900  1.1877 -2.2561
13043TIP3   OH260619   0.771   1.845  13.407 -0.6961  0.0748  0.5031
13043TIP3    H160620   0.704   1.807  13.463 -0.0773  0.2163  1.3441
13043TIP3    H260621   0.738   1.932  13.385 -0.9488  0.0092  0.6260
13044TIP3   OH260622   3.311   0.098   0.624 -0.2719 -0.6638 -0.0767
13044TIP3    H160623   3.391   0.133   0.664 -0.2189  0.8711 -1.4690
13044TIP3    H260624   3.246   0.168   0.634 -1.5892 -2.0420  1.3819
13045TIP3   OH260625   4.014   2.789  11.081 -1.0417 -0.7846 -0.5504
13045TIP3    H160626   3.966   2.798  10.998 -2.1396  2.4210  0.3953
13045TIP3    H260627   4.106   2.796  11.056 -1.3707  0.3665 -1.4843
13046TIP3   OH260628   1.065   4.652   0.836  0.6154  0.3011  0.0270
13046TIP3    H160629   0.995   4.628   0.896 -0.6773  0.5228 -1.3698
13046TIP3    H260630   1.132   4.692   0.892 -0.7437  0.8948  1.2535
13047TIP3   OH260631   5.799   1.439  14.767  0.5302  0.1094 -0.4781
13047TIP3    H160632   5.733   1.484  14.715 -0.5652 -1.0341 -0.0895
13047TIP3    H260633   5.876   1.436  14.710 -0.7733 -1.4713 -2.2035
13048TIP3   OH260634   3.243   5.447  16.297 -0.0227  0.3144 -0.2927
13048TIP3    H160635   3.322   5.496  16.319  0.8860 -0.2077 -2.3254
13048TIP3    H260636   3.275   5.369  16.251 -1.7856  0.6063 -2.0407
13049TIP3   OH260637   4.687   1.350   3.728 -0.3310 -0.4054  0.2086
13049TIP3    H160638   4.608   1.364   3.780 -2.0930 -1.0177 -2.2547
13049TIP3    H260639   4.699   1.432   3.680  0.6345 -0.2643  0.6676
13050TIP3   OH260640   4.653   0.320  15.800 -0.9299 -0.0433  0.1683
13050TIP3    H160641   4.691   0.346  15.716 -0.0161  0.0812  0.6185
13050TIP3    H260642   4.714   0.355  15.866 -1.1380 -0.9623  0.8532
13051TIP3   OH260643   5.495   5.865   4.595 -0.6751  0.3078  0.6639
13051TIP3    H160644   5.538   5.950   4.601  0.4475 -0.0651 -1.5800
13051TIP3    H260645   5.461   5.849   4.683  1.9533  1.5863  1.9849
13052TIP3   OH260646   5.599   4.625   5.284 -0.3099 -0.2827 -0.5454
13052TIP3    H160647   5.559   4.600   5.367  0.4037  0.2734 -0.0235
13052TIP3    H260648   5.554   4.706   5.259 -0.9899 -0.8148 -1.0398
13053TIP3   OH260649   6.292   1.296   4.291  0.1801  0.2213  0.2086
13053TIP3    H160650   6.326   1.212   4.323 -1.6147 -0.4970  0.2696
13053TIP3    H260651   6.266   1.342   4.370  0.3555  0.4798  0.1143
13054TIP3   OH260652   1.473   2.252  12.533 -0.3518  0.7373 -0.6084
13054TIP3    H160653   1.557   2.291  12.508  0.7821 -0.3379  1.3923
13054TIP3    H260654   1.462   2.179  12.473  0.4935  0.4635 -0.4363
13055TIP3   OH260655   4.541   2.961  10.614  0.9539  0.2030  0.2332
13055TIP3    H160656   4.569   2.952  10.705  1.4685 -1.4536 -0.0628
13055TIP3    H260657   4.501   2.877  10.593 -0.9205  1.2504 -0.4987
13056TIP3   OH260658   3.586   3.001   4.073  0.4792 -0.3443  0.2110
13056TIP3    H160659   3.571   3.006   4.168 -1.0473  0.3150 -0.0513
13056TIP3    H260660   3.635   2.920   4.061  2.8263  0.7738  1.8320
13057TIP3   OH260661   6.626   4.807   1.244  0.1673 -0.1480  0.4237
13057TIP3    H160662   6.570   4.734   1.217  0.8353 -1.0315  1.4205
13057TIP3    H260663   6.690   4.816   1.174 -0.4234  0.0365 -0.1032
13058TIP3   OH260664   1.157   0.380  13.092 -0.2871 -0.2987  0.1949
13058TIP3    H160665   1.214   0.369  13.168 -2.2712  0.0620  1.7801
13058TIP3    H260666   1.093   0.309  13.098 -0.0672 -0.6675 -1.5169
13059TIP3   OH260667   2.358   2.618   3.528 -0.4695 -0.2214  0.1386
13059TIP3    H160668   2.326   2.584   3.444  0.5582  0.0438 -0.3575
13059TIP3    H260669   2.279   2.627   3.581 -1.0708 -0.8544 -0.6333
13060TIP3   OH260670   1.719   5.422   0.215  0.3857  0.0592  0.2071
13060TIP3    H160671   1.771   5.433   0.295 -0.8902  1.7829  0.8183
13060TIP3    H260672   1.781   5.440   0.144  1.1798 -0.1169  0.8478
13061TIP3   OH260673   3.463   6.523  15.187  0.1025  0.0597 -0.3419
13061TIP3    H160674   3.513   6.442  15.203  2.3130  1.2675 -0.8568
13061TIP3    H260675   3.435   6.515  15.095  0.8201  0.1384 -0.5704
13062TIP3   OH260676   3.720   1.793   5.496 -0.8860 -0.0783  0.8622
13062TIP3    H160677   3.809   1.771   5.522 -1.1203  0.3641  2.0532
13062TIP3    H260678   3.724   1.887   5.474 -0.7431 -0.3895 -0.4901
13063TIP3   OH260679   0.413   5.042   2.819 -0.0336 -0.1341 -0.0320
13063TIP3    H160680   0.459   5.117   2.781  0.0216  0.0340  0.3603
13063TIP3    H260681   0.366   5.079   2.894  0.7324 -0.6621  0.7171
13064TIP3   OH260682   6.549   2.891   1.762  0.0166  0.3991 -0.6455
13064TIP3    H160683   6.506   2.957   1.817 -0.1273  0.9246 -1.3870
13064TIP3    H260684   6.482   2.824   1.749 -0.3751  0.9045 -1.2567
13065TIP3   OH260685   3.357   2.725  14.358 -0.1913  0.1986 -0.5350
13065TIP3    H160686   3.305   2.658  14.313  1.1683 -0.1604 -1.6267
13065TIP3    H260687   3.308   2.806  14.343 -1.4089 -0.4075  0.0678
13066TIP3   OH260688   5.663   3.251  13.503  0.3815 -0.0296  0.6691
13066TIP3    H160689   5.674   3.341  13.532  1.5175 -0.4383  1.5527
13066TIP3    H260690   5.609   3.257  13.424  0.3044  1.3990  0.8272
13067TIP3   OH260691   4.291   0.166   2.472 -0.1076  0.1384 -0.7786
13067TIP3    H160692   4.334   0.084   2.446  0.5477  0.2438 -0.0234
13067TIP3    H260693   4.337   0.234   2.422  0.7046  0.2656  0.1258
13068TIP3   OH260694   0.684   1.465  16.288 -0.1104 -0.0547 -0.0224
13068TIP3    H160695   0.618   1.524  16.250 -0.6031 -1.5014 -1.4500
13068TIP3    H260696   0.765   1.488  16.244 -0.0223  0.4760  0.4110
13069TIP3   OH260697   3.318   0.305  11.742  0.1475 -0.6018 -0.1014
13069TIP3    H160698   3.240   0.263  11.778 -0.0276 -0.4017 -0.2410
13069TIP3    H260699   3.297   0.398  11.742  0.0616 -0.6209 -0.9219
13070TIP3   OH260700   4.664   0.559   5.831  0.8606  0.2562  0.2554
13070TIP3    H160701   4.671   0.555   5.926 -1.9312 -0.8626  0.4504
13070TIP3    H260702   4.655   0.653   5.811 -0.6625  0.3409  1.2761
13071TIP3   OH260703   3.789   3.240  17.205  0.5266 -0.4827  0.2927
13071TIP3    H160704   3.724   3.194  17.257 -1.4486 -2.5619 -3.8242
13071TIP3    H260705   3.857   3.175  17.188  0.0171 -0.5517 -1.6031
13072TIP3   OH260706   2.761   3.785  17.236  0.2325  0.1589 -0.1321
13072TIP3    H160707   2.840   3.802  17.186 -0.3541 -0.3917 -1.2698
13072TIP3    H260708   2.780   3.819  17.323  1.4989  0.5557 -0.5511
13073TIP3   OH260709   4.877   5.983   0.503 -0.9898  0.7447  0.0177
13073TIP3    H160710   4.907   6.072   0.480 -0.7018  0.5229 -0.4752
13073TIP3    H260711   4.906   5.929   0.430  0.4221 -0.0715  1.1658
13074TIP3   OH260712   1.612   6.246  10.815  0.1676 -0.4037 -0.1645
13074TIP3    H160713   1.580   6.322  10.863  0.5888  0.4792 -1.2641
13074TIP3    H260714   1.546   6.231  10.747 -0.1669 -1.3333  0.3505
13075TIP3   OH260715   4.939   3.609   4.095  0.3219  0.5625 -0.2596
13075TIP3    H160716   4.991   3.676   4.140  0.3693  0.2533  0.1413
13075TIP3    H260717   4.944   3.532   4.151  1.0157 -0.0662 -1.1768
13076TIP3   OH260718   2.588   4.945  15.510 -0.3961  0.2899  0.0768
13076TIP3    H160719   2.585   4.995  15.428 -0.6348  0.3571  0.1281
13076TIP3    H260720   2.680   4.949  15.537 -0.2360 -0.0826 -0.4071
13077TIP3   OH260721   3.704   5.261  15.173 -0.4467  0.1065  0.0995
13077TIP3    H160722   3.749   5.314  15.238 -1.3300  0.0745  0.7433
13077TIP3    H260723   3.631   5.220  15.221 -0.3618 -0.8981 -0.6133
13078TIP3   OH260724   1.076   1.932  11.184  0.6209 -0.1826 -0.1570
13078TIP3    H160725   1.171   1.945  11.188  0.8098 -0.5621 -2.5925
13078TIP3    H260726   1.041   2.017  11.157  0.0934  0.3871  2.1936
13079TIP3   OH260727   3.761   5.460  16.860 -0.5756 -0.3484 -0.0487
13079TIP3    H160728   3.769   5.370  16.830  0.2558 -0.2294 -0.2238
13079TIP3    H260729   3.841   5.475  16.911  0.7957  1.1912 -2.5104
13080TIP3   OH260730   6.793   0.291  12.007 -0.3970  0.0187 -0.4728
13080TIP3    H160731   6.751   0.367  11.966  0.4439  0.6565 -0.1663
13080TIP3    H260732   6.783   0.221  11.943 -2.0081  0.1300 -0.3762
13081TIP3   OH260733   0.517   2.243  10.571 -0.1061 -0.0912 -0.3616
13081TIP3    H160734   0.423   2.239  10.588 -0.3809 -0.9566 -2.0378
13081TIP3    H260735   0.532   2.333  10.541 -0.0731  0.6047  1.6650
13082TIP3   OH260736   4.158   5.820  12.997  0.0979  0.2611 -0.2554
13082TIP3    H160737   4.222   5.870  12.946  1.2357  0.4617  1.3480
13082TIP3    H260738   4.073   5.851  12.965  0.7965  2.3547 -0.1567
13083TIP3   OH260739   0.702   3.482   5.511 -0.6196 -0.0302  0.1657
13083TIP3    H160740   0.785   3.506   5.552 -0.1231 -0.4833 -0.5527
13083TIP3    H260741   0.658   3.565   5.493 -0.0516  0.2406  0.0118
13084TIP3   OH260742   6.726   2.950   4.620 -0.2509 -0.4232  0.0028
13084TIP3    H160743   6.673   3.029   4.633 -1.5584 -1.3573  0.3897
13084TIP3    H260744   6.779   2.969   4.543 -1.0200  0.5905 -0.2829
13085TIP3   OH260745   4.322   0.489  13.911  0.3595 -0.3247  0.8274
13085TIP3    H160746   4.249   0.550  13.896 -0.3712 -1.3493  0.1195
13085TIP3    H260747   4.352   0.508  14.000  0.0180  0.9371  0.6802
13086TIP3   OH260748   1.535   2.952   0.067  0.2682  0.7312  0.0908
13086TIP3    H160749   1.486   3.011   0.011 -3.1387 -1.4813  0.5943
13086TIP3    H260750   1.511   2.978   0.156 -1.6851 -1.6803  0.3078
13087TIP3   OH260751   1.558   2.733  12.551  0.2089  0.0186 -0.0729
13087TIP3    H160752   1.581   2.648  12.589 -0.8929 -0.0963  0.3532
13087TIP3    H260753   1.640   2.783  12.552  1.0192 -1.2492 -0.8963
13088TIP3   OH260754   6.008   4.132  15.889 -0.0201  0.1680 -0.2674
13088TIP3    H160755   5.927   4.131  15.838 -0.1950  1.1843 -0.0365
13088TIP3    H260756   5.980   4.155  15.977  0.7149  2.4575 -0.6006
13089TIP3   OH260757   2.244   1.937  11.708 -0.2952 -0.3694 -1.0486
13089TIP3    H160758   2.152   1.962  11.718 -0.4606 -0.2160 -2.8227
13089TIP3    H260759   2.279   2.001  11.646  1.2276  0.0976  0.2735
13090TIP3   OH260760   1.776   3.192   6.275  0.5430 -0.4335 -0.0420
13090TIP3    H160761   1.803   3.231   6.358  1.4765  0.1826 -0.6177
13090TIP3    H260762   1.681   3.196   6.276  0.6246  3.9682 -1.0440
13091TIP3   OH260763   2.136   5.382   2.141  0.6903  0.5042  0.1136
13091TIP3    H160764   2.071   5.445   2.172  0.2281 -0.1008  0.3813
13091TIP3    H260765   2.085   5.309   2.105  1.2090 -0.0249  0.4319
13092TIP3   OH260766   6.647   6.029  12.469 -0.9349 -0.1603 -0.5744
13092TIP3    H160767   6.673   6.085  12.396 -1.7004  1.0615  0.0748
13092TIP3    H260768   6.616   6.090  12.537 -1.9073 -1.3633  0.0919
13093TIP3   OH260769   5.937   0.414   6.052  0.0204  0.0362  0.0110
13093TIP3    H160770   6.016   0.378   6.092 -0.1745 -1.9114 -1.3000
13093TIP3    H260771   5.870   0.405   6.120  0.3377 -0.6161  0.2440
13094TIP3   OH260772   1.055   2.249  16.755 -0.1965 -0.6740  0.0196
13094TIP3    H160773   1.141   2.227  16.718 -0.6063 -0.7321 -0.9109
13094TIP3    H260774   1.021   2.318  16.698 -0.8487 -0.7661  0.2918
13095TIP3   OH260775   3.723   4.119   6.065 -0.0790  0.6119 -0.3604
13095TIP3    H160776   3.662   4.059   6.022  3.6389 -2.2739 -1.9715
13095TIP3    H260777   3.756   4.070   6.140  0.7219  1.8308  0.0990
13096TIP3   OH260778   5.688   1.712  14.957 -0.0137  0.1604 -0.1435
13096TIP3    H160779   5.768   1.713  15.009 -0.7391 -1.1209  1.0173
13096TIP3    H260780   5.717   1.732  14.868  1.4988  0.4174  0.4008
13097TIP3   OH260781   0.130   2.773  14.990  0.1029 -0.3417  0.2293
13097TIP3    H160782   0.042   2.803  15.012 -0.0468 -1.1655  0.7894
13097TIP3    H260783   0.187   2.819  15.052  0.2460  1.3482 -1.1063
13098TIP3   OH260784   3.235   5.828  16.569  0.0175 -0.2084 -0.4191
13098TIP3    H160785   3.210   5.771  16.497 -0.2295  0.0839 -0.5665
13098TIP3    H260786   3.166   5.816  16.635 -0.5938  0.7084 -0.8838
13099TIP3   OH260787   0.698   0.273   4.248  0.3391  0.3129  0.2429
13099TIP3    H160788   0.628   0.333   4.273  1.0690  1.6408 -0.8719
13099TIP3    H260789   0.698   0.206   4.317 -2.8498 -0.4263 -0.3895
13100TIP3   OH260790   1.511   2.818   4.825 -0.4819 -0.3612 -0.1336
13100TIP3    H160791   1.590   2.864   4.795 -0.8595 -0.3526 -1.1258
13100TIP3    H260792   1.538   2.774   4.906  0.6102 -0.5426 -0.5889
13101TIP3   OH260793   5.357   2.132  13.214 -0.1189  0.4078  0.8304
13101TIP3    H160794   5.354   2.148  13.119  0.3236  1.1064  0.9302
13101TIP3    H260795   5.287   2.187  13.250 -0.6521 -0.2878  0.8486
13102TIP3   OH260796   6.668   1.264   6.106  0.3856  0.3586  0.2241
13102TIP3    H160797   6.711   1.327   6.048  0.3971  1.5556  1.4770
13102TIP3    H260798   6.674   1.305   6.193  0.8186 -1.6064  1.1462
13103TIP3   OH260799   6.251   2.654  12.626  0.7134 -0.5064  0.1617
13103TIP3    H160800   6.227   2.747  12.628  0.1008 -0.6556 -0.0409
13103TIP3    H260801   6.257   2.628  12.717 -1.2859 -0.8140  0.2150
13104TIP3   OH260802   2.798   2.481   6.377  0.3786 -0.0638  0.1929
13104TIP3    H160803   2.785   2.529   6.459  0.2205  0.4827 -0.1487
13104TIP3    H260804   2.765   2.393   6.395 -1.3178  0.5439  0.1760
13105TIP3   OH260805   4.462   6.604   6.327 -0.0437  0.4121 -0.4027
13105TIP3    H160806   4.531   6.667   6.353 -0.2787  0.6564 -0.3690
13105TIP3    H260807   4.396   6.611   6.396 -1.0903  1.7150 -1.5091
13106TIP3   OH260808   0.970   4.377  12.809  0.4458 -0.3042  0.0869
13106TIP3    H160809   0.986   4.359  12.901 -1.5595 -0.9777  0.3263
13106TIP3    H260810   1.021   4.456  12.790  2.1457 -1.0775  1.3452
13107TIP3   OH260811   3.988   5.346  12.526 -0.1912 -0.3411  0.3948
13107TIP3    H160812   4.077   5.333  12.495 -0.0484 -1.0158  1.0624
13107TIP3    H260813   3.952   5.258  12.533 -0.4513 -0.1607  1.4365
13108TIP3   OH260814   6.488   5.614  15.341 -0.0401  0.9183 -0.6015
13108TIP3    H160815   6.419   5.551  15.320  1.6097 -1.2601  0.3080
13108TIP3    H260816   6.567   5.575  15.305  1.1490  2.0699  0.7133
13109TIP3   OH260817   5.965   3.189   1.043 -0.0652  0.2797 -0.3849
13109TIP3    H160818   5.875   3.192   1.074 -0.3225  0.3452 -1.1294
13109TIP3    H260819   5.997   3.103   1.072  0.5576  1.3830  2.3688
13110TIP3   OH260820   1.113   2.577  13.430 -0.7552 -0.3465  0.4381
13110TIP3    H160821   1.066   2.635  13.370 -0.3369 -2.2572 -1.7975
13110TIP3    H260822   1.062   2.496  13.430 -0.1668 -0.7235  1.8590
13111TIP3   OH260823   2.433   5.387  14.422  0.1636  0.0339 -0.5924
13111TIP3    H160824   2.473   5.423  14.343  0.0258  1.3779 -0.0709
13111TIP3    H260825   2.488   5.313  14.446  0.4965 -0.0642 -1.6606
13112TIP3   OH260826   1.008   4.408   2.906 -0.5519 -0.1861  0.1488
13112TIP3    H160827   0.916   4.418   2.929 -0.7294  0.2290 -0.7146
13112TIP3    H260828   1.008   4.344   2.834 -0.2663  0.5391 -0.5069
13113TIP3   OH260829   1.527   5.609   1.749  0.4790  0.1185 -0.2512
13113TIP3    H160830   1.534   5.531   1.804 -2.5150 -0.0541 -0.0316
13113TIP3    H260831   1.541   5.577   1.660  2.1313 -0.1480  0.0874
13114TIP3   OH260832   5.060   3.738  12.320  1.1771 -0.4231  0.0626
13114TIP3    H160833   5.054   3.734  12.225  1.4888 -2.4728  0.1124
13114TIP3    H260834   4.988   3.796  12.346  0.9553 -0.0227 -1.3874
13115TIP3   OH260835   1.194   4.327  16.987 -0.4704  0.3395 -0.1541
13115TIP3    H160836   1.161   4.368  17.067  1.0505 -0.4397  0.8773
13115TIP3    H260837   1.253   4.258  17.017  1.0526  0.8182 -1.9434
13116TIP3   OH260838   2.161   4.717   0.233 -0.0381 -0.4220 -0.4509
13116TIP3    H160839   2.229   4.730   0.167 -1.2379 -0.2485 -1.6737
13116TIP3    H260840   2.209   4.715   0.316  1.5653 -1.3194 -1.3697
13117TIP3   OH260841   5.122   5.209   4.460 -0.1178 -0.0535  0.6989
13117TIP3    H160842   5.095   5.118   4.450 -2.4499  0.5733  0.9051
13117TIP3    H260843   5.060   5.245   4.525  0.3835  1.8153  0.1736
13118TIP3   OH260844   5.130   3.354  14.392 -0.0240  0.1006 -0.5932
13118TIP3    H160845   5.222   3.334  14.410 -0.1938 -1.8861 -1.7822
13118TIP3    H260846   5.100   3.400  14.470  1.7782  0.1250  0.1130
13119TIP3   OH260847   1.791   0.102   5.670 -0.0400  0.0886  0.4701
13119TIP3    H160848   1.806   0.183   5.717 -0.1877  1.2299 -1.3936
13119TIP3    H260849   1.703   0.075   5.696  0.4369 -0.1150  1.9607
13120TIP3   OH260850   0.036   4.904   3.556  0.2227  0.2449  0.6584
13120TIP3    H160851   0.057   4.842   3.626 -0.1905  0.4586  0.9789
13120TIP3    H260852   0.066   4.988   3.589 -0.1135  0.3720  0.6497
13121TIP3   OH260853   5.823   5.570   4.335  0.6354 -0.4764 -0.8555
13121TIP3    H160854   5.746   5.564   4.392  1.0735 -0.7581 -0.2890
13121TIP3    H260855   5.851   5.661   4.343 -0.1435 -0.1444 -1.7370
13122TIP3   OH260856   5.017   2.190  14.122 -0.3151 -0.3266  0.0622
13122TIP3    H160857   4.970   2.119  14.165  1.1206 -0.7899  0.9052
13122TIP3    H260858   5.105   2.156  14.109 -0.1473  0.5943 -1.3147
13123TIP3   OH260859   5.470   0.873  15.698 -0.9192 -0.4686 -0.6048
13123TIP3    H160860   5.453   0.798  15.755  1.5022  0.0667  0.9454
13123TIP3    H260861   5.388   0.922  15.697 -1.8883 -2.0402  0.0466
13124TIP3   OH260862   1.059   3.435   1.352  0.1705  0.0129  0.2018
13124TIP3    H160863   0.982   3.472   1.308  0.7583  2.3329  1.0665
13124TIP3    H260864   1.067   3.485   1.433  1.5249 -1.4471  0.9954
13125TIP3   OH260865   3.367   2.055  16.543  0.3289  0.0355  0.0388
13125TIP3    H160866   3.338   1.998  16.471 -0.7291 -2.0686  2.0480
13125TIP3    H260867   3.286   2.089  16.581  0.9215  2.0333 -0.4232
13126TIP3   OH260868   0.300   1.246   5.497  0.1329  0.0141 -0.2620
13126TIP3    H160869   0.394   1.244   5.516  0.2389 -0.0941 -0.7717
13126TIP3    H260870   0.270   1.157   5.513  0.1089  0.0593 -0.0572
13127TIP3   OH260871   2.759   1.770  15.717 -0.1633 -0.2054 -0.8605
13127TIP3    H160872   2.815   1.696  15.694  0.8716  0.3073 -0.0059
13127TIP3    H260873   2.763   1.828  15.641  1.5704  0.4807 -0.2552
13128TIP3   OH260874   4.768   4.449   6.044  0.4009 -0.0017 -0.1364
13128TIP3    H160875   4.787   4.458   6.138 -1.2697 -1.1326  0.3366
13128TIP3    H260876   4.801   4.530   6.005  0.9565  0.5592  1.4542
13129TIP3   OH260877   2.101   4.873   1.116  0.1319 -0.3283 -0.0239
13129TIP3    H160878   2.108   4.799   1.056 -0.8387 -1.6050  1.3724
13129TIP3    H260879   2.026   4.851   1.172 -1.0464  2.4027 -0.4905
13130TIP3   OH260880   5.091   1.951   0.750 -0.1934  0.2661 -0.8094
13130TIP3    H160881   5.174   1.975   0.791  0.2904  0.1120 -1.6890
13130TIP3    H260882   5.028   1.951   0.822  0.8462 -1.0370  0.1182
13131TIP3   OH260883   0.515   3.036  15.308  0.1127 -0.3911 -0.0722
13131TIP3    H160884   0.544   3.002  15.392 -0.6904 -2.3433 -0.5715
13131TIP3    H260885   0.495   3.128  15.326  0.2513 -0.7037  1.7878
13132TIP3   OH260886   4.124   5.085   1.728  0.1168  0.1812  0.7000
13132TIP3    H160887   4.186   5.143   1.683 -0.5560  1.8718  1.9023
13132TIP3    H260888   4.068   5.144   1.777 -1.0595 -1.4746  1.3810
13133TIP3   OH260889   2.471   2.264   5.670  0.0520 -0.3731 -0.6217
13133TIP3    H160890   2.478   2.299   5.759  0.7280 -0.0074 -0.8234
13133TIP3    H260891   2.421   2.183   5.681 -0.4368  0.0095  0.0042
13134TIP3   OH260892   0.110   6.162   4.742 -0.5853  0.7340  0.1239
13134TIP3    H160893   0.143   6.104   4.673 -0.1527 -0.7615  1.5357
13134TIP3    H260894   0.049   6.220   4.697  0.7111  0.7025 -1.7608
13135TIP3   OH260895   0.463   1.706  13.295  0.8944 -0.5614  0.2490
13135TIP3    H160896   0.496   1.683  13.382 -1.7872  0.3235  1.5500
13135TIP3    H260897   0.459   1.622  13.249  0.9731 -1.2636  1.4738
13136TIP3   OH260898   2.030   2.828   4.355  0.3768  0.0107 -0.2486
13136TIP3    H160899   2.069   2.766   4.416  0.8631  0.3346 -0.2202
13136TIP3    H260900   2.008   2.904   4.409 -1.8211 -0.8007  0.0376
13137TIP3   OH260901   0.716   4.465   5.615  0.0459 -0.1959  0.4901
13137TIP3    H160902   0.621   4.475   5.610  0.1560  0.8689  0.5390
13137TIP3    H260903   0.747   4.546   5.654  1.0043 -0.4272  0.2218
13138TIP3   OH260904   2.572   0.981   4.087  0.2888  0.1944 -0.5160
13138TIP3    H160905   2.616   1.021   4.012 -0.3339 -0.0473 -1.0149
13138TIP3    H260906   2.623   1.009   4.163  2.7010 -1.9176 -1.2569
13139TIP3   OH260907   4.264   6.555  16.559  0.0502  1.0661  0.6697
13139TIP3    H160908   4.289   6.589  16.645 -0.5176 -0.0277  1.2834
13139TIP3    H260909   4.181   6.511  16.574  1.6562 -2.2281  0.3340
13140TIP3   OH260910   4.369   0.943  17.216 -0.1735 -0.1519 -0.1291
13140TIP3    H160911   4.325   0.972  17.296 -0.1990  0.3267 -0.3119
13140TIP3    H260912   4.462   0.943  17.239 -0.1672  0.1561 -0.1470
13141TIP3   OH260913   0.869   6.558   4.757  0.4881 -0.4639 -0.1872
13141TIP3    H160914   0.783   6.574   4.717  0.6167 -1.4899 -0.8819
13141TIP3    H260915   0.906   6.486   4.706  1.4341 -0.5443  0.6124
13142TIP3   OH260916   2.016   3.565  13.110 -0.1929  0.2966  0.0394
13142TIP3    H160917   2.096   3.617  13.115 -0.7876  1.5340 -2.5399
13142TIP3    H260918   2.031   3.505  13.037 -1.8460  0.9863 -0.8929
13143TIP3   OH260919   6.814   5.851  15.339 -0.4090  0.0512  0.1720
13143TIP3    H160920   6.785   5.936  15.306 -0.5939  0.2555  0.8490
13143TIP3    H260921   6.773   5.843  15.425 -1.6327 -1.3921 -0.5116
13144TIP3   OH260922   0.736   1.031   4.333 -0.0709  0.3791 -0.3469
13144TIP3    H160923   0.782   1.114   4.330  0.9344 -0.1577 -0.0221
13144TIP3    H260924   0.645   1.053   4.312  0.7691  1.0760 -3.4914
13145TIP3   OH260925   3.716   3.797  16.725  0.9137  0.1717 -0.0333
13145TIP3    H160926   3.701   3.758  16.812  0.9681 -0.6790 -0.3979
13145TIP3    H260927   3.674   3.883  16.730  0.3459 -0.1342  0.6221
13146TIP3   OH260928   1.775   5.355  13.256 -0.6421 -0.7665  0.3662
13146TIP3    H160929   1.684   5.371  13.230 -0.5948  0.3276  0.8637
13146TIP3    H260930   1.769   5.292  13.328 -1.0345 -0.3289  0.7170
13147TIP3   OH260931   2.774   0.578   0.358  0.0334  0.2208  0.2367
13147TIP3    H160932   2.841   0.625   0.407 -0.3835 -0.4644  1.4781
13147TIP3    H260933   2.823   0.520   0.300  0.5478  2.1282 -1.2753
13148TIP3   OH260934   6.318   2.023  12.882 -0.3900 -0.0914  0.3429
13148TIP3    H160935   6.293   2.051  12.970 -1.8765 -0.3651  0.0282
13148TIP3    H260936   6.275   2.086  12.824 -1.2039 -1.1700 -0.2512
13149TIP3   OH260937   6.528   4.400   5.742 -0.5614 -0.2844  0.1319
13149TIP3    H160938   6.612   4.397   5.788  0.6699 -1.3090 -2.1197
13149TIP3    H260939   6.468   4.352   5.800  0.5192 -0.0289  1.5039
13150TIP3   OH260940   2.736   0.075  17.246  0.5800 -0.0368 -0.3525
13150TIP3    H160941   2.717  -0.003  17.193 -0.4721 -0.4000  0.5213
13150TIP3    H260942   2.831   0.085  17.242  0.8298 -1.9328  0.2695
13151TIP3   OH260943   0.738   4.638  16.828  0.0897  0.4088  0.1854
13151TIP3    H160944   0.818   4.689  16.812  1.4406 -1.8319 -0.4360
13151TIP3    H260945   0.713   4.605  16.742 -0.5190 -0.3153  0.6341
13152TIP3   OH260946   1.038   1.518  11.732 -0.1082 -0.2518  0.4612
13152TIP3    H160947   0.998   1.585  11.677  0.3685  0.5585  1.0864
13152TIP3    H260948   1.086   1.462  11.670  0.5208  0.7203  0.0477
13153TIP3   OH260949   3.408   0.428   0.259 -0.3716 -0.3639 -0.1609
13153TIP3    H160950   3.411   0.359   0.192 -1.5923  2.4394 -3.1980
13153TIP3    H260951   3.323   0.417   0.301 -1.1293  0.1357 -1.5571
13154TIP3   OH260952   4.404   2.065   3.621  0.9355 -0.3175 -0.7433
13154TIP3    H160953   4.384   1.975   3.644  0.4564 -0.4825 -1.8066
13154TIP3    H260954   4.472   2.091   3.683 -1.0112 -0.4466  1.5128
13155TIP3   OH260955   2.469   0.453  12.288 -0.2098  0.3268  0.2862
13155TIP3    H160956   2.528   0.489  12.354 -0.3104 -1.9478  1.6689
13155TIP3    H260957   2.461   0.360  12.310 -0.6328 -0.3981 -2.6557
13156TIP3   OH260958   5.204   1.826   0.522  0.0887  0.3382 -0.1539
13156TIP3    H160959   5.255   1.756   0.562 -0.5994  0.4463  0.9225
13156TIP3    H260960   5.163   1.872   0.595 -0.5800  1.0027 -0.9290
13157TIP3   OH260961   3.101   5.097  16.910 -0.0052 -0.3249 -0.2845
13157TIP3    H160962   3.043   5.101  16.986 -0.3267 -0.1095 -0.5381
13157TIP3    H260963   3.180   5.053  16.942 -0.1081 -0.1646  0.1929
13158TIP3   OH260964   1.921   5.672   2.804  0.4701 -0.1372 -0.3899
13158TIP3    H160965   1.910   5.595   2.860 -3.1773  0.2400 -0.4211
13158TIP3    H260966   1.922   5.746   2.865 -0.9520  0.0916 -0.6212
13159TIP3   OH260967   5.338   3.190   2.474 -0.1260  0.6315  0.4748
13159TIP3    H160968   5.327   3.260   2.409 -0.5834  1.4749  1.4582
13159TIP3    H260969   5.298   3.224   2.554 -0.4753 -0.8096  0.9329
13160TIP3   OH260970   3.301   6.654  13.161  0.0230 -0.0526  0.0948
13160TIP3    H160971   3.321   6.579  13.104  0.9372 -2.2603  3.2033
13160TIP3    H260972   3.377   6.712  13.151  0.9341 -1.1950  0.2827
13161TIP3   OH260973   4.846   6.411  16.119  0.6647 -0.2763 -0.0162
13161TIP3    H160974   4.818   6.388  16.208  1.8926 -0.1273  0.4221
13161TIP3    H260975   4.797   6.351  16.063 -0.7634  0.2070  0.7048
13162TIP3   OH260976   4.043   3.341   1.946 -0.1063 -0.4744  0.6139
13162TIP3    H160977   4.128   3.386   1.945 -1.2304  1.7329  1.6703
13162TIP3    H260978   3.989   3.388   1.883 -0.7880 -1.4288  0.4699
13163TIP3   OH260979   6.385   4.036  14.784 -0.0016  0.4035 -0.1235
13163TIP3    H160980   6.327   4.045  14.860  1.1758 -0.7303  0.9328
13163TIP3    H260981   6.421   4.124  14.771 -0.2042  0.6080  0.6453
13164TIP3   OH260982   3.963   2.187  16.516 -0.1216  0.0112 -0.8877
13164TIP3    H160983   3.955   2.216  16.607  2.1443  0.7790 -0.8940
13164TIP3    H260984   3.952   2.266  16.464  0.1341 -0.1534 -1.1964
13165TIP3   OH260985   1.427   2.691  12.293 -0.1594 -0.1375 -0.0273
13165TIP3    H160986   1.461   2.725  12.376  0.1746  2.1119 -1.0533
13165TIP3    H260987   1.480   2.733  12.226 -0.3216 -2.0684 -1.3911
13166TIP3   OH260988   1.869   2.295  13.967  0.6823  0.0867 -0.2724
13166TIP3    H160989   1.875   2.246  14.050  0.5214  0.8386  0.1870
13166TIP3    H260990   1.791   2.259  13.925  2.1960 -2.1013 -1.2912
13167TIP3   OH260991   5.546   1.580  13.482  0.0146 -0.6743  0.3290
13167TIP3    H160992   5.479   1.583  13.414 -1.9229  1.3187  2.2538
13167TIP3    H260993   5.519   1.507  13.538  1.4213 -2.0954 -0.8002
13168TIP3   OH260994   2.871   0.247  11.616  0.2473  0.2498  0.2846
13168TIP3    H160995   2.846   0.200  11.536  1.5509 -1.3431  0.7875
13168TIP3    H260996   2.790   0.287  11.647 -0.4246  0.2311 -1.3937
13169TIP3   OH260997   1.064   3.664   0.319 -0.2664  0.4428 -0.0852
13169TIP3    H160998   1.143   3.692   0.365  0.0879  0.1715 -0.5353
13169TIP3    H260999   1.074   3.569   0.310 -0.5145  0.4462 -0.3890
13170TIP3   OH261000   2.240   0.675   4.955  0.5671  0.2243 -0.8152
13170TIP3    H161001   2.210   0.648   5.042 -2.1393 -2.7858 -2.5663
13170TIP3    H261002   2.333   0.653   4.954  0.0252 -2.3826  0.3850
13171TIP3   OH261003   3.967   6.672  14.621 -0.3326  0.2985  0.2492
13171TIP3    H161004   3.949   6.580  14.603  1.1253 -0.3482  1.8597
13171TIP3    H261005   3.901   6.698  14.685 -0.0753  0.0402  0.6232
13172TIP3   OH261006   5.852   5.769   1.285 -0.1327  0.1560  0.0270
13172TIP3    H161007   5.830   5.676   1.294 -0.1220  0.0677 -0.8530
13172TIP3    H261008   5.914   5.786   1.356 -0.0979 -0.5169  0.1557
13173TIP3   OH261009   3.068   3.344   1.755 -0.2964  0.7149  0.0019
13173TIP3    H161010   3.086   3.253   1.777  2.2187  1.0733 -0.3867
13173TIP3    H261011   2.986   3.342   1.706 -0.9109 -1.1750  1.0798
13174TIP3   OH261012   6.439   6.197  11.523 -0.1439 -0.1998 -0.4306
13174TIP3    H161013   6.439   6.224  11.432  1.3096 -1.3139 -0.7872
13174TIP3    H261014   6.406   6.273  11.571 -0.1361  0.6826 -1.8002
13175TIP3   OH261015   1.348   5.655   0.720 -0.3618  0.9008  0.0117
13175TIP3    H161016   1.316   5.608   0.797  1.7745 -0.5345  0.0842
13175TIP3    H261017   1.390   5.733   0.756  0.8001  0.1375  0.3364
13176TIP3   OH261018   2.136   3.301   2.410 -0.2754 -0.3274  0.0794
13176TIP3    H161019   2.188   3.244   2.465 -1.8611 -0.4123  1.5504
13176TIP3    H261020   2.048   3.297   2.448 -0.9732  1.1017 -1.3187
13177TIP3   OH261021   6.510   0.220  16.255 -0.0949 -0.1742 -0.0261
13177TIP3    H161022   6.547   0.135  16.232  0.3946  0.1973 -0.6151
13177TIP3    H261023   6.451   0.201  16.328  1.3127 -0.7627  0.9872
13178TIP3   OH261024   4.521   5.182  13.100 -0.9833  0.1922 -0.5073
13178TIP3    H161025   4.559   5.096  13.116  0.1681  0.5900 -0.9997
13178TIP3    H261026   4.560   5.238  13.168  0.6574  0.9711 -2.0528
13179TIP3   OH261027   2.207   1.321   2.745 -0.1045 -0.3550  0.2256
13179TIP3    H161028   2.178   1.264   2.674  0.9762  1.6250 -1.8896
13179TIP3    H261029   2.167   1.406   2.725  1.6391  0.6810  1.0247
13180TIP3   OH261030   6.463   2.018   4.364 -0.2588 -0.0981 -0.4331
13180TIP3    H161031   6.397   1.983   4.424  0.4166 -2.0288 -0.7644
13180TIP3    H261032   6.443   1.976   4.280  1.1708 -0.4415 -0.6138
13181TIP3   OH261033   5.633   1.087   2.410  0.1851 -0.0840 -0.6151
13181TIP3    H161034   5.560   1.139   2.443 -0.7348 -0.3068 -2.2645
13181TIP3    H261035   5.687   1.150   2.361  0.3313 -0.2172 -0.6260
13182TIP3   OH261036   3.655   1.898  15.351 -0.6766 -0.0199  0.3744
13182TIP3    H161037   3.735   1.929  15.309 -0.1084 -1.6653  0.2001
13182TIP3    H261038   3.584   1.931  15.297 -0.0325 -0.2692 -0.6255
13183TIP3   OH261039   4.277   4.052   6.246 -0.5161  0.0746 -0.6626
13183TIP3    H161040   4.297   4.136   6.286 -0.8391 -0.1875  0.0534
13183TIP3    H261041   4.197   4.067   6.196 -2.2773 -0.5118  1.8472
13184TIP3   OH261042   5.517   5.513  12.249  0.0997 -0.5528 -0.0080
13184TIP3    H161043   5.498   5.426  12.214  0.7700 -0.3539 -0.8848
13184TIP3    H261044   5.432   5.558  12.249 -0.3385 -1.3764  0.9503
13185TIP3   OH261045   2.542   5.151  13.609 -0.4664  0.0788 -0.1619
13185TIP3    H161046   2.637   5.140  13.603 -0.5208 -1.6892  1.5350
13185TIP3    H261047   2.529   5.203  13.688 -0.9409 -0.4362  0.1022
13186TIP3   OH261048   1.427   1.451  16.465  0.1691 -0.0818  0.4177
13186TIP3    H161049   1.426   1.356  16.475  0.1847 -0.2569 -1.0296
13186TIP3    H261050   1.392   1.485  16.547  0.0741 -1.3367  0.9075
13187TIP3   OH261051   1.471   2.753   0.729  0.1754 -0.1706 -0.4330
13187TIP3    H161052   1.378   2.747   0.705  0.3469  0.8658 -1.3901
13187TIP3    H261053   1.485   2.845   0.749  0.5071 -0.6828  1.8425
13188TIP3   OH261054   3.037   6.031  14.862  0.0358 -0.1249  0.0286
13188TIP3    H161055   3.034   6.035  14.767 -0.6965  0.2542  0.0613
13188TIP3    H261056   3.007   5.943  14.884 -1.4076  0.3447 -0.0351
13189TIP3   OH261057   0.623   1.957  13.830  0.4732  0.2312 -0.4649
13189TIP3    H161058   0.556   1.899  13.793 -0.7487  0.9438  0.6319
13189TIP3    H261059   0.688   1.897  13.868  0.1737 -0.4442 -1.0015
13190TIP3   OH261060   4.918   1.302   0.820 -0.7786  0.3365  0.0292
13190TIP3    H161061   5.007   1.324   0.791 -0.7567  1.3247  0.8120
13190TIP3    H261062   4.867   1.382   0.804 -1.2819  0.1302  0.5666
13191TIP3   OH261063   4.019   3.427   0.393  0.3160 -0.1075  0.1731
13191TIP3    H161064   4.097   3.386   0.356  0.7993  0.0314  1.0316
13191TIP3    H261065   4.050   3.509   0.430 -0.0579 -0.5144  1.4080
13192TIP3   OH261066   2.582   2.386  10.795 -0.5045  0.1098 -0.3827
13192TIP3    H161067   2.558   2.479  10.785 -0.1018  0.0824 -1.6636
13192TIP3    H261068   2.676   2.388  10.816 -0.8969  0.0675  1.4512
13193TIP3   OH261069   4.237   0.131   0.423  0.1633 -0.6616  0.3859
13193TIP3    H161070   4.199   0.063   0.367 -2.1423  0.1990  0.8499
13193TIP3    H261071   4.257   0.087   0.505  2.7411 -1.7310 -0.7485
13194TIP3   OH261072   2.926   0.475  14.419  0.0356 -0.2701  0.4237
13194TIP3    H161073   2.935   0.555  14.366  0.5649  0.1285  1.1128
13194TIP3    H261074   2.835   0.449  14.407  0.3635 -0.6829 -1.3871
13195TIP3   OH261075   0.945   2.162   4.609  0.2865  0.5401  0.0661
13195TIP3    H161076   1.039   2.151   4.599  0.1167  0.6147 -1.8289
13195TIP3    H261077   0.913   2.176   4.520 -1.4355  1.1405  0.7551
13196TIP3   OH261078   1.492   0.812  11.247 -0.0068  0.5430  0.7236
13196TIP3    H161079   1.452   0.786  11.330 -0.6557  1.8263  0.8285
13196TIP3    H261080   1.467   0.742  11.186 -2.5374  1.3506  0.7619
13197TIP3   OH261081   5.566   3.633   4.062  0.1870 -0.1489  0.3344
13197TIP3    H161082   5.488   3.670   4.020  0.1233  0.1421  0.7062
13197TIP3    H261083   5.635   3.644   3.997  0.1514  0.5602  0.4151
13198TIP3   OH261084   3.852   0.637  16.855 -0.2087 -0.2122 -0.3021
13198TIP3    H161085   3.919   0.588  16.807  0.1234 -0.1432  0.0858
13198TIP3    H261086   3.833   0.583  16.932  1.5223  1.1251  1.1242
13199TIP3   OH261087   4.742   4.228  14.990 -0.6899 -0.0982 -0.0512
13199TIP3    H161088   4.724   4.279  15.069  2.4888  0.0210  0.6640
13199TIP3    H261089   4.706   4.281  14.919  0.2340  1.9230  0.9378
13200TIP3   OH261090   6.382   6.544  17.031  0.4776  0.0215 -0.0143
13200TIP3    H161091   6.368   6.453  17.058 -0.5439  0.7813  2.0784
13200TIP3    H261092   6.368   6.543  16.936 -1.5493 -1.6376  0.2697
13201TIP3   OH261093   5.705   1.182   5.591  0.1855 -0.3180  0.2746
13201TIP3    H161094   5.748   1.267   5.594  0.9076 -0.6959  0.8726
13201TIP3    H261095   5.696   1.156   5.683  0.0430 -0.9170  0.0951
13202TIP3   OH261096   6.023   6.014   5.310  0.3524 -0.0061 -0.3414
13202TIP3    H161097   6.007   5.919   5.309 -1.2088  0.2291  0.5757
13202TIP3    H261098   5.999   6.041   5.399  2.0855  1.0466 -0.1633
13203TIP3   OH261099   5.153   0.586   1.499 -0.0705 -0.7979 -0.0038
13203TIP3    H161100   5.235   0.617   1.462 -0.5914  1.9643  1.0208
13203TIP3    H261101   5.152   0.621   1.588 -1.4148 -2.5198  0.6779
13204TIP3   OH261102   0.593   0.513  16.869 -0.2743 -0.3487  0.9168
13204TIP3    H161103   0.519   0.558  16.828  1.8746  1.4806 -1.1180
13204TIP3    H261104   0.592   0.544  16.959 -1.2226  0.6871  0.5759
13205TIP3   OH261105   1.884   4.585   3.002 -0.6948  0.7698  0.0951
13205TIP3    H161106   1.848   4.636   3.075  0.1596  2.5803 -0.7277
13205TIP3    H261107   1.807   4.558   2.952 -1.3278 -0.8786  1.8819
13206TIP3   OH261108   2.211   2.761  14.699 -0.1538 -0.6253  0.1521
13206TIP3    H161109   2.261   2.816  14.760  0.3967 -1.7331  0.7233
13206TIP3    H261110   2.277   2.703  14.662 -0.5985 -0.3599 -1.0547
13207TIP3   OH261111   3.368   6.092  15.328 -0.4042  0.0316 -0.2173
13207TIP3    H161112   3.370   6.029  15.400  1.9975 -0.2395 -0.4964
13207TIP3    H261113   3.304   6.158  15.356  0.1489 -0.3123  1.9786
13208TIP3   OH261114   0.221   0.960   5.530 -0.3585  0.1333 -0.7739
13208TIP3    H161115   0.179   0.959   5.616 -1.9596 -0.5642 -1.5292
13208TIP3    H261116   0.300   0.908   5.541 -1.1385 -0.9137  0.0020
13209TIP3   OH261117   1.421   0.722   3.478 -0.5123 -0.8875 -0.1328
13209TIP3    H161118   1.391   0.739   3.567  0.4283 -4.1761  0.8714
13209TIP3    H261119   1.357   0.767   3.422 -0.5820  2.0053  2.1689
13210TIP3   OH261120   5.839   3.782  16.951 -0.1246  0.5557  0.1559
13210TIP3    H161121   5.932   3.807  16.950 -0.2523  1.0728 -2.2649
13210TIP3    H261122   5.798   3.843  16.890 -2.3628  1.3557  2.3628
13211TIP3   OH261123   4.887   5.055   0.107 -0.1535 -0.7630  0.0702
13211TIP3    H161124   4.962   5.113   0.118  2.1698 -3.7317  0.5293
13211TIP3    H261125   4.918   4.986   0.049 -2.9941 -1.3370 -0.8569
13212TIP3   OH261126   5.905   2.432   4.632  0.6518  0.3065  0.4242
13212TIP3    H161127   5.959   2.354   4.620 -1.4608 -1.1929  0.2279
13212TIP3    H261128   5.848   2.433   4.555 -1.0268  0.6279  1.6493
13213TIP3   OH261129   4.925   5.080   2.207 -0.2053  0.5846 -0.0535
13213TIP3    H161130   4.835   5.059   2.186 -0.3999  2.3771 -1.1163
13213TIP3    H261131   4.920   5.165   2.251  0.8332 -0.0070  1.2498
13214TIP3   OH261132   0.552   1.346   0.409 -0.1199  0.8402  0.4760
13214TIP3    H161133   0.546   1.297   0.491 -0.4627  0.6511  0.3383
13214TIP3    H261134   0.472   1.324   0.362  0.5231  0.1580 -0.3373
13215TIP3   OH261135   1.700   0.675  13.101 -0.5525  0.2000  0.0435
13215TIP3    H161136   1.610   0.643  13.088  0.0365  0.1330 -4.7545
13215TIP3    H261137   1.747   0.599  13.136 -1.7316 -0.6755 -0.2000
13216TIP3   OH261138   2.295   4.201  12.611  0.0994  0.1189  0.7300
13216TIP3    H161139   2.228   4.190  12.678  0.4358 -2.0540  0.7680
13216TIP3    H261140   2.274   4.135  12.545  0.7882  1.0494 -0.4277
13217TIP3   OH261141   0.212   2.052   0.430 -0.0285 -0.6082 -0.3302
13217TIP3    H161142   0.273   2.049   0.503  0.6943 -0.5762 -0.9184
13217TIP3    H261143   0.155   2.126   0.449  1.7772  1.0267 -1.0337
13218TIP3   OH261144   0.253   1.504  17.041 -0.0695  0.0065  0.1443
13218TIP3    H161145   0.344   1.479  17.031  0.2987  0.4048  2.2722
13218TIP3    H261146   0.215   1.494  16.953  1.9433 -0.3722 -0.6988
13219TIP3   OH261147   6.166   6.744   2.902 -0.1382 -0.2233  0.0192
13219TIP3    H161148   6.094   6.682   2.888  1.6869 -2.2136 -0.8965
13219TIP3    H261149   6.211   6.748   2.817  3.9114 -3.0786  1.8832
13220TIP3   OH261150   4.996   1.149  10.800  0.3969 -0.2674  0.1305
13220TIP3    H161151   5.027   1.183  10.884 -0.5663  0.3564  0.2424
13220TIP3    H261152   4.975   1.227  10.749 -0.9884 -0.6653  0.0652
13221TIP3   OH261153   4.452   1.001  16.952 -0.0576  0.0886 -0.2987
13221TIP3    H161154   4.414   0.952  17.025 -1.1680  0.7618 -0.4170
13221TIP3    H261155   4.490   1.079  16.993 -0.7397  0.4996 -0.4370
13222TIP3   OH261156   1.811   1.221  11.212  0.1377  0.0180  0.2643
13222TIP3    H161157   1.831   1.303  11.256 -0.4188  0.6427 -0.6213
13222TIP3    H261158   1.747   1.178  11.269 -2.4455  1.9244 -1.0666
13223TIP3   OH261159   5.980   4.448   5.538 -0.1584 -0.6980 -0.7466
13223TIP3    H161160   6.065   4.492   5.531 -1.4755  2.0327 -0.2114
13223TIP3    H261161   5.991   4.387   5.611  1.0703  0.2861 -0.0840
13224TIP3   OH261162   1.359   0.710   3.749 -0.3955  0.0077 -0.0892
13224TIP3    H161163   1.436   0.659   3.771 -0.2999 -0.2763 -1.0348
13224TIP3    H261164   1.290   0.676   3.806  0.2751  0.5760  1.0830
13225TIP3   OH261165   2.192   4.412  11.219  0.1791  0.5041 -0.0234
13225TIP3    H161166   2.283   4.429  11.246 -0.1812 -0.9784  2.2926
13225TIP3    H261167   2.199   4.373  11.132  1.7746  0.1299  0.2587
13226TIP3   OH261168   3.660   5.232  14.659 -0.4936 -0.1644  0.0889
13226TIP3    H161169   3.653   5.213  14.753  0.4316 -0.4250  0.1127
13226TIP3    H261170   3.754   5.229  14.641 -0.5505  1.5732 -0.5120
13227TIP3   OH261171   2.920   3.973   2.995  0.3289  0.2097  0.2377
13227TIP3    H161172   2.850   3.951   2.933  1.0143 -0.5271 -0.2786
13227TIP3    H261173   2.960   4.052   2.959  0.4398  0.0355 -0.0217
13228TIP3   OH261174   1.780   2.368   5.206 -1.0588 -0.0018 -0.0677
13228TIP3    H161175   1.777   2.281   5.167 -1.2223 -0.1064  0.1735
13228TIP3    H261176   1.727   2.422   5.148 -1.3114 -0.1597  0.0134
13229TIP3   OH261177   3.246   2.523  17.283 -0.0943  0.6652 -0.6835
13229TIP3    H161178   3.225   2.558  17.370 -1.6368  1.1145 -1.2317
13229TIP3    H261179   3.249   2.428  17.296 -0.1957  0.7353 -0.1218
13230TIP3   OH261180   4.646   1.271  12.721 -0.1523 -0.4861 -0.5459
13230TIP3    H161181   4.577   1.300  12.782  1.0532 -0.6100  0.9164
13230TIP3    H261182   4.629   1.178  12.709  1.4973 -1.2177  2.2338
13231TIP3   OH261183   4.187   3.171   4.462 -0.1538  0.0116  0.2852
13231TIP3    H161184   4.263   3.131   4.504 -0.0108  1.3278  1.2947
13231TIP3    H261185   4.223   3.241   4.408 -0.6448  0.6220  0.7417
13232TIP3   OH261186   3.954   3.594   1.421 -0.2229  0.6206 -0.1811
13232TIP3    H161187   4.012   3.652   1.373  1.9445 -0.9039  0.5542
13232TIP3    H261188   3.930   3.643   1.500  1.2731  0.6927  0.2396
13233TIP3   OH261189   2.026   1.338  12.588  0.2471  0.2828 -0.5025
13233TIP3    H161190   2.035   1.372  12.677 -0.9377 -0.1795 -0.1944
13233TIP3    H261191   2.108   1.291  12.572  2.3648  4.0416 -1.3215
13234TIP3   OH261192   3.880   0.475  16.479  0.2348  0.3435  0.0023
13234TIP3    H161193   3.858   0.466  16.387 -1.4581  0.5385  0.3634
13234TIP3    H261194   3.844   0.396  16.520 -0.7447  1.1780  0.7729
13235TIP3   OH261195   2.529   6.704  12.373 -0.3027  0.2543 -0.2994
13235TIP3    H161196   2.509   6.767  12.442  1.6469 -0.3674  0.8876
13235TIP3    H261197   2.601   6.651  12.409 -0.1651 -0.9696 -2.2761
13236TIP3   OH261198   3.372   1.934  13.944 -0.8338  0.6436  0.0287
13236TIP3    H161199   3.448   1.882  13.917 -2.2718 -1.9856  0.8884
13236TIP3    H261200   3.375   1.932  14.040 -2.1338  0.2529  0.0682
13237TIP3   OH261201   4.479   0.328   2.035  0.2235 -0.5058 -0.4838
13237TIP3    H161202   4.398   0.288   2.067  1.0136  0.0679  2.4351
13237TIP3    H261203   4.458   0.421   2.024  0.4590 -0.3472  0.3234
13238TIP3   OH261204   2.921   1.970  12.591 -0.5374  0.1631 -0.2712
13238TIP3    H161205   2.867   1.892  12.580 -0.1852 -0.3911  1.8361
13238TIP3    H261206   2.925   2.009  12.503 -0.4604 -2.3448 -1.4152
13239TIP3   OH261207   4.377   1.626   0.898 -0.5122  0.2674 -0.0834
13239TIP3    H161208   4.305   1.572   0.932 -0.5644 -0.4743 -1.3591
13239TIP3    H261209   4.335   1.687   0.837  0.2942 -2.0994 -3.0822
13240TIP3   OH261210   6.498   3.989  13.945 -0.5432 -0.2457 -0.2610
13240TIP3    H161211   6.524   3.994  13.853 -0.7045 -1.8821 -0.4186
13240TIP3    H261212   6.576   3.958  13.991  0.5433  3.6683  0.6749
13241TIP3   OH261213   5.813   4.390  13.220  0.5871 -0.4745  0.3542
13241TIP3    H161214   5.904   4.403  13.244  0.1066  0.9376  1.5211
13241TIP3    H261215   5.806   4.423  13.131  0.7865  1.3707  1.0050
13242TIP3   OH261216   5.694   2.822  10.816  0.0168 -0.3361  0.1589
13242TIP3    H161217   5.634   2.852  10.747  1.0925 -1.0105 -1.0994
13242TIP3    H261218   5.734   2.903  10.849 -0.1032 -0.0506 -0.3806
13243TIP3   OH261219   5.923   0.577   5.504  0.3226 -0.0599 -0.0402
13243TIP3    H161220   5.980   0.654   5.500 -0.2407  0.3177 -0.9097
13243TIP3    H261221   5.914   0.558   5.597 -0.9009  1.9253  0.2610
13244TIP3   OH261222   6.345   4.447  15.439 -0.7689 -0.4241  0.0771
13244TIP3    H161223   6.256   4.474  15.420  0.0572  1.8472 -0.6824
13244TIP3    H261224   6.375   4.404  15.359 -1.5708 -2.3779  0.7746
13245TIP3   OH261225   5.761   3.570  13.032  0.0273 -0.0339 -0.0786
13245TIP3    H161226   5.839   3.561  13.086 -1.2026  0.6231  1.8419
13245TIP3    H261227   5.726   3.657  13.054  0.5060  1.0615 -3.3004
13246TIP3   OH261228   1.321   4.866  11.655 -0.3390  0.5223  0.0828
13246TIP3    H161229   1.406   4.822  11.656 -1.5171 -1.8398 -0.5537
13246TIP3    H261230   1.271   4.823  11.724 -0.8471  2.3341  0.8756
13247TIP3   OH261231   1.469   0.097  15.858 -0.0688  0.4028  0.0381
13247TIP3    H161232   1.503   0.137  15.938  4.8105 -0.3954 -1.5092
13247TIP3    H261233   1.478   0.164  15.791  1.2239 -0.8142 -1.0212
13248TIP3   OH261234   5.941   4.795   4.740  0.0030 -0.1249 -0.1390
13248TIP3    H161235   5.946   4.766   4.648 -1.1300 -1.0920  0.0894
13248TIP3    H261236   5.875   4.864   4.739 -1.1033 -1.1481  0.1712
13249TIP3   OH261237   2.301   0.637   1.247 -0.2410 -0.1482 -0.1050
13249TIP3    H161238   2.336   0.710   1.195  0.3608 -1.1509 -1.1314
13249TIP3    H261239   2.358   0.634   1.324 -1.4523  1.6690  0.8841
13250TIP3   OH261240   6.199   6.600   1.401 -0.2368  0.1941  0.0396
13250TIP3    H161241   6.235   6.665   1.462 -0.4422 -1.3335  1.8272
13250TIP3    H261242   6.122   6.643   1.363  0.4680  1.5291  0.1003
13251TIP3   OH261243   3.212   1.611  16.651 -0.7825 -0.6133 -0.3567
13251TIP3    H161244   3.297   1.614  16.695 -1.4438 -0.1420  0.8925
13251TIP3    H261245   3.162   1.545  16.699 -1.1953 -0.7721 -0.9891
13252TIP3   OH261246   2.857   4.313   0.445 -0.1121  0.0524  0.0265
13252TIP3    H161247   2.892   4.242   0.499  0.0042  0.4083  0.4226
13252TIP3    H261248   2.762   4.310   0.459 -0.2578 -0.9194 -1.0574
13253TIP3   OH261249   6.771   1.656   6.483  0.3452 -0.0006 -0.0801
13253TIP3    H161250   6.736   1.613   6.561 -0.0206 -0.0412 -0.2634
13253TIP3    H261251   6.843   1.601   6.454  0.2626 -0.1675  0.0367
13254TIP3   OH261252   1.018   4.982  15.114  0.3541 -0.6771 -0.3957
13254TIP3    H161253   1.062   4.912  15.163 -1.4768 -2.0287 -0.6007
13254TIP3    H261254   0.926   4.976  15.141  0.1716  1.7456 -0.3422
13255TIP3   OH261255   3.710   2.683  12.287  0.3576 -0.3593  0.0179
13255TIP3    H161256   3.761   2.606  12.264  1.6177  0.4219  0.1389
13255TIP3    H261257   3.729   2.698  12.380  0.6057  0.4445 -0.1555
13256TIP3   OH261258   6.793   4.128   2.501 -0.0619  0.0963  0.6636
13256TIP3    H161259   6.723   4.078   2.459  0.2891  1.1472 -1.2326
13256TIP3    H261260   6.858   4.063   2.526 -1.0506 -0.7266  1.1129
13257TIP3   OH261261   5.063   5.684  16.091 -0.0199 -0.0961  0.0039
13257TIP3    H161262   5.107   5.601  16.112 -0.7212 -0.6241 -0.5967
13257TIP3    H261263   4.970   5.661  16.086 -0.2751  0.8567  0.4616
13258TIP3   OH261264   3.068   1.977   2.717  0.1346 -0.0351 -0.3188
13258TIP3    H161265   3.046   2.035   2.644  1.4275 -0.7281 -1.2809
13258TIP3    H261266   3.131   2.027   2.769  0.2953 -0.0870 -0.4626
13259TIP3   OH261267   3.303   5.530   4.418  0.2021 -0.4586  0.2079
13259TIP3    H161268   3.235   5.578   4.465  2.3572  1.1693  1.7228
13259TIP3    H261269   3.287   5.550   4.325  0.0600  1.8649  0.7040
13260TIP3   OH261270   4.164   1.657  12.608 -0.2588  0.0378 -0.0590
13260TIP3    H161271   4.142   1.614  12.690  0.4067  0.4104  0.3202
13260TIP3    H261272   4.161   1.587  12.542 -0.7202 -0.2751  0.2908
13261TIP3   OH261273   3.052   3.676   3.691  0.5686 -0.0855 -0.2686
13261TIP3    H161274   2.979   3.673   3.753  1.9270  1.9299  1.5331
13261TIP3    H261275   3.011   3.679   3.605 -1.4559  0.5546  0.6956
13262TIP3   OH261276   5.671   4.596  16.104  0.4253  0.3828 -0.2876
13262TIP3    H161277   5.697   4.516  16.058 -0.1346  0.5793 -0.9595
13262TIP3    H261278   5.602   4.634  16.049 -1.7226 -0.4214  1.7865
13263TIP3   OH261279   5.105   4.894   2.332  0.5828  0.1652 -0.2891
13263TIP3    H161280   5.028   4.948   2.315 -1.8037 -2.4645  1.6326
13263TIP3    H261281   5.145   4.881   2.246 -1.2564  1.3677 -1.3598
13264TIP3   OH261282   4.670   6.521   2.249 -0.3265  0.2496 -0.0238
13264TIP3    H161283   4.721   6.498   2.172  0.1484 -1.3346  0.7476
13264TIP3    H261284   4.697   6.611   2.270 -0.7028  0.8055 -1.8658
13265TIP3   OH261285   5.060   2.674   3.431  0.2088 -0.0238 -0.3384
13265TIP3    H161286   4.984   2.665   3.487  0.6632 -1.2549  0.0988
13265TIP3    H261287   5.083   2.767   3.436 -0.7090  0.1778  0.2327
13266TIP3   OH261288   0.748   2.563   3.741  0.3962 -0.4013 -0.1494
13266TIP3    H161289   0.761   2.593   3.831  0.3943 -1.7003  0.3030
13266TIP3    H261290   0.782   2.634   3.686 -2.4006  1.7406  0.7976
13267TIP3   OH261291   6.688   6.479   2.300  0.2480 -0.0340  0.5764
13267TIP3    H161292   6.714   6.555   2.353 -0.2956 -0.3216  1.2494
13267TIP3    H261293   6.631   6.516   2.232  0.1561  0.1925  0.7749
13268TIP3   OH261294   3.853   5.170  13.271 -0.0026 -0.0448 -0.2360
13268TIP3    H161295   3.805   5.092  13.243  1.8706 -1.0416 -0.7292
13268TIP3    H261296   3.888   5.207  13.190  0.0263  0.7006  0.1130
13269TIP3   OH261297   0.739   3.169   3.090  0.0704 -0.9593 -0.2642
13269TIP3    H161298   0.652   3.210   3.096 -0.6824 -2.6963  1.1922
13269TIP3    H261299   0.726   3.096   3.030  0.8081 -0.5687 -0.9024
13270TIP3   OH261300   6.749   4.728  16.220  0.1684  0.2527 -0.2053
13270TIP3    H161301   6.714   4.748  16.307  1.0890  1.3979 -0.0932
13270TIP3    H261302   6.691   4.776  16.160  0.4118  0.6409 -0.1311
13271TIP3   OH261303   2.053   0.691  13.080 -0.0916 -0.4247  0.3887
13271TIP3    H161304   1.997   0.649  13.145 -1.0961  3.1307  1.9390
13271TIP3    H261305   2.011   0.669  12.996 -1.4652 -1.1820  1.2464
13272TIP3   OH261306   0.705   3.880  16.260 -0.0803  0.8772 -0.3972
13272TIP3    H161307   0.751   3.868  16.177  2.3333  0.5623  0.9452
13272TIP3    H261308   0.717   3.973  16.280 -2.2285  1.3713 -1.2695
13273TIP3   OH261309   5.743   3.273  15.650  0.7171 -0.1826  0.4671
13273TIP3    H161310   5.736   3.263  15.555 -0.2218 -1.2783  0.6348
13273TIP3    H261311   5.697   3.354  15.670  2.3553  0.9365 -0.1844
13274TIP3   OH261312   4.619   4.040  16.700  0.3396 -0.3399  0.3177
13274TIP3    H161313   4.530   4.057  16.732  0.1988  3.6270 -1.7799
13274TIP3    H261314   4.608   4.029  16.606  1.9547 -0.8110  0.1873
13275TIP3   OH261315   1.143   6.782  13.792 -0.3350 -0.1683 -0.2083
13275TIP3    H161316   1.184   6.850  13.739  1.2366 -0.0572  1.1368
13275TIP3    H261317   1.054   6.815  13.808  0.0663  1.0562 -0.4617
13276TIP3   OH261318   1.934   2.097  15.388 -0.3826 -0.0782  0.6480
13276TIP3    H161319   2.006   2.121  15.330  0.4096  0.9364  2.0124
13276TIP3    H261320   1.855   2.108  15.335  0.3657  0.1320 -0.4407
13277TIP3   OH261321   5.156   2.371   1.817 -0.6299 -0.1811  0.2598
13277TIP3    H161322   5.225   2.376   1.751 -0.6864 -0.1308  0.2043
13277TIP3    H261323   5.177   2.293   1.868 -1.6224 -1.2653 -0.9741
13278TIP3   OH261324   3.304   3.349   3.047  0.4827  0.0877  0.3596
13278TIP3    H161325   3.210   3.330   3.039  0.5491  0.6597 -2.3307
13278TIP3    H261326   3.347   3.270   3.014  0.9734 -0.2299  1.7293
13279TIP3   OH261327   6.405   1.178  13.437 -0.5872 -0.1502 -0.0402
13279TIP3    H161328   6.370   1.131  13.362 -1.1525 -0.4358  0.3972
13279TIP3    H261329   6.447   1.111  13.490  1.1895  0.2843 -0.8740
13280TIP3   OH261330   3.368   4.426   2.087 -0.4605  0.4232 -0.2221
13280TIP3    H161331   3.396   4.508   2.127 -0.1813  0.9021 -1.3717
13280TIP3    H261332   3.275   4.437   2.071 -0.7684 -0.1284  1.1320
13281TIP3   OH261333   0.245   4.301  12.793 -0.3530 -0.2134 -0.0287
13281TIP3    H161334   0.335   4.333  12.781  0.0770 -1.4814 -0.2264
13281TIP3    H261335   0.224   4.257  12.710 -1.1125 -0.0410  0.0713
13282TIP3   OH261336   4.039   2.727  10.423  0.1126  0.1567  0.3957
13282TIP3    H161337   3.946   2.720  10.447 -0.5371  1.4987 -1.5544
13282TIP3    H261338   4.060   2.819  10.434  0.8409  0.1005 -0.4177
13283TIP3   OH261339   1.181   1.194  13.352 -0.1626  0.1288  0.1186
13283TIP3    H161340   1.211   1.165  13.266  0.7983  1.4420 -0.0168
13283TIP3    H261341   1.102   1.246  13.334  1.5201  2.6429 -0.2851
13284TIP3   OH261342   4.916   3.585   0.736 -0.0018  0.1891 -0.2630
13284TIP3    H161343   4.914   3.659   0.675  3.6377  0.1383 -0.5658
13284TIP3    H261344   4.914   3.508   0.679  1.6342  0.1386 -0.2952
13285TIP3   OH261345   0.207   5.838  15.908 -0.0943  0.0971  0.2251
13285TIP3    H161346   0.240   5.830  15.997 -0.3555  0.4317  0.3556
13285TIP3    H261347   0.214   5.750  15.871 -0.2961 -0.1105  0.6828
13286TIP3   OH261348   6.400   3.157  12.712  0.3832 -0.0382  0.5051
13286TIP3    H161349   6.423   3.162  12.620 -0.2081 -1.2132  0.2829
13286TIP3    H261350   6.484   3.148  12.758  0.5385 -1.6818 -0.0874
13287TIP3   OH261351   0.361   0.120  15.791  0.9148 -0.0329  0.4377
13287TIP3    H161352   0.278   0.122  15.745  0.9189 -2.3224  0.2290
13287TIP3    H261353   0.427   0.108  15.722  1.2978  0.5618  0.6971
13288TIP3   OH261354   4.864   4.503  11.936 -0.7012  0.2417  0.2058
13288TIP3    H161355   4.862   4.536  12.026  0.0892  1.1291 -0.1008
13288TIP3    H261356   4.957   4.486  11.919 -0.6546  1.6703 -1.0155
13289TIP3   OH261357   6.739   2.885   2.927  0.2895 -0.4943 -0.3034
13289TIP3    H161358   6.792   2.928   2.860 -0.9972  1.1043 -0.3053
13289TIP3    H261359   6.727   2.796   2.894  1.2838 -0.2860 -1.2587
13290TIP3   OH261360   1.551   2.760   2.545  0.0707  0.5716 -0.8344
13290TIP3    H161361   1.585   2.721   2.464 -0.4877 -0.2552 -0.6741
13290TIP3    H261362   1.475   2.811   2.518 -0.1914  0.1922 -0.8171
13291TIP3   OH261363   3.341   6.586  16.270 -0.4808  0.5194  0.0056
13291TIP3    H161364   3.339   6.622  16.181 -0.9637 -0.3889 -0.3537
13291TIP3    H261365   3.265   6.528  16.275 -0.7824  0.9913  1.1990
13292TIP3   OH261366   2.259   4.668   2.671 -0.3900  0.2323 -0.4271
13292TIP3    H161367   2.273   4.591   2.726 -1.1453  0.5803  0.2567
13292TIP3    H261368   2.165   4.670   2.654 -0.1813  0.1680 -1.6802
13293TIP3   OH261369   6.311   4.566   1.729 -0.3848  0.1911  0.2216
13293TIP3    H161370   6.221   4.576   1.700  0.0404 -1.6002 -1.8479
13293TIP3    H261371   6.361   4.626   1.674 -0.4561  2.2015  2.3027
13294TIP3   OH261372   1.404   5.226  11.813 -0.0214 -0.1091  0.2302
13294TIP3    H161373   1.323   5.227  11.762 -0.0331 -1.5766  0.1883
13294TIP3    H261374   1.463   5.171  11.762 -0.1172 -1.8182  1.8901
13295TIP3   OH261375   4.707   5.526   5.285  0.7116 -0.1713  0.4372
13295TIP3    H161376   4.757   5.554   5.208 -0.1582  2.5096  0.7820
13295TIP3    H261377   4.618   5.517   5.253  0.9248 -2.4490  0.3996
13296TIP3   OH261378   0.079   0.442   2.657 -0.6262  0.7082 -0.0477
13296TIP3    H161379   0.058   0.536   2.651 -1.1304  0.5636 -0.5184
13296TIP3    H261380   0.162   0.440   2.705  1.1157  1.5808 -2.9190
13297TIP3   OH261381   4.940   3.468   4.779  0.5449  0.3572  0.7443
13297TIP3    H161382   4.914   3.554   4.746  0.5458 -0.8554 -2.6437
13297TIP3    H261383   4.859   3.417   4.777  0.7305  0.0108  1.8674
13298TIP3   OH261384   5.869   0.803   1.486  0.3705 -0.1213 -0.4041
13298TIP3    H161385   5.801   0.740   1.509  0.5840 -0.0657  0.3979
13298TIP3    H261386   5.939   0.749   1.450  0.7262 -0.4004  0.6778
13299TIP3   OH261387   6.649   0.369  14.245 -0.1312 -0.2290 -0.1741
13299TIP3    H161388   6.729   0.393  14.291 -1.3952 -1.1409  2.6116
13299TIP3    H261389   6.659   0.275  14.228 -0.7178 -0.4018  0.4232
13300TIP3   OH261390   0.880   1.214   1.338 -0.4248 -0.0883  0.3774
13300TIP3    H161391   0.940   1.150   1.300 -0.9560 -0.4178  0.0935
13300TIP3    H261392   0.899   1.296   1.292 -1.1988 -0.5255 -0.7366
13301TIP3   OH261393   1.335   5.491  12.066 -0.1904 -0.4544 -0.0750
13301TIP3    H161394   1.400   5.490  12.137 -1.1598 -0.9273  0.8092
13301TIP3    H261395   1.330   5.583  12.040  2.3024 -0.6891 -1.5099
13302TIP3   OH261396   5.946   6.622  13.022 -0.7838 -0.0456  0.8079
13302TIP3    H161397   6.008   6.695  13.016 -0.5100 -0.2410  1.2451
13302TIP3    H261398   5.912   6.613  12.933  0.1175 -0.1983  0.4693
13303TIP3   OH261399   1.292   1.255  16.012  0.3127 -0.4160  0.0429
13303TIP3    H161400   1.378   1.224  15.982  0.8781  0.4460  0.7238
13303TIP3    H261401   1.279   1.210  16.096  0.2716 -0.2671  0.1172
13304TIP3   OH261402   3.634   3.845   5.234  0.0700 -0.0728  0.0808
13304TIP3    H161403   3.575   3.897   5.289 -0.0982  0.8107 -0.9330
13304TIP3    H261404   3.718   3.891   5.238 -0.2382  0.6167 -1.3063
13305TIP3   OH261405   1.470   5.738   2.130  0.4819  0.5959 -0.1345
13305TIP3    H161406   1.460   5.731   2.225  2.1293 -1.7205 -0.1004
13305TIP3    H261407   1.527   5.814   2.118  0.9971  0.3655  0.7771
13306TIP3   OH261408   2.886   1.402  14.341 -0.1871  0.0460  0.6101
13306TIP3    H161409   2.840   1.407  14.257 -0.1585 -1.2039  0.5109
13306TIP3    H261410   2.960   1.344  14.324  1.1649  1.6518  0.8996
13307TIP3   OH261411   4.428   4.369  13.907 -0.3514 -0.4029  0.4947
13307TIP3    H161412   4.460   4.372  13.997  0.8033  1.2263  0.0390
13307TIP3    H261413   4.406   4.277  13.893  2.3687 -1.2585  1.4551
13308TIP3   OH261414   4.219   5.191  12.511  0.3729  0.3851 -0.4244
13308TIP3    H161415   4.196   5.098  12.507  0.1257  0.4980 -1.7697
13308TIP3    H261416   4.266   5.208  12.430 -1.0459  1.8166 -0.9792
13309TIP3   OH261417   1.866   2.390   0.075 -0.2237  0.2886 -0.4086
13309TIP3    H161418   1.903   2.440   0.148 -0.6680  0.6966 -0.4565
13309TIP3    H261419   1.855   2.302   0.110 -0.0334  0.3771 -0.1162
13310TIP3   OH261420   4.625   0.448  16.384 -0.2799 -0.1845  0.3256
13310TIP3    H161421   4.532   0.432  16.400 -0.0513  0.9185  2.9076
13310TIP3    H261422   4.630   0.538  16.353 -0.1279 -0.4251 -0.3570
13311TIP3   OH261423   6.637   1.143  13.665  0.1069 -0.0080 -0.0237
13311TIP3    H161424   6.686   1.071  13.627 -0.4300  0.9198 -2.6241
13311TIP3    H261425   6.698   1.217  13.665 -0.0112  0.0945  0.6047
13312TIP3   OH261426   4.055   6.648  16.080  0.9421  0.1366 -0.2590
13312TIP3    H161427   4.060   6.732  16.125 -0.8536  0.1657 -0.0961
13312TIP3    H261428   4.122   6.653  16.012  2.3798  0.8261  1.1732
13313TIP3   OH261429   1.773   2.839  12.051  0.3696 -0.1137  0.3027
13313TIP3    H161430   1.731   2.889  12.121 -1.4786  0.4904 -1.1967
13313TIP3    H261431   1.712   2.767  12.033  0.2388  0.4128 -1.4745
13314TIP3   OH261432   6.472   4.389   4.984 -0.4537 -0.0810  0.1198
13314TIP3    H161433   6.525   4.325   4.936 -2.4167 -1.3386 -0.4334
13314TIP3    H261434   6.494   4.374   5.076  2.0828  1.2133 -0.2273
13315TIP3   OH261435   2.790   0.738  11.274  0.5125 -0.2739 -0.4173
13315TIP3    H161436   2.698   0.760  11.284  0.6102 -0.6747  1.4856
13315TIP3    H261437   2.836   0.820  11.293  0.5920 -0.3537 -0.2644
13316TIP3   OH261438   2.170   0.320   0.369 -0.4991 -0.1000 -0.1753
13316TIP3    H161439   2.166   0.386   0.438 -0.7527 -2.1985  1.8951
13316TIP3    H261440   2.103   0.256   0.394  1.0460 -2.1187 -1.0567
13317TIP3   OH261441   0.675   1.436   4.456 -0.0298  0.1157 -0.5700
13317TIP3    H161442   0.713   1.427   4.543  0.9970 -0.5227 -1.0609
13317TIP3    H261443   0.580   1.430   4.470  0.1588 -0.8408  0.4069
13318TIP3   OH261444   1.744   6.152   5.674  0.3752 -0.1331 -0.0346
13318TIP3    H161445   1.820   6.187   5.722 -0.0330 -0.9741  1.2377
13318TIP3    H261446   1.782   6.087   5.615  0.4306 -2.1932  2.1999
13319TIP3   OH261447   0.961   4.748  13.939  0.4636  0.2916  0.2783
13319TIP3    H161448   0.991   4.672  13.988 -2.1977 -1.7184 -1.0762
13319TIP3    H261449   1.040   4.801  13.926  2.0290 -1.3545  2.7655
13320TIP3   OH261450   2.415   0.274  11.513 -1.1524  0.8498 -0.3124
13320TIP3    H161451   2.432   0.292  11.421 -3.2133  1.6933 -0.5632
13320TIP3    H261452   2.399   0.360  11.552 -2.9621  0.3066  0.2180
13321TIP3   OH261453   6.745   5.109   0.481  0.1763 -0.5768 -0.4564
13321TIP3    H161454   6.835   5.139   0.489  0.4055 -0.8688 -1.8953
13321TIP3    H261455   6.726   5.069   0.566  0.6369  1.5035  0.6692
13322TIP3   OH261456   4.113   6.261  14.876  0.0501  0.4228  0.4276
13322TIP3    H161457   4.147   6.183  14.832  0.7233  0.4713  0.8523
13322TIP3    H261458   4.018   6.254  14.867  0.0385 -1.0572  1.4895
13323TIP3   OH261459   1.746   1.743  13.359  0.5738 -0.3147  1.0109
13323TIP3    H161460   1.776   1.659  13.394  0.4819 -0.7957 -0.0306
13323TIP3    H261461   1.702   1.786  13.432  0.4510 -1.2670  1.4991
13324TIP3   OH261462   5.664   5.769  15.044  0.1923 -0.3413  0.3567
13324TIP3    H161463   5.637   5.858  15.023  0.1813 -0.6116 -0.7871
13324TIP3    H261464   5.757   5.767  15.021  0.0067 -0.8488 -0.3553
13325TIP3   OH261465   5.037   5.998  13.357  0.2313  0.1622  0.0446
13325TIP3    H161466   5.050   6.083  13.399  0.9389  1.6939 -3.1499
13325TIP3    H261467   4.969   6.013  13.291 -1.0190 -2.2282  0.7133
13326TIP3   OH261468   1.257   0.939   3.646  0.0341 -0.1519 -0.2253
13326TIP3    H161469   1.291   1.007   3.704  0.9911  0.1708 -1.1611
13326TIP3    H261470   1.286   0.857   3.686 -1.3309 -0.0426  1.0366
13327TIP3   OH261471   6.160   2.375  11.910  0.0214  0.0871  0.7314
13327TIP3    H161472   6.079   2.395  11.956 -0.1855 -0.0595  0.4278
13327TIP3    H261473   6.135   2.363  11.819  0.2428 -0.8323  0.7789
13328TIP3   OH261474   6.250   6.456  13.850 -0.0078 -0.2167 -0.2501
13328TIP3    H161475   6.304   6.497  13.917  0.0580 -2.1773  0.9203
13328TIP3    H261476   6.223   6.373  13.888 -3.0964  0.2965 -1.1750
13329TIP3   OH261477   5.630   1.027  15.868  0.0961  0.0649 -0.0586
13329TIP3    H161478   5.592   0.971  15.800 -0.8859  0.3669  0.2311
13329TIP3    H261479   5.568   1.100  15.877  0.3575  0.1704  0.9682
13330TIP3   OH261480   6.243   5.546   0.044 -0.5387 -0.3180 -0.0060
13330TIP3    H161481   6.164   5.537   0.097  0.2680 -1.9072  0.9660
13330TIP3    H261482   6.280   5.630   0.070 -1.4528  0.0385  0.1609
13331TIP3   OH261483   2.233   0.631   5.960 -0.2697  0.1614  0.7415
13331TIP3    H161484   2.302   0.613   6.024 -0.6803  1.1194  1.4636
13331TIP3    H261485   2.281   0.650   5.879  0.2904  0.1223  1.0563
13332TIP3   OH261486   0.822   0.974   5.071  0.6762 -0.2693  0.4360
13332TIP3    H161487   0.740   0.928   5.055  0.2859  0.7235 -0.5037
13332TIP3    H261488   0.887   0.924   5.022 -0.1331  1.4370 -2.4989
13333TIP3   OH261489   0.628   0.253   4.998 -0.3958 -0.1391  0.0525
13333TIP3    H161490   0.647   0.210   5.082 -1.1376 -0.4267  0.0794
13333TIP3    H261491   0.584   0.334   5.022 -0.2612 -0.0377 -0.0458
13334TIP3   OH261492   4.589   0.574  11.489 -0.7344  0.4953  0.2466
13334TIP3    H161493   4.640   0.640  11.536 -0.8696  0.0894  0.9614
13334TIP3    H261494   4.652   0.534  11.428 -0.6906  1.3798 -0.2958
13335TIP3   OH261495   5.675   4.993  11.797  0.3619 -0.2025 -0.1029
13335TIP3    H161496   5.599   5.010  11.852 -0.8217 -0.6194 -1.5813
13335TIP3    H261497   5.646   4.927  11.735  1.9897 -0.4982 -0.5798
13336TIP3   OH261498   0.343   5.520  15.975  0.4166  0.4452  0.3021
13336TIP3    H161499   0.392   5.440  15.988  1.5388  0.9534 -0.6667
13336TIP3    H261500   0.282   5.524  16.048  0.4123 -1.2374  0.4019
13337TIP3   OH261501   2.940   1.743   0.873  0.7626 -0.1462 -0.0113
13337TIP3    H161502   2.882   1.725   0.799 -1.6187 -0.6289  1.8838
13337TIP3    H261503   2.958   1.657   0.911  1.2069  0.1639  0.4898
13338TIP3   OH261504   5.162   1.323   4.202 -0.5447  0.2632 -0.4221
13338TIP3    H161505   5.222   1.316   4.128  2.4320  2.7241  1.6570
13338TIP3    H261506   5.130   1.413   4.199  0.0145  0.5595  1.5529
13339TIP3   OH261507   2.928   4.760   1.347  0.5154 -0.3523 -0.5761
13339TIP3    H161508   2.976   4.736   1.426  2.7035 -0.2843 -1.8416
13339TIP3    H261509   2.979   4.721   1.276 -1.3874 -0.3700 -1.9676
13340TIP3   OH261510   0.116   6.027  13.357 -0.0831  0.0869 -0.2609
13340TIP3    H161511   0.060   6.036  13.434  0.9040 -1.5345  0.6830
13340TIP3    H261512   0.205   6.022  13.392  0.4130 -0.2668 -1.5330
13341TIP3   OH261513   1.612   4.973   2.017 -0.2689 -0.1389 -0.1522
13341TIP3    H161514   1.630   5.044   2.079  1.0352 -2.1860  1.9112
13341TIP3    H261515   1.694   4.962   1.969 -0.6205  0.0592 -0.8002
13342TIP3   OH261516   5.674   5.644   0.687  0.8033 -0.0099  0.0593
13342TIP3    H161517   5.656   5.722   0.739  0.3109  0.4705 -0.8200
13342TIP3    H261518   5.626   5.657   0.605  1.0496 -1.0430 -0.2685
13343TIP3   OH261519   5.416   2.537  12.630 -0.5377  0.8097  0.5030
13343TIP3    H161520   5.424   2.601  12.701 -0.2032  1.1971  0.1131
13343TIP3    H261521   5.360   2.468  12.667  0.4049  0.5476  1.4661
13344TIP3   OH261522   4.797   0.382  17.142 -0.5342  0.5697  0.5678
13344TIP3    H161523   4.735   0.417  17.205  0.4834  0.6072  1.5749
13344TIP3    H261524   4.744   0.335  17.078 -1.7075  1.8793  0.5581
13345TIP3   OH261525   0.719   0.685  14.002 -0.0997 -0.2118  0.1208
13345TIP3    H161526   0.690   0.620  14.066  0.7339 -0.3827  0.3235
13345TIP3    H261527   0.729   0.637  13.921  3.0151 -0.8979  0.8477
13346TIP3   OH261528   1.304   3.006   4.708 -0.1055 -0.3874  0.1373
13346TIP3    H161529   1.360   2.937   4.745  1.3961 -1.1410 -3.3589
13346TIP3    H261530   1.354   3.086   4.720  0.0441 -0.5151  0.3748
13347TIP3   OH261531   6.345   5.616   1.980  0.0682  0.2993  0.1447
13347TIP3    H161532   6.389   5.534   1.957 -2.5820 -0.9903 -0.5097
13347TIP3    H261533   6.359   5.625   2.075  1.2853 -0.3291  0.0358
13348TIP3   OH261534   3.683   1.708  16.217  0.5899  0.3330  0.1460
13348TIP3    H161535   3.669   1.659  16.298  0.6780  1.4303  0.8369
13348TIP3    H261536   3.774   1.736  16.221 -0.1536  2.7312  0.9904
13349TIP3   OH261537   2.807   6.347  15.223  1.4534 -0.3793 -0.5294
13349TIP3    H161538   2.776   6.434  15.195  0.7994 -0.3319  0.3144
13349TIP3    H261539   2.802   6.293  15.144 -0.4925 -0.2813 -0.4858
13350TIP3   OH261540   3.498   3.292   2.220 -0.8821  0.1741 -0.3680
13350TIP3    H161541   3.450   3.345   2.283 -4.0324 -1.2834 -1.4485
13350TIP3    H261542   3.478   3.201   2.243 -0.2194 -0.4318 -2.0365
13351TIP3   OH261543   6.712   2.597   2.884  0.3966  0.4827  0.2029
13351TIP3    H161544   6.790   2.573   2.933  1.0536 -2.2228 -2.0451
13351TIP3    H261545   6.644   2.537   2.916 -0.3391  1.7170  0.9750
13352TIP3   OH261546   2.600   3.708   0.258  0.0261 -0.1632  0.8092
13352TIP3    H161547   2.530   3.769   0.240  0.9254  0.8847  0.8241
13352TIP3    H261548   2.626   3.674   0.172  0.8207  0.9355  0.6039
13353TIP3   OH261549   3.593   0.117   2.551  0.0964  0.1306  0.4891
13353TIP3    H161550   3.558   0.203   2.575  0.0444  0.4081 -0.5476
13353TIP3    H261551   3.515   0.062   2.541  0.0265  0.4088 -0.5285
13354TIP3   OH261552   5.909   0.010   4.525  0.1000  0.5271 -0.1648
13354TIP3    H161553   5.900  -0.085   4.518  0.2633  0.3529  1.9278
13354TIP3    H261554   5.820   0.043   4.529  0.0393  0.4934 -1.0563
13355TIP3   OH261555   0.258   3.011  15.620 -0.2149  0.4325 -0.1256
13355TIP3    H161556   0.228   2.962  15.696  0.5617  0.4916  0.2189
13355TIP3    H261557   0.220   3.099  15.632  0.2788  0.5691  0.4199
13356TIP3   OH261558   1.012   6.014   4.883 -0.0020 -0.2268 -0.4056
13356TIP3    H161559   1.059   5.979   4.959 -0.3430  0.7360  0.2578
13356TIP3    H261560   0.936   5.956   4.874  0.7336 -1.1445 -0.8337
13357TIP3   OH261561   3.758   6.490  15.903 -0.2570 -0.0143 -0.1937
13357TIP3    H161562   3.671   6.515  15.871 -0.5165  1.1560  1.4090
13357TIP3    H261563   3.794   6.570  15.940  1.0534 -0.7646  0.1696
13358TIP3   OH261564   6.198   4.505  11.676  0.0758 -0.5649  0.5351
13358TIP3    H161565   6.134   4.446  11.636  0.3177 -2.3076  2.6252
13358TIP3    H261566   6.283   4.474  11.645 -0.0480  1.9684 -2.5244
13359TIP3   OH261567   2.944   6.786  15.986 -0.4254 -0.2946 -0.7264
13359TIP3    H161568   2.913   6.705  15.947  1.2136 -0.5156 -1.6079
13359TIP3    H261569   2.884   6.803  16.058 -1.2492 -1.8592 -1.0376
13360TIP3   OH261570   4.899   6.283   0.156 -0.5445  0.4772  0.0874
13360TIP3    H161571   4.929   6.193   0.148 -0.7724  0.1441  2.5000
13360TIP3    H261572   4.977   6.333   0.181 -0.7490  0.6590  0.3755
13361TIP3   OH261573   2.299   1.266   1.767 -0.2984  0.5053 -0.5478
13361TIP3    H161574   2.301   1.292   1.859 -1.9048  1.4209 -0.7536
13361TIP3    H261575   2.291   1.171   1.770  1.0506  0.3975  0.2363
13362TIP3   OH261576   0.603   4.449  15.762 -0.3060 -0.0828 -0.3039
13362TIP3    H161577   0.644   4.402  15.690  0.5010  0.0848  0.0423
13362TIP3    H261578   0.676   4.489  15.810 -0.6436 -1.8570  1.7845
13363TIP3   OH261579   4.489   0.115   4.735  0.2249 -0.0932 -0.5657
13363TIP3    H161580   4.424   0.118   4.664  2.5105 -2.5082 -2.8929
13363TIP3    H261581   4.563   0.067   4.697  2.9886  1.7143  2.3089
13364TIP3   OH261582   2.168   2.389   1.532 -0.3914  0.0315  0.3189
13364TIP3    H161583   2.182   2.336   1.453  0.8290  1.0284 -0.1335
13364TIP3    H261584   2.095   2.446   1.509 -0.4683 -0.1341  0.1441
13365TIP3   OH261585   1.857   4.100  15.981 -0.2993 -0.4558  0.1035
13365TIP3    H161586   1.866   4.063  16.069 -1.6434  0.3917  0.5965
13365TIP3    H261587   1.938   4.074  15.936  1.8514  1.8257  2.5603
13366TIP3   OH261588   0.284   3.100   2.663 -0.9092 -0.0779 -0.0900
13366TIP3    H161589   0.243   3.038   2.603 -0.7548  1.2042 -1.5663
13366TIP3    H261590   0.267   3.186   2.624  1.0625  0.6457  0.5639
13367TIP3   OH261591   2.789   5.241   4.797 -0.5740  0.2743 -0.3225
13367TIP3    H161592   2.860   5.185   4.767  0.6143  0.1782  2.5630
13367TIP3    H261593   2.713   5.183   4.800 -0.0304 -0.4369 -0.2199
13368TIP3   OH261594   2.482   2.500  15.949  0.9264  0.0221 -0.0706
13368TIP3    H161595   2.396   2.519  15.912  1.4124 -0.4626 -1.4957
13368TIP3    H261596   2.480   2.406  15.970  1.3746 -0.1700 -0.8617
13369TIP3   OH261597   4.761   6.750   3.514  0.4856  0.2512 -0.5837
13369TIP3    H161598   4.669   6.733   3.493  0.5439 -0.4623 -0.2484
13369TIP3    H261599   4.765   6.845   3.525 -0.1841  0.3007 -0.7259
13370TIP3   OH261600   6.240   0.460  11.450 -0.0769 -0.2208  0.1864
13370TIP3    H161601   6.176   0.411  11.503  0.0467  0.8926  1.3857
13370TIP3    H261602   6.211   0.446  11.360 -0.6275 -1.6810  0.5748
13371TIP3   OH261603   0.095   1.342  15.037 -0.6600 -0.0035 -0.3279
13371TIP3    H161604   0.014   1.381  15.004 -0.6196 -2.0764 -3.0278
13371TIP3    H261605   0.065   1.262  15.082 -0.1071 -0.8659 -1.4874
13372TIP3   OH261606   6.072   3.520  12.855  0.6300  0.4959  0.1175
13372TIP3    H161607   6.061   3.426  12.868 -2.1172  0.5780 -1.3062
13372TIP3    H261608   6.037   3.559  12.935  1.2532  0.3476  0.4685
13373TIP3   OH261609   2.878   1.107  13.991  0.3981  0.2355  0.1345
13373TIP3    H161610   2.969   1.126  14.015  0.2146 -0.4299  1.3842
13373TIP3    H261611   2.844   1.191  13.960  1.1400  0.7273  0.6235
13374TIP3   OH261612   5.936   6.081  11.793  0.0542  0.4649 -0.2742
13374TIP3    H161613   6.026   6.052  11.781  0.3533  0.7388  1.3027
13374TIP3    H261614   5.883   6.011  11.755  0.7684 -1.8732  2.8762
13375TIP3   OH261615   0.249   6.567  12.112  0.4346  0.5276 -0.0897
13375TIP3    H161616   0.177   6.506  12.099  2.0098 -1.2813 -0.5752
13375TIP3    H261617   0.207   6.649  12.137 -1.9184  0.0904 -2.3440
13376TIP3   OH261618   6.643   2.662  12.670 -0.1732 -0.6367 -0.1611
13376TIP3    H161619   6.617   2.640  12.759 -1.2211  1.6236  0.1422
13376TIP3    H261620   6.572   2.628  12.615 -1.1464  0.7998  0.1805
13377TIP3   OH261621   3.786   0.078  16.813 -0.1002  0.2777  0.6539
13377TIP3    H161622   3.780  -0.016  16.827 -0.7650  0.1228 -0.5359
13377TIP3    H261623   3.760   0.117  16.897  0.7577 -0.5974  1.3264
13378TIP3   OH261624   3.316   3.953  15.866 -0.2592  0.5780  0.3797
13378TIP3    H161625   3.381   3.995  15.809  2.0272 -1.5015  1.3995
13378TIP3    H261626   3.268   3.894  15.807  1.3278 -0.7053  0.3395
13379TIP3   OH261627   3.238   2.530   2.962 -0.0734  0.3510 -0.0778
13379TIP3    H161628   3.188   2.503   3.040  0.0983  1.0031  0.2598
13379TIP3    H261629   3.236   2.626   2.964 -0.3359  0.3717 -1.0566
13380TIP3   OH261630   0.663   6.188   1.100  0.0598 -0.2064 -0.5369
13380TIP3    H161631   0.755   6.162   1.108  0.2311 -0.0933 -2.0210
13380TIP3    H261632   0.665   6.281   1.079 -0.3457 -0.4069 -1.5318
13381TIP3   OH261633   0.152   1.394  16.800 -0.5603 -0.2962  0.2549
13381TIP3    H161634   0.058   1.410  16.807 -0.6481  0.3511 -1.9492
13381TIP3    H261635   0.159   1.321  16.738  0.3303 -1.6272  1.8761
13382TIP3   OH261636   2.154   6.586   4.424 -0.6977 -0.0646  0.0801
13382TIP3    H161637   2.227   6.647   4.408 -1.0478  1.0481  2.4801
13382TIP3    H261638   2.138   6.593   4.518 -3.3010 -0.9997 -0.2616
13383TIP3   OH261639   3.338   1.684  17.122 -0.0568 -0.6959  0.4293
13383TIP3    H161640   3.306   1.603  17.163  0.3615 -0.6937  0.7623
13383TIP3    H261641   3.433   1.674  17.122 -0.0636 -0.7830 -0.7273
13384TIP3   OH261642   1.585   6.664   0.577 -0.2737  0.7521  0.9952
13384TIP3    H161643   1.501   6.626   0.552  0.5974 -0.3039 -0.3851
13384TIP3    H261644   1.622   6.603   0.641  0.3228  0.1808  0.1162
13385TIP3   OH261645   1.831   5.222   3.821  0.0493  0.0265 -0.6310
13385TIP3    H161646   1.775   5.171   3.879  1.2458 -0.1450  0.3875
13385TIP3    H261647   1.869   5.290   3.877 -0.0631  0.8822 -1.5659
13386TIP3   OH261648   2.010   4.223  15.340  0.0041  0.6852  0.3106
13386TIP3    H161649   2.021   4.245  15.433  1.6565 -0.6592  0.4586
13386TIP3    H261650   2.097   4.196  15.312 -0.9705 -1.1100 -1.0656
13387TIP3   OH261651   6.687   1.520   5.611  1.0888 -0.1975  0.1719
13387TIP3    H161652   6.618   1.455   5.624  1.6737 -0.6684  0.9286
13387TIP3    H261653   6.728   1.495   5.528  0.8679 -0.3880  0.1217
13388TIP3   OH261654   2.540   4.607  13.446  0.5019 -0.2653  0.2807
13388TIP3    H161655   2.448   4.616  13.469  1.3820  1.7687  3.3321
13388TIP3    H261656   2.553   4.513  13.434 -1.2472 -0.9486  3.2480
13389TIP3   OH261657   3.870   0.835  15.116 -0.1689  0.7455  0.1726
13389TIP3    H161658   3.939   0.808  15.056  0.4211  0.4997  0.9499
13389TIP3    H261659   3.860   0.760  15.175 -1.7393  0.4128 -0.5005
13390TIP3   OH261660   2.414   2.622   5.218  0.2252  0.4206 -0.5947
13390TIP3    H161661   2.357   2.547   5.234 -1.0000  1.8408  2.0943
13390TIP3    H261662   2.375   2.666   5.142 -3.0546  1.9706  1.8459
13391TIP3   OH261663   6.278   3.195   4.126  0.1584 -0.0088  0.2363
13391TIP3    H161664   6.362   3.182   4.084  0.2507 -0.3630  0.5250
13391TIP3    H261665   6.221   3.230   4.057 -0.0523 -1.7946 -0.5329
13392TIP3   OH261666   1.921   2.836   6.543  0.0068 -0.0081 -1.0197
13392TIP3    H161667   1.862   2.818   6.617 -0.8098 -0.2638 -1.7188
13392TIP3    H261668   2.005   2.799   6.570  0.3729  2.0162  0.7941
13393TIP3   OH261669   3.089   0.045  10.834 -0.8257  0.0140 -0.3108
13393TIP3    H161670   3.074   0.130  10.794  0.7401  0.7647  0.6750
13393TIP3    H261671   3.122  -0.010  10.762 -0.8350  0.5256 -0.7042
13394TIP3   OH261672   3.675   3.803  17.061 -0.0151 -0.1625 -0.1030
13394TIP3    H161673   3.592   3.754  17.057  1.1076 -2.2586  1.3650
13394TIP3    H261674   3.740   3.737  17.084  2.1423  1.4099 -1.5994
13395TIP3   OH261675   3.232   2.319  15.688 -0.4848  0.0247  0.3741
13395TIP3    H161676   3.251   2.252  15.622 -0.1108 -0.7301  1.2422
13395TIP3    H261677   3.275   2.398  15.655 -2.0619  0.2237 -1.3516
13396TIP3   OH261678   3.857   3.834   4.913 -0.1923  0.4792  0.3425
13396TIP3    H161679   3.891   3.912   4.869 -1.2102  0.2882 -0.8293
13396TIP3    H261680   3.778   3.811   4.863 -1.8181  0.6950  2.7328
13397TIP3   OH261681   0.708   5.200  14.269  0.2229  0.0669  0.2905
13397TIP3    H161682   0.801   5.177  14.271  0.1810 -0.0119  1.3216
13397TIP3    H261683   0.687   5.227  14.358 -1.1721 -1.5812  0.4890
13398TIP3   OH261684   5.985   6.571  16.486  0.1648 -0.3625 -0.4920
13398TIP3    H161685   6.063   6.567  16.430 -0.1426 -2.2262 -0.7984
13398TIP3    H261686   5.947   6.657  16.467  1.2306 -0.1131 -1.5789
13399TIP3   OH261687   2.024   6.616  13.493 -0.7872 -0.0981 -0.1117
13399TIP3    H161688   2.087   6.590  13.426  0.0637  1.0284  0.2173
13399TIP3    H261689   1.938   6.600  13.454 -0.2989 -0.1342 -1.1871
13400TIP3   OH261690   4.605   6.064   4.171 -0.2418  0.2944  0.0972
13400TIP3    H161691   4.623   6.016   4.090  1.6742  0.2679  0.5149
13400TIP3    H261692   4.538   6.011   4.215 -2.0245  0.8177 -1.8851
13401TIP3   OH261693   5.289   3.728   1.368  0.3225  0.0627  0.2176
13401TIP3    H161694   5.360   3.722   1.303  0.8541  0.0678  0.7921
13401TIP3    H261695   5.209   3.720   1.317  0.7267  0.5246 -0.4994
13402TIP3   OH261696   0.387   1.560   4.264 -0.0379 -0.1480 -0.1611
13402TIP3    H161697   0.312   1.504   4.287 -2.3397  2.9693  0.2723
13402TIP3    H261698   0.396   1.551   4.169 -0.4662 -1.1490 -0.1136
13403TIP3   OH261699   6.134   1.339   3.859  0.0875 -0.2239  0.0950
13403TIP3    H161700   6.074   1.285   3.912 -1.8627  0.1492 -1.6726
13403TIP3    H261701   6.199   1.371   3.922 -0.8436 -1.6452  1.8428
13404TIP3   OH261702   0.706   0.298  16.782  0.3730  0.2777 -0.2233
13404TIP3    H161703   0.742   0.264  16.863  0.2642  0.2755 -0.1758
13404TIP3    H261704   0.674   0.386  16.804  1.7438  0.8896 -0.6366
13405TIP3   OH261705   3.453   1.858   5.526  0.1284 -0.2053  0.6842
13405TIP3    H161706   3.392   1.854   5.452  0.8932  0.1307  0.0118
13405TIP3    H261707   3.537   1.829   5.488  0.4528 -0.3585  1.5101
13406TIP3   OH261708   4.356   5.657   3.449 -0.0110 -0.1452  0.4536
13406TIP3    H161709   4.356   5.731   3.510  0.2157  0.0004  0.2800
13406TIP3    H261710   4.264   5.632   3.441 -0.2921  1.2993 -0.9077
13407TIP3   OH261711   6.171   2.189   2.110  0.5267 -0.6019  0.0953
13407TIP3    H161712   6.229   2.122   2.073  1.1432 -0.9211  1.6102
13407TIP3    H261713   6.143   2.153   2.194  0.8535  1.0261  0.9295
13408TIP3   OH261714   5.221   0.251   4.113 -0.2736  0.5616 -0.5270
13408TIP3    H161715   5.230   0.196   4.035 -1.4151  0.1047 -0.3505
13408TIP3    H261716   5.163   0.201   4.171 -0.6169  1.5620  0.0060
13409TIP3   OH261717   4.772   3.311  15.253 -0.5141 -0.4004 -0.1608
13409TIP3    H161718   4.744   3.357  15.174 -1.6018 -0.7364  0.0134
13409TIP3    H261719   4.721   3.353  15.324  1.8523  1.1996  0.6375
13410TIP3   OH261720   3.057   3.019   2.933 -0.3646  0.4473  0.2720
13410TIP3    H161721   2.974   2.972   2.938  0.2288 -0.7520 -0.7273
13410TIP3    H261722   3.033   3.109   2.911 -1.2956 -0.4340 -2.5548
13411TIP3   OH261723   3.542   0.076   1.307 -0.0401  0.3025  0.3621
13411TIP3    H161724   3.499   0.012   1.363 -0.2010  1.7169  1.9091
13411TIP3    H261725   3.626   0.093   1.350  1.8032 -1.8821 -2.2265
13412TIP3   OH261726   6.535   6.286   2.405  0.2709 -0.4909 -0.0525
13412TIP3    H161727   6.564   6.214   2.349 -1.1060 -0.1171 -1.2919
13412TIP3    H261728   6.598   6.356   2.390  0.0892 -0.5036 -0.9240
13413TIP3   OH261729   1.438   5.947   5.175 -0.1289 -0.2025 -0.1430
13413TIP3    H161730   1.363   6.005   5.165  1.2090  1.9631  1.7750
13413TIP3    H261731   1.423   5.901   5.258  0.6588  0.2781  0.2764
13414TIP3   OH261732   6.526   5.046  12.739  0.1650  0.1383 -0.1225
13414TIP3    H161733   6.458   4.982  12.761  0.1553 -0.1123 -0.8692
13414TIP3    H261734   6.589   5.038  12.810 -0.5128  0.2716  0.5055
13415TIP3   OH261735   5.836   4.437  12.953 -0.0341  0.3225  0.6140
13415TIP3    H161736   5.766   4.402  12.898  1.0359  0.1955 -0.7122
13415TIP3    H261737   5.892   4.486  12.892  1.2441  0.0917  1.5770
13416TIP3   OH261738   2.315   3.944   0.742  0.3350 -0.2365  1.0099
13416TIP3    H161739   2.338   4.036   0.754 -2.7243  0.7070 -0.0597
13416TIP3    H261740   2.332   3.903   0.827  2.5934  1.0665  1.2355
13417TIP3   OH261741   0.402   0.938   0.650 -0.2532 -0.2522  0.1437
13417TIP3    H161742   0.468   0.873   0.672 -0.6480 -0.5802  0.3715
13417TIP3    H261743   0.450   1.021   0.644  0.0937 -0.4010  0.8202
13418TIP3   OH261744   0.558   1.415   5.542  0.2300 -0.6105 -0.0568
13418TIP3    H161745   0.520   1.442   5.459  0.2298 -0.7121 -0.0897
13418TIP3    H261746   0.652   1.412   5.526  0.3968  1.2593  0.4881
13419TIP3   OH261747   0.258   2.027  16.100 -0.4183  0.2809  0.2958
13419TIP3    H161748   0.258   2.002  16.192  0.4160  0.4495  0.3424
13419TIP3    H261749   0.345   2.005  16.068 -0.6495  0.3668 -0.4150
13420TIP3   OH261750   6.748   6.494  13.318 -0.1193 -0.0066  0.4753
13420TIP3    H161751   6.822   6.433  13.308  0.2304  0.0609  2.3292
13420TIP3    H261752   6.750   6.548  13.240  2.0532  0.2367  0.6725
13421TIP3   OH261753   1.033   5.227  13.263 -0.5620 -0.0625 -0.3516
13421TIP3    H161754   0.953   5.178  13.246 -0.7470  0.7748 -2.0072
13421TIP3    H261755   1.087   5.168  13.316 -1.4019 -1.4647 -1.0302
13422TIP3   OH261756   3.599   0.206   5.478 -0.0804  0.2067 -0.3059
13422TIP3    H161757   3.528   0.269   5.468 -0.3381 -0.1772 -0.8855
13422TIP3    H261758   3.677   0.261   5.489 -0.3832  0.6262 -0.2117
13423TIP3   OH261759   1.291   5.351   3.632 -0.1005  0.5358 -0.3849
13423TIP3    H161760   1.376   5.350   3.676 -0.4047  2.9243  0.3266
13423TIP3    H261761   1.230   5.381   3.698 -0.9814  1.7655 -1.7224
13424TIP3   OH261762   1.520   0.132   3.618 -0.0605  0.1356 -0.5513
13424TIP3    H161763   1.470   0.166   3.692 -0.3518  0.0270 -0.6985
13424TIP3    H261764   1.564   0.054   3.653  1.9767  1.6008  0.2777
13425TIP3   OH261765   1.061   2.970   4.927 -0.1429  0.1434 -0.0977
13425TIP3    H161766   1.009   3.033   4.876  0.7079  0.2908 -0.7899
13425TIP3    H261767   1.133   2.946   4.869  0.4640 -0.1995  0.7939
13426TIP3   OH261768   1.030   0.549   3.630  0.4042 -0.5771 -0.4241
13426TIP3    H161769   1.057   0.497   3.554  0.7469  0.4098 -0.9931
13426TIP3    H261770   0.935   0.552   3.624  0.2815 -2.2411  0.3631
13427TIP3   OH261771   5.068   0.227  14.567  0.5962  0.7305 -0.1655
13427TIP3    H161772   5.000   0.195  14.507  0.7267  1.6649 -0.8329
13427TIP3    H261773   5.069   0.322  14.552  1.1732  0.8692  0.7609
13428TIP3   OH261774   4.657   3.425  13.395 -0.1972 -0.1504  0.0783
13428TIP3    H161775   4.731   3.486  13.391  0.6042 -1.1235 -0.3561
13428TIP3    H261776   4.580   3.480  13.379  0.5183  0.7293 -0.4328
13429TIP3   OH261777   6.790   3.290   3.423  0.4060  0.6255  0.0526
13429TIP3    H161778   6.825   3.345   3.353 -0.2216  0.6154 -0.2795
13429TIP3    H261779   6.748   3.217   3.377  1.3514 -0.1993  0.4938
13430TIP3   OH261780   0.492   4.020  16.554 -0.7261 -0.4179  0.1724
13430TIP3    H161781   0.557   4.076  16.595 -0.7007  0.2430 -0.7533
13430TIP3    H261782   0.429   4.002  16.624 -0.7379  0.7768  0.4876
13431TIP3   OH261783   5.690   2.922  12.840  0.2127  0.5241  0.0306
13431TIP3    H161784   5.652   2.957  12.921  0.8480  0.1993  0.4841
13431TIP3    H261785   5.619   2.921  12.777 -0.1228  1.4215  0.3973
13432TIP3   OH261786   5.431   1.443   5.976  0.2606  0.7192 -0.0145
13432TIP3    H161787   5.433   1.487   6.061 -1.7507  0.3721  0.2247
13432TIP3    H261788   5.434   1.514   5.913 -2.1011  1.1812  0.3682
13433TIP3   OH261789   5.745   5.691   6.385 -0.8080 -0.1379  0.2365
13433TIP3    H161790   5.789   5.712   6.468 -0.0575 -2.3037  0.4286
13433TIP3    H261791   5.815   5.658   6.329 -1.2867  1.4999 -1.3642
13434TIP3   OH261792   6.277   4.836   4.740  0.0635  0.6194 -0.1329
13434TIP3    H161793   6.194   4.873   4.771  0.1620  1.4478 -0.8439
13434TIP3    H261794   6.309   4.899   4.675  0.5746 -0.3691 -0.8598
13435TIP3   OH261795   4.639   5.472  11.959 -0.5741 -0.4597  0.2247
13435TIP3    H161796   4.668   5.501  11.873  1.3481 -0.2647  0.9231
13435TIP3    H261797   4.667   5.381  11.964 -0.3457 -0.3590  0.7904
13436TIP3   OH261798   6.707   1.096  14.719 -0.3499 -0.8090 -0.3694
13436TIP3    H161799   6.762   1.025  14.684 -0.0522 -0.3910 -0.7483
13436TIP3    H261800   6.624   1.054  14.739  0.8226 -1.9573  2.3248
13437TIP3   OH261801   0.955   2.957  12.138 -0.1364  0.0405 -0.3731
13437TIP3    H161802   0.944   2.978  12.045  3.6389  2.2488 -0.4286
13437TIP3    H261803   1.046   2.930  12.145  0.4931  2.7747  3.1631
13438TIP3   OH261804   2.040   6.515   6.152 -0.3035 -0.1999 -0.1304
13438TIP3    H161805   2.128   6.486   6.176 -0.1119  0.0619 -0.5207
13438TIP3    H261806   2.041   6.610   6.167 -0.3248 -0.1034 -0.7499
13439TIP3   OH261807   3.028   6.415  14.216  0.4285  0.2335  0.3906
13439TIP3    H161808   3.086   6.360  14.270  1.0080  0.7389  0.2854
13439TIP3    H261809   3.047   6.389  14.126  1.8317  1.6948  0.2515
13440TIP3   OH261810   5.036   2.955  13.233 -0.7334  0.2248 -0.1290
13440TIP3    H161811   4.985   2.999  13.301  0.4187  0.8044  0.3676
13440TIP3    H261812   5.054   3.023  13.169 -1.9319 -0.3524 -1.0946
13441TIP3   OH261813   1.380   0.707  15.910 -0.7043 -0.0853  0.5114
13441TIP3    H161814   1.316   0.646  15.946 -0.7883 -0.1542  0.2433
13441TIP3    H261815   1.328   0.776  15.869 -0.6244  0.7470  1.7615
13442TIP3   OH261816   3.906   1.281   6.323 -0.0529 -0.0614 -0.0460
13442TIP3    H161817   3.939   1.362   6.362 -0.0081  0.5586 -1.3644
13442TIP3    H261818   3.985   1.233   6.298 -0.0977  0.9202 -2.1694
13443TIP3   OH261819   6.791   3.379   1.903 -0.4884  0.0139 -0.2793
13443TIP3    H161820   6.742   3.309   1.860 -0.0556  1.3164 -3.0262
13443TIP3    H261821   6.731   3.453   1.906  0.3823  0.7698 -1.1431
13444TIP3   OH261822   0.941   1.939  15.632 -0.0616  0.4415 -0.5420
13444TIP3    H161823   0.988   1.887  15.698 -2.3145 -1.1334 -0.1317
13444TIP3    H261824   0.963   2.029  15.654  2.0409 -0.2114  0.1849
13445TIP3   OH261825   2.481   1.197   2.606 -0.2056 -0.2084  0.0364
13445TIP3    H161826   2.472   1.104   2.585 -1.0468 -0.0726 -0.2381
13445TIP3    H261827   2.417   1.211   2.676 -1.3784  0.5511 -1.1665
13446TIP3   OH261828   1.874   1.563  12.557  0.0019 -0.0963 -0.1628
13446TIP3    H161829   1.910   1.476  12.541 -0.8278 -0.3775 -0.4862
13446TIP3    H261830   1.901   1.615  12.481  0.1781 -0.1573 -0.1434
13447TIP3   OH261831   0.418   1.701   3.022 -0.0527 -0.4905  0.0910
13447TIP3    H161832   0.356   1.666   2.958 -1.7447  0.1334  1.3496
13447TIP3    H261833   0.424   1.795   3.002  0.1687 -0.4749  0.2224
13448TIP3   OH261834   1.380   0.256   0.673  0.2831  0.0285 -0.1836
13448TIP3    H161835   1.395   0.326   0.610 -2.9586  1.3434  0.3640
13448TIP3    H261836   1.369   0.178   0.619 -0.5904  0.7938 -1.1481
13449TIP3   OH261837   5.279   0.444  16.134  0.4892  0.2706 -0.1859
13449TIP3    H161838   5.249   0.515  16.192  1.1881  1.2092 -0.9523
13449TIP3    H261839   5.372   0.462  16.121  0.4160 -0.1275 -1.3227
13450TIP3   OH261840   1.435   3.038   5.972  0.2627 -0.5288  0.3763
13450TIP3    H161841   1.494   3.060   5.900  1.1325 -0.7793  1.0152
13450TIP3    H261842   1.399   2.953   5.948  1.6059 -1.2532  0.9012
13451TIP3   OH261843   5.112   4.634  15.340 -0.5192  0.0537  0.3946
13451TIP3    H161844   5.115   4.539  15.352 -0.4648  0.1918  1.5069
13451TIP3    H261845   5.131   4.670  15.427 -0.3511  1.0839 -0.0617
13452TIP3   OH261846   6.203   0.934  13.576  0.2737 -0.0281  0.3614
13452TIP3    H161847   6.176   0.927  13.484  0.2356 -1.1229  0.4433
13452TIP3    H261848   6.297   0.916  13.574  0.8417  2.7918  0.1963
13453TIP3   OH261849   5.852   6.077   2.630 -0.0486  0.5740 -0.1782
13453TIP3    H161850   5.839   5.998   2.682 -0.5223  1.5274  1.1816
13453TIP3    H261851   5.819   6.055   2.543  0.9934 -1.1290 -0.1535
13454TIP3   OH261852   4.698   0.261  13.505  0.1222  0.5578  0.2632
13454TIP3    H161853   4.605   0.262  13.484 -0.4112  3.1064  2.4969
13454TIP3    H261854   4.740   0.312  13.435 -0.4528  1.3063  0.4621
13455TIP3   OH261855   6.649   0.869  14.180 -0.2317  0.1127 -0.1755
13455TIP3    H161856   6.692   0.924  14.114 -0.8199 -0.1574 -0.7920
13455TIP3    H261857   6.572   0.835  14.135 -1.1363  0.6619  0.9515
13456TIP3   OH261858   5.867   2.808   2.837  0.4325 -0.3522 -0.0035
13456TIP3    H161859   5.911   2.799   2.752 -1.0789  0.0083 -0.8360
13456TIP3    H261860   5.808   2.882   2.825 -0.6478 -1.0518  0.9937
13457TIP3   OH261861   6.172   3.704  10.698  0.1931 -0.2487  0.4799
13457TIP3    H161862   6.203   3.783  10.655 -0.7601 -0.5889 -0.8731
13457TIP3    H261863   6.101   3.673  10.642  0.0415 -1.6328  1.4174
13458TIP3   OH261864   2.190   6.109  14.515  0.2169 -0.1681  0.2322
13458TIP3    H161865   2.212   6.063  14.434  0.0527 -2.3418  1.3990
13458TIP3    H261866   2.273   6.114  14.563  0.3959  1.4539 -0.2024
13459TIP3   OH261867   1.211   6.140   4.282 -0.5805 -0.1022  0.2713
13459TIP3    H161868   1.302   6.140   4.311 -0.8479 -0.7697  1.1398
13459TIP3    H261869   1.209   6.077   4.209 -0.2614  0.2428 -0.0362
13460TIP3   OH261870   3.337   5.924  10.756  0.1588  0.1241  0.1273
13460TIP3    H161871   3.416   5.975  10.772 -2.1480  2.8059  3.6531
13460TIP3    H261872   3.278   5.984  10.709 -1.3990 -0.3345  1.4392
13461TIP3   OH261873   3.966   5.123   5.146 -0.3413 -0.2806 -0.4640
13461TIP3    H161874   3.890   5.089   5.193 -0.1480  0.3168  0.2823
13461TIP3    H261875   3.932   5.198   5.098 -0.5078 -0.8073 -1.1898
13462TIP3   OH261876   0.593   3.454  13.212  0.2677 -0.2418 -0.2655
13462TIP3    H161877   0.556   3.480  13.128 -1.6520 -0.4348  0.5032
13462TIP3    H261878   0.567   3.362  13.222 -0.7841  0.1959  1.2019
13463TIP3   OH261879   1.227   5.339  15.231 -0.2533  0.2482  0.2391
13463TIP3    H161880   1.180   5.268  15.274  1.3958 -0.6661  0.6048
13463TIP3    H261881   1.180   5.354  15.149  0.0279 -2.0640 -0.3711
13464TIP3   OH261882   1.928   4.904  14.316 -0.5941  0.1154 -0.6124
13464TIP3    H161883   1.987   4.880  14.244 -1.3500 -1.2857 -0.7891
13464TIP3    H261884   1.955   4.992  14.341  2.0651 -0.7656 -0.2045
13465TIP3   OH261885   6.377   4.310  10.665 -0.0721  0.0373 -0.5551
13465TIP3    H161886   6.430   4.297  10.586  0.0876 -0.9690 -0.2783
13465TIP3    H261887   6.406   4.395  10.699  0.8952 -0.1988 -0.7706
13466TIP3   OH261888   3.045   5.971   4.378 -0.0062  0.8311  0.1804
13466TIP3    H161889   2.962   6.016   4.395 -0.9791 -0.7993 -0.0986
13466TIP3    H261890   3.019   5.890   4.335  1.8596  1.0618 -1.4449
13467TIP3   OH261891   2.431   6.263  11.545  0.0853  0.0935  0.7547
13467TIP3    H161892   2.483   6.195  11.503  0.4475  0.9824 -0.2736
13467TIP3    H261893   2.393   6.221  11.622 -0.5428 -1.5511 -0.4375
13468TIP3   OH261894   3.628   2.516  15.177  0.1530 -0.3251 -0.2008
13468TIP3    H161895   3.604   2.532  15.268 -0.2006 -1.1344 -0.1460
13468TIP3    H261896   3.564   2.566  15.126 -1.2267 -1.8756 -0.0376
13469TIP3   OH261897   0.382   0.092   4.265 -0.1547  0.2273  0.0941
13469TIP3    H161898   0.329   0.084   4.344  0.3872 -0.5717  0.3846
13469TIP3    H261899   0.372   0.007   4.221 -1.4594  1.0981 -1.3473
13470TIP3   OH261900   0.858   1.596  12.907 -0.8413  0.1416  0.0238
13470TIP3    H161901   0.949   1.590  12.933 -0.3000  0.4150 -1.7317
13470TIP3    H261902   0.837   1.690  12.912 -0.9289  0.1157  0.1395
13471TIP3   OH261903   0.543   1.425   0.102 -0.1419 -0.5235  0.6159
13471TIP3    H161904   0.598   1.437   0.179 -0.2210  3.0863  0.1768
13471TIP3    H261905   0.467   1.480   0.117 -0.8514 -0.8962 -1.4121
13472TIP3   OH261906   0.870   2.564  16.865  0.2865 -0.1787 -0.5142
13472TIP3    H161907   0.841   2.578  16.775  0.0435  0.5547 -0.3244
13472TIP3    H261908   0.790   2.560  16.917  0.3991 -1.1957 -0.4073
13473TIP3   OH261909   2.150   1.935  10.738  0.0040 -0.4379 -0.1127
13473TIP3    H161910   2.166   1.841  10.738 -2.8791 -0.9900  1.4031
13473TIP3    H261911   2.185   1.966  10.655  3.6783 -2.3393  0.6349
13474TIP3   OH261912   3.766   5.622  13.765  0.0824  0.2652 -0.8986
13474TIP3    H161913   3.761   5.716  13.784  0.3136  0.3145 -1.0779
13474TIP3    H261914   3.805   5.584  13.843  0.5221  0.3933 -1.0562
13475TIP3   OH261915   6.405   4.429  14.474 -0.6494  0.1352  0.0387
13475TIP3    H161916   6.468   4.497  14.451 -1.1431  0.9979  1.1239
13475TIP3    H261917   6.379   4.390  14.391  1.5712 -0.4933 -0.3866
13476TIP3   OH261918   5.004   2.395   2.047  0.5637  0.1514  0.1817
13476TIP3    H161919   5.022   2.420   1.957 -0.2690 -1.1565 -0.3706
13476TIP3    H261920   5.085   2.352   2.077  0.6694  0.1514 -0.1052
13477TIP3   OH261921   1.541   4.177   5.254 -0.0167  0.9121  0.4091
13477TIP3    H161922   1.495   4.210   5.331  0.6393  0.1780  1.1340
13477TIP3    H261923   1.564   4.255   5.204 -0.4200  1.3949  0.9729
13478TIP3   OH261924   4.876   1.685   1.430 -0.3705  0.1824 -0.0388
13478TIP3    H161925   4.853   1.592   1.425  1.7103 -0.2649 -2.7011
13478TIP3    H261926   4.958   1.687   1.479 -0.0972  0.5488 -0.5048
13479TIP3   OH261927   6.549   6.696   0.717  0.1584  0.0178 -0.1041
13479TIP3    H161928   6.518   6.646   0.641 -0.9127  0.3733  0.0874
13479TIP3    H261929   6.605   6.635   0.765  0.3099 -0.4201 -0.8331
13480TIP3   OH261930   0.290   5.419   5.361  0.5462 -0.1836  0.0161
13480TIP3    H161931   0.271   5.334   5.400 -0.2413  0.2645  0.6068
13480TIP3    H261932   0.281   5.482   5.433 -0.0580  0.5466 -0.6801
13481TIP3   OH261933   5.476   5.718  12.716 -0.0803 -0.8882  0.1743
13481TIP3    H161934   5.463   5.717  12.811 -0.8091  1.9274  0.1311
13481TIP3    H261935   5.569   5.698  12.705  0.9228  2.5890  1.7157
13482TIP3   OH261936   5.942   4.460   0.612  0.5224 -0.2945  0.7456
13482TIP3    H161937   6.015   4.442   0.553  0.1821  0.9034 -0.0574
13482TIP3    H261938   5.867   4.419   0.570  0.2338  0.7628  0.1960
13483TIP3   OH261939   0.521   1.804  15.436 -0.7671 -0.5322 -0.3080
13483TIP3    H161940   0.558   1.851  15.362 -0.1387 -0.5848 -0.0336
13483TIP3    H261941   0.524   1.867  15.508  1.2868 -1.3818  0.3920
13484TIP3   OH261942   2.182   4.186  14.060  0.5882  0.3230  0.2857
13484TIP3    H161943   2.174   4.094  14.035  1.9731  0.0700  0.7080
13484TIP3    H261944   2.145   4.234  13.986 -0.6801 -0.5769  0.3094
13485TIP3   OH261945   1.377   5.807  13.272 -0.4081  0.8387 -0.0120
13485TIP3    H161946   1.350   5.889  13.230 -0.4145  1.3146  0.9011
13485TIP3    H261947   1.296   5.771  13.309 -0.6593 -0.3015 -1.5956
13486TIP3   OH261948   1.198   5.128   3.498 -0.3265 -0.0396  0.2513
13486TIP3    H161949   1.119   5.170   3.464 -0.6512 -0.4947  0.4293
13486TIP3    H261950   1.243   5.196   3.547 -1.7567 -0.3722  2.0742
13487TIP3   OH261951   2.861   6.512  11.973 -0.5560  0.3693  0.1861
13487TIP3    H161952   2.899   6.464  11.900 -1.1301 -0.8177  0.6573
13487TIP3    H261953   2.899   6.472  12.051 -0.8080  0.8770  0.5743
13488TIP3   OH261954   0.633   3.235  17.254  0.2351  0.4125 -0.3979
13488TIP3    H161955   0.540   3.223  17.236  0.5158 -1.6855 -0.5248
13488TIP3    H261956   0.678   3.190  17.183  1.3479  0.7802  0.0592
13489TIP3   OH261957   2.240   3.319   0.907 -0.4846 -0.0963 -0.2996
13489TIP3    H161958   2.264   3.263   0.833 -0.6544 -1.0597  0.3678
13489TIP3    H261959   2.149   3.342   0.891 -0.3388  0.2021 -0.7094
13490TIP3   OH261960   4.197   3.683   2.067 -0.0871  0.1364 -0.1707
13490TIP3    H161961   4.107   3.715   2.061  0.3457  1.6929  1.2110
13490TIP3    H261962   4.210   3.633   1.987 -1.6563  1.2537 -1.1538
13491TIP3   OH261963   1.528   5.186   5.602  0.0830 -0.9057  0.3204
13491TIP3    H161964   1.446   5.191   5.554 -0.0284  0.2969  0.6231
13491TIP3    H261965   1.558   5.277   5.608  2.0837 -1.4329 -0.9027
13492TIP3   OH261966   5.662   4.364  12.546  0.2908 -0.2369 -0.7630
13492TIP3    H161967   5.688   4.332  12.632  1.1950 -1.0317 -1.3279
13492TIP3    H261968   5.739   4.352  12.491 -0.8065 -1.3785 -2.1089
13493TIP3   OH261969   3.164   0.595   6.059  0.4790  0.5983  0.3337
13493TIP3    H161970   3.146   0.501   6.052 -0.1498  0.7483 -0.1979
13493TIP3    H261971   3.253   0.601   6.091  1.1073 -0.2002 -1.2123
13494TIP3   OH261972   4.553   4.619  12.128 -0.7703  0.1221  0.2946
13494TIP3    H161973   4.646   4.609  12.145 -0.6485  1.2547  0.3298
13494TIP3    H261974   4.522   4.529  12.112 -0.1064 -0.5061  2.4018
13495TIP3   OH261975   1.795   0.736   2.477 -0.2720  0.5648  0.0676
13495TIP3    H161976   1.713   0.759   2.520 -0.9237 -0.3109 -0.6889
13495TIP3    H261977   1.859   0.797   2.512 -0.9420  0.3000  1.7608
13496TIP3   OH261978   6.227   6.093   1.278 -0.5381 -0.0375 -0.4602
13496TIP3    H161979   6.263   6.021   1.331  0.3428  0.7165 -0.0262
13496TIP3    H261980   6.272   6.084   1.193  1.4088  1.4438  0.3632
13497TIP3   OH261981   0.399   2.427   0.922 -0.1816 -0.1227 -0.2903
13497TIP3    H161982   0.452   2.456   0.848  0.5925  2.9675  1.3944
13497TIP3    H261983   0.463   2.390   0.984 -0.5914 -0.9220 -0.3396
13498TIP3   OH261984   5.595   5.829  14.293 -0.0053  0.5861  0.4874
13498TIP3    H161985   5.566   5.826  14.202 -0.7197 -0.7510  0.7519
13498TIP3    H261986   5.515   5.831  14.344  0.2862 -2.1913  1.1836
13499TIP3   OH261987   5.127   4.768  14.792  0.0221 -0.2533 -0.3371
13499TIP3    H161988   5.060   4.803  14.850 -0.6265 -1.7375 -0.1728
13499TIP3    H261989   5.179   4.710  14.847  1.5968  1.0534 -0.4094
13500TIP3   OH261990   2.401   1.425   1.567 -0.5614 -0.0342 -0.3839
13500TIP3    H161991   2.366   1.357   1.625  1.5320 -0.7887  0.0590
13500TIP3    H261992   2.388   1.507   1.616  2.3981 -0.7952  1.8497
13501TIP3   OH261993   6.441   4.383  13.575 -0.4562 -0.0908  0.3152
13501TIP3    H161994   6.470   4.447  13.510  0.2687 -1.6694 -0.9394
13501TIP3    H261995   6.370   4.428  13.622 -1.0616  1.0417 -1.6130
13502TIP3   OH261996   4.002   6.574  17.033 -0.4366  0.3304  0.4341
13502TIP3    H161997   4.067   6.525  16.982  2.7372  2.7544  2.0052
13502TIP3    H261998   3.998   6.527  17.117 -4.5352 -2.7620 -1.3523
13503TIP3   OH261999   3.671   5.355  11.772  0.4879  0.4225  0.4574
13503TIP3    H162000   3.600   5.299  11.738  1.0603  0.8108 -1.4141
13503TIP3    H262001   3.627   5.415  11.832 -0.7859  0.6088 -0.6307
13504TIP3   OH262002   4.433   5.583   4.873 -0.7958  0.2373 -0.4575
13504TIP3    H162003   4.359   5.524   4.866 -0.9417  0.3123  0.4512
13504TIP3    H262004   4.416   5.635   4.952  0.9118 -0.7230  0.5654
13505TIP3   OH262005   1.378   1.337  15.593 -0.6564 -0.2293  0.4896
13505TIP3    H162006   1.434   1.261  15.578 -1.5855 -0.7952 -0.1672
13505TIP3    H262007   1.289   1.301  15.592 -1.2315  1.1644 -1.7495
13506TIP3   OH262008   1.586   5.129  14.489  0.0944  0.0398  0.0197
13506TIP3    H162009   1.541   5.085  14.417 -1.8966  1.2760  0.4971
13506TIP3    H262010   1.600   5.060  14.554  0.7029 -0.7766 -0.9443
13507TIP3   OH262011   6.316   2.770  14.766 -0.2323  0.4744 -0.6751
13507TIP3    H162012   6.336   2.831  14.695 -0.4638 -0.0021 -1.1529
13507TIP3    H262013   6.266   2.700  14.724 -5.3469  2.9518  0.9384
13508TIP3   OH262014   6.195   0.873   5.216  0.2594 -0.0551 -0.0764
13508TIP3    H162015   6.203   0.819   5.138 -1.3201 -0.4298  0.0004
13508TIP3    H262016   6.164   0.958   5.184 -0.1497 -0.1333  0.0996
13509TIP3   OH262017   2.690   2.922  13.614  0.3311  0.0464 -0.1458
13509TIP3    H162018   2.783   2.903  13.626  0.4306  0.7062  0.1569
13509TIP3    H262019   2.671   2.894  13.525  0.8798  0.1574 -0.3014
13510TIP3   OH262020   1.896   4.015  12.898  0.3287  0.0105  0.9090
13510TIP3    H162021   1.955   4.000  12.824 -0.3297 -0.9737  0.5687
13510TIP3    H262022   1.861   3.928  12.919 -3.5272  0.9616 -1.0085
13511TIP3   OH262023   5.971   3.371  15.707 -0.1023  0.2236  0.5517
13511TIP3    H162024   5.980   3.349  15.800 -0.0334  0.0349  0.5001
13511TIP3    H262025   5.886   3.337  15.682 -0.9056  1.8522  0.9957
13512TIP3   OH262026   0.235   5.898  16.528  0.3390 -0.1213  0.7139
13512TIP3    H162027   0.176   5.822  16.528 -0.1272  0.2392  0.2951
13512TIP3    H262028   0.304   5.875  16.466 -1.7259  1.2699 -2.1604
13513TIP3   OH262029   4.326   2.796  15.103 -0.1977  0.7947  0.4638
13513TIP3    H162030   4.411   2.799  15.147 -1.2642  1.9497  2.5558
13513TIP3    H262031   4.265   2.768  15.171 -1.4692 -0.2409 -1.0668
13514TIP3   OH262032   2.870   6.450  16.366 -0.2978 -0.3418 -0.1999
13514TIP3    H162033   2.837   6.511  16.300  2.4540  1.5053  0.0571
13514TIP3    H262034   2.794   6.398  16.390 -1.8405  0.3533 -3.2873
13515TIP3   OH262035   1.307   2.738  16.397 -0.1616 -0.1357 -0.3871
13515TIP3    H162036   1.302   2.669  16.332 -0.2311  0.1278 -0.6638
13515TIP3    H262037   1.383   2.790  16.372  0.0775 -0.2977  0.0021
13516TIP3   OH262038   1.149   0.852  13.877  0.7053 -0.5624  0.2752
13516TIP3    H162039   1.188   0.937  13.855  0.7386 -0.8868 -0.9855
13516TIP3    H262040   1.059   0.858  13.844  0.4860 -0.7598  0.8323
13517TIP3   OH262041   0.145   4.752  11.900 -0.2683 -0.8424  0.0830
13517TIP3    H162042   0.159   4.809  11.975 -1.0452 -0.7774  0.1750
13517TIP3    H262043   0.202   4.789  11.832  0.8387 -1.2205  0.7914
13518TIP3   OH262044   3.215   1.143  16.781  0.0642 -0.6218  0.1570
13518TIP3    H162045   3.173   1.123  16.697  1.2879  0.1096 -0.6545
13518TIP3    H262046   3.192   1.234  16.799  2.5423  0.2937 -1.0882
13519TIP3   OH262047   0.062   1.606  15.320  0.0099 -0.1520 -0.1948
13519TIP3    H162048   0.119   1.674  15.356 -0.7103 -0.2213  1.1242
13519TIP3    H262049   0.108   1.524  15.336  1.1360  0.0290 -2.2787
13520TIP3   OH262050   4.981   0.455  13.489 -0.1766 -0.5420 -0.7615
13520TIP3    H162051   4.892   0.424  13.504 -0.7246  0.8302 -1.0886
13520TIP3    H262052   4.970   0.544  13.454  1.3844  0.4571  1.2035
13521TIP3   OH262053   4.461   2.616   4.857  0.3464 -0.9625 -0.4501
13521TIP3    H162054   4.376   2.620   4.814  0.1051 -0.4444  0.0778
13521TIP3    H262055   4.484   2.708   4.874  0.1341 -1.1964  1.1399
13522TIP3   OH262056   5.672   0.642   5.722  1.2803  0.5807  0.1825
13522TIP3    H162057   5.670   0.709   5.790 -1.7969  0.9425 -0.1864
13522TIP3    H262058   5.661   0.690   5.640 -1.2973 -0.3212 -0.0657
13523TIP3   OH262059   4.505   4.340   6.182 -0.0519  0.1877 -0.1153
13523TIP3    H162060   4.502   4.429   6.145 -1.0050 -0.3962 -1.4844
13523TIP3    H262061   4.425   4.334   6.235  0.7869  0.6580  1.2475
13524TIP3   OH262062   5.308   2.333   3.312 -0.7407  0.3064 -0.4159
13524TIP3    H162063   5.320   2.360   3.403 -0.4733 -1.4482  0.0848
13524TIP3    H262064   5.217   2.306   3.307 -0.9173  0.9603 -0.8353
13525TIP3   OH262065   4.077   5.506  12.898 -0.0105  0.3611 -0.1138
13525TIP3    H162066   4.041   5.539  12.980  0.0489 -2.1417  0.9561
13525TIP3    H262067   4.164   5.473  12.921  0.6813  1.1631 -1.5219
13526TIP3   OH262068   2.198   3.743   4.943  0.5539  0.0073 -0.0503
13526TIP3    H162069   2.291   3.723   4.935  1.2696  3.3392 -0.5606
13526TIP3    H262070   2.166   3.743   4.852  0.3010 -0.0500  0.0392
13527TIP3   OH262071   3.756   2.143  16.976  0.1909  0.0340 -0.5890
13527TIP3    H162072   3.809   2.160  16.898  0.6481  0.5035 -0.1822
13527TIP3    H262073   3.699   2.070  16.951  0.9607 -0.4182 -1.0679
13528TIP3   OH262074   5.754   0.575   1.546  0.4895 -0.0248  0.0726
13528TIP3    H162075   5.663   0.574   1.520  0.4494  0.7803  0.1784
13528TIP3    H262076   5.781   0.483   1.542 -0.5037 -0.3510  0.6867
13529TIP3   OH262077   3.866   5.073  12.520  0.3503 -0.1972  0.1071
13529TIP3    H162078   3.835   5.100  12.434  2.3442 -0.0920 -0.6131
13529TIP3    H262079   3.886   4.980  12.511  0.3441 -0.2436  0.5303
13530TIP3   OH262080   3.997   6.140  17.048 -0.1829  0.6063  0.2327
13530TIP3    H162081   4.003   6.054  17.090  0.5021 -0.4991 -2.0138
13530TIP3    H262082   3.903   6.155  17.039 -0.3135  0.3550  1.2002
13531TIP3   OH262083   2.932   6.282   5.115  0.4503  0.0251  0.1158
13531TIP3    H162084   3.020   6.306   5.085  0.2923 -1.0128 -1.2076
13531TIP3    H262085   2.888   6.366   5.130  1.1224  0.5499 -0.8017
13532TIP3   OH262086   5.859   5.246   5.284 -0.2018  0.0839  0.4449
13532TIP3    H162087   5.891   5.250   5.374 -0.7520  1.0409  0.6056
13532TIP3    H262088   5.771   5.209   5.292  0.2595 -1.1005  0.1573
13533TIP3   OH262089   2.922   1.001  11.620 -0.0380  0.3673  0.1402
13533TIP3    H162090   2.883   1.044  11.545  1.1823 -0.7687 -1.1734
13533TIP3    H262091   2.969   0.926  11.584  0.6705 -0.1363  2.0109
13534TIP3   OH262092   0.858   4.902  16.530  1.0576 -0.1319  0.2297
13534TIP3    H162093   0.786   4.960  16.503 -1.2369 -1.9115  2.2955
13534TIP3    H262094   0.845   4.823  16.478  0.6391 -1.0073  1.6508
13535TIP3   OH262095   0.267   0.925   1.479  0.4273 -0.5005 -0.1442
13535TIP3    H162096   0.220   0.924   1.562  0.2064  0.6227 -0.2526
13535TIP3    H262097   0.346   0.975   1.497 -0.3411  1.0382 -0.9996
13536TIP3   OH262098   0.882   5.772   6.608 -0.4355 -0.4930  0.4475
13536TIP3    H162099   0.798   5.738   6.639 -0.0372 -1.5966  0.3390
13536TIP3    H262100   0.875   5.867   6.620 -1.6677 -0.5793  0.5050
13537TIP3   OH262101   5.907   4.749  15.966 -0.5469 -0.3683 -0.2202
13537TIP3    H162102   5.983   4.697  15.993 -1.4255 -1.3806  0.3686
13537TIP3    H262103   5.834   4.711  16.016 -1.2144  1.3988  0.1588
13538TIP3   OH262104   4.976   1.633  13.298 -0.2992 -0.2163 -0.1071
13538TIP3    H162105   5.042   1.680  13.247 -0.9118 -1.0320 -1.6851
13538TIP3    H262106   5.018   1.550  13.320 -0.4063 -0.2838 -0.1592
13539TIP3   OH262107   3.292   0.369  15.083 -0.3951 -0.3523  0.0618
13539TIP3    H162108   3.327   0.424  15.013  0.9975  0.1958  1.1535
13539TIP3    H262109   3.211   0.412  15.109 -0.9513 -0.5962 -1.2497
13540TIP3   OH262110   4.061   2.315   5.179 -0.3722  0.1809  0.4383
13540TIP3    H162111   3.984   2.361   5.145 -1.6144 -1.4185  1.0109
13540TIP3    H262112   4.035   2.287   5.267 -0.0176 -2.4256 -0.2431
13541TIP3   OH262113   5.051   2.546   4.214  0.5653 -0.1753 -0.2783
13541TIP3    H162114   4.978   2.500   4.173 -0.1991  1.4123 -0.7340
13541TIP3    H262115   5.054   2.632   4.171  2.5905 -0.1387 -0.1543
13542TIP3   OH262116   3.418   1.591  14.670 -0.4087  0.4661 -0.6059
13542TIP3    H162117   3.385   1.632  14.590 -0.5827 -1.3285 -1.4700
13542TIP3    H262118   3.407   1.659  14.737  0.9751  2.4693 -2.3302
13543TIP3   OH262119   0.349   5.605   2.583 -0.7638 -0.0324  0.3851
13543TIP3    H162120   0.284   5.652   2.635  0.0476  1.7464 -0.1516
13543TIP3    H262121   0.303   5.578   2.504 -1.2088 -0.0466  0.6508
13544TIP3   OH262122   1.762   2.372  12.507 -0.1671  0.3876  0.5294
13544TIP3    H162123   1.802   2.290  12.535  1.4920  1.1445  0.4395
13544TIP3    H262124   1.718   2.405  12.585 -1.7124 -1.0807  0.2958
13545TIP3   OH262125   4.369   0.417  15.823  0.1390 -0.1156  0.2437
13545TIP3    H162126   4.364   0.409  15.919  0.1771 -1.5920  0.1349
13545TIP3    H262127   4.462   0.404  15.803 -0.0936 -1.3295 -0.1072
13546TIP3   OH262128   6.793   5.816  15.640  0.9307 -0.7525  0.0727
13546TIP3    H162129   6.757   5.792  15.725  2.4840  0.8386  1.2119
13546TIP3    H262130   6.865   5.755  15.626  0.7356 -0.9530 -0.0640
13547TIP3   OH262131   2.213   4.355   0.064 -0.1159  0.2892  0.1775
13547TIP3    H162132   2.134   4.410   0.070  0.8675  1.5128  2.1951
13547TIP3    H262133   2.271   4.403   0.005 -1.5937 -1.5804 -2.9401
13548TIP3   OH262134   1.456   0.570   5.359 -0.7535  0.0594  0.0827
13548TIP3    H162135   1.545   0.595   5.384  0.6578 -0.9586 -3.6940
13548TIP3    H262136   1.410   0.653   5.347 -0.8084  0.5904  3.4408
13549TIP3   OH262137   0.297   5.381  14.097  0.0591  0.2736  0.2022
13549TIP3    H162138   0.227   5.401  14.034  0.1356  1.0847  0.3628
13549TIP3    H262139   0.333   5.467  14.120  0.2719 -0.0467  1.0779
13550TIP3   OH262140   4.929   1.978   3.593 -0.5355 -0.2785 -0.1199
13550TIP3    H162141   5.005   2.002   3.645  0.9251 -2.6635 -1.0466
13550TIP3    H262142   4.864   1.949   3.657  0.0179  0.0283  0.5880
13551TIP3   OH262143   6.671   6.805  16.205  0.4575  0.4080  0.9856
13551TIP3    H162144   6.749   6.771  16.247  0.5020 -2.3311 -1.1554
13551TIP3    H262145   6.683   6.786  16.112 -2.8959 -0.4532  0.6405
13552TIP3   OH262146   0.618   2.573   6.319  0.4042  0.1041 -0.2613
13552TIP3    H162147   0.542   2.541   6.270  0.9642 -2.6002  0.5433
13552TIP3    H262148   0.584   2.590   6.407  0.3551  0.6614 -0.3844
13553TIP3   OH262149   0.130   6.177  16.074 -0.2155  0.2552 -1.0502
13553TIP3    H162150   0.070   6.117  16.030 -1.5617  0.8787 -0.1196
13553TIP3    H262151   0.203   6.187  16.014 -1.2402 -0.1921 -2.3949
13554TIP3   OH262152   3.815   6.179   4.985 -0.6681  0.4149 -0.3993
13554TIP3    H162153   3.845   6.270   4.976 -1.8301  0.5627 -3.5344
13554TIP3    H262154   3.884   6.127   4.943 -0.6114 -0.0461  0.2656
13555TIP3   OH262155   4.019   4.200   3.415  0.4681 -0.0587 -0.0340
13555TIP3    H162156   4.009   4.131   3.350  0.6148  0.0661 -0.1881
13555TIP3    H262157   4.070   4.159   3.485  0.7555 -0.0361 -0.2299
13556TIP3   OH262158   4.745   3.860   3.585 -0.3294  0.4051  0.0432
13556TIP3    H162159   4.711   3.831   3.670 -2.1125  1.7906 -0.1638
13556TIP3    H262160   4.676   3.838   3.523  0.2570  0.9172 -0.7983
13557TIP3   OH262161   6.571   3.657  14.008  0.7359  0.2696 -0.0957
13557TIP3    H162162   6.557   3.697  13.922  0.5712  0.7043  0.1289
13557TIP3    H262163   6.485   3.625  14.034  0.3039  2.1445  0.8941
13558TIP3   OH262164   2.563   0.793  11.409  0.2343 -0.1053 -0.2908
13558TIP3    H162165   2.486   0.849  11.409  1.2219  1.2639  0.0368
13558TIP3    H262166   2.592   0.791  11.500 -0.4119 -2.0380 -0.0943
13559TIP3   OH262167   6.112   6.533  17.242  0.0533 -0.3940 -0.1317
13559TIP3    H162168   6.098   6.501  17.331 -0.1406 -1.9841 -0.7168
13559TIP3    H262169   6.113   6.454  17.188  1.6974  0.4330 -1.3496
13560TIP3   OH262170   0.164   1.884  15.195  0.3292 -0.2869  0.3045
13560TIP3    H162171   0.077   1.847  15.184 -0.7182  1.9981  0.6598
13560TIP3    H262172   0.209   1.823  15.254 -0.7795 -1.8396 -0.4202
13561TIP3   OH262173   5.653   0.879   3.713 -0.5168 -0.0062  0.1067
13561TIP3    H162174   5.736   0.833   3.719 -1.4385 -1.9079 -1.0610
13561TIP3    H262175   5.640   0.892   3.619 -1.1055  1.0782  0.3334
13562TIP3   OH262176   5.932   3.109   4.110 -0.5529 -0.5802  0.1608
13562TIP3    H162177   5.921   3.027   4.158 -1.5643 -0.2472  0.5041
13562TIP3    H262178   5.871   3.169   4.151 -1.8095 -0.4202 -1.8587
13563TIP3   OH262179   4.639   5.310  15.086 -0.0286 -0.5374 -0.1794
13563TIP3    H162180   4.687   5.387  15.118 -0.5248 -0.0538 -0.5941
13563TIP3    H262181   4.664   5.240  15.146 -0.6856  0.2845  1.0888
13564TIP3   OH262182   5.502   3.171  15.238 -0.2571 -0.6496  0.0334
13564TIP3    H162183   5.463   3.188  15.152  0.1418 -2.0019 -0.4367
13564TIP3    H262184   5.568   3.103  15.221  0.6921 -0.0486  1.1980
13565TIP3   OH262185   6.407   1.101   1.390 -0.8870 -0.7771  0.1483
13565TIP3    H162186   6.372   1.076   1.475 -2.1875  1.9350  0.4871
13565TIP3    H262187   6.332   1.092   1.330 -0.9464  0.5640 -0.0142
13566TIP3   OH262188   2.122   2.611  16.497  0.3674 -0.1653 -0.5080
13566TIP3    H162189   2.197   2.589  16.553 -1.3565 -0.1098  1.8782
13566TIP3    H262190   2.149   2.691  16.451  0.6853  1.5091  2.4963
13567TIP3   OH262191   4.293   2.351  11.824 -0.1158 -0.4271  0.3941
13567TIP3    H162192   4.338   2.272  11.853 -2.3695 -1.8278  0.1968
13567TIP3    H262193   4.293   2.409  11.900 -0.4378 -1.5371  1.2479
13568TIP3   OH262194   3.807   3.370  14.997 -0.1284 -0.3780  0.0592
13568TIP3    H162195   3.863   3.395  15.070  0.3806  0.1496 -0.5038
13568TIP3    H262196   3.740   3.439  14.993  1.0145  0.7057 -1.2120
13569TIP3   OH262197   6.420   6.819  15.532 -0.0986  0.2494  0.1558
13569TIP3    H162198   6.479   6.763  15.581  0.5505  2.4849  2.0219
13569TIP3    H262199   6.373   6.759  15.474  1.8932 -1.9483  0.7032
13570TIP3   OH262200   5.769   6.581   0.629 -0.0612 -0.3639  0.5515
13570TIP3    H162201   5.739   6.584   0.538 -0.4574  0.0795  0.6971
13570TIP3    H262202   5.696   6.541   0.677 -0.8203  1.5602  1.0572
13571TIP3   OH262203   2.159   4.754  16.208  0.3768  0.6206  0.0100
13571TIP3    H162204   2.127   4.752  16.118 -1.3396  0.3344  0.5941
13571TIP3    H262205   2.080   4.770  16.260  1.0045 -1.3004  1.6015
13572TIP3   OH262206   6.328   0.438   2.037 -0.1651  0.3932  0.2795
13572TIP3    H162207   6.259   0.491   2.077 -1.0200  0.8613 -1.7911
13572TIP3    H262208   6.289   0.350   2.032 -0.2110  0.4259  0.0803
13573TIP3   OH262209   3.827   4.184  16.318  0.5048  0.1524  0.2587
13573TIP3    H162210   3.920   4.206  16.318  0.4736  0.2854 -0.7629
13573TIP3    H262211   3.822   4.099  16.362  1.2046 -0.2769 -0.4878
13574TIP3   OH262212   5.646   5.040  13.932 -0.0784  0.1710 -0.2797
13574TIP3    H162213   5.594   5.002  13.860  1.2169  0.1309 -1.2104
13574TIP3    H262214   5.676   5.125  13.897 -2.0602  1.6122  1.3876
13575TIP3   OH262215   1.063   1.699  14.610  0.1497  0.4484  0.2331
13575TIP3    H162216   1.077   1.644  14.687  0.1177  0.8454  0.5218
13575TIP3    H262217   1.117   1.777  14.626 -1.2653  1.3531  0.6896
13576TIP3   OH262218   4.499   4.690   5.074  0.0066  0.2365  0.4594
13576TIP3    H162219   4.404   4.689   5.068  0.0302  0.0884  0.0733
13576TIP3    H262220   4.523   4.782   5.070 -0.0696  0.2255 -0.3780
13577TIP3   OH262221   0.032   4.439  15.087 -0.4882  0.1375  0.0244
13577TIP3    H162222   0.079   4.368  15.044 -0.1172  0.8449 -0.7536
13577TIP3    H262223   0.080   4.453  15.169 -1.2751 -1.2925  0.7483
13578TIP3   OH262224   3.750   0.428  16.186 -0.6199  0.2062 -0.0701
13578TIP3    H162225   3.699   0.494  16.232  0.5584 -0.5669  2.3873
13578TIP3    H262226   3.702   0.346  16.200  0.6905 -0.3304  1.2997
13579TIP3   OH262227   3.215   3.454   1.430 -0.1650 -0.3712  0.7544
13579TIP3    H162228   3.185   3.370   1.395 -0.0318 -0.0063 -0.2399
13579TIP3    H262229   3.149   3.477   1.496  0.6792 -2.0504  2.2404
13580TIP3   OH262230   4.799   0.370  16.028  0.4556  0.9440  0.5769
13580TIP3    H162231   4.795   0.430  16.104 -0.5501 -0.4355  1.6347
13580TIP3    H262232   4.848   0.294  16.060 -2.6381 -1.0199  0.8393
13581TIP3   OH262233   3.126   5.180  10.493  0.4162 -0.3620 -0.0561
13581TIP3    H162234   3.178   5.261  10.497  0.9866 -0.7424  0.2088
13581TIP3    H262235   3.036   5.211  10.492  0.6428  0.3156 -0.7511
13582TIP3   OH262236   6.781   6.315  14.227  0.6376 -0.2499 -0.1650
13582TIP3    H162237   6.851   6.366  14.269  0.7667 -1.3754  1.0000
13582TIP3    H262238   6.735   6.273  14.299 -0.6600 -0.2953 -0.9934
13583TIP3   OH262239   2.444   6.180  13.439 -0.8092 -0.1759 -0.1303
13583TIP3    H162240   2.502   6.244  13.479  0.1875 -0.1670 -1.5742
13583TIP3    H262241   2.409   6.224  13.362  0.2638 -1.5316 -1.4075
13584TIP3   OH262242   1.845   6.649   0.429  0.1288 -0.2202  0.2795
13584TIP3    H162243   1.807   6.704   0.497  0.3520  1.3673 -0.8606
13584TIP3    H262244   1.770   6.611   0.384 -0.1163  1.4970 -0.8160
13585TIP3   OH262245   0.142   3.700  12.564  0.7835 -0.4654 -0.0846
13585TIP3    H162246   0.202   3.699  12.638  0.4103  1.7353  0.2977
13585TIP3    H262247   0.128   3.793  12.546 -1.2557 -0.9545 -1.1807
13586TIP3   OH262248   0.768   3.634   0.922 -0.3608 -0.0008 -0.1637
13586TIP3    H162249   0.814   3.714   0.949 -3.2406  1.2886  1.1222
13586TIP3    H262250   0.729   3.656   0.838  0.1740 -0.6325 -0.5866
13587TIP3   OH262251   4.334   6.108  13.637  0.5132  0.7409 -0.1082
13587TIP3    H162252   4.386   6.029  13.620  1.3082  1.0134  1.0209
13587TIP3    H262253   4.325   6.150  13.551 -0.3204 -0.8158 -0.8118
13588TIP3   OH262254   6.268   4.005   2.073 -0.4289 -0.0932 -0.7938
13588TIP3    H162255   6.173   4.004   2.079 -0.3970  1.7892  0.5613
13588TIP3    H262256   6.286   4.040   1.986 -1.0165  2.5097  0.0807
13589TIP3   OH262257   1.515   6.570  12.622  0.2106 -0.1352  0.7146
13589TIP3    H162258   1.506   6.490  12.674  2.1276 -0.6644  0.2646
13589TIP3    H262259   1.556   6.633  12.681  2.1023 -0.6412 -0.0244
13590TIP3   OH262260   4.531   1.111   5.603  0.1936  0.5157  0.5391
13590TIP3    H162261   4.613   1.134   5.559 -0.4737 -1.7065 -1.9610
13590TIP3    H262262   4.487   1.195   5.615  1.7793  1.4948 -0.2286
13591TIP3   OH262263   3.735   0.744  16.621  0.8553 -0.0986  0.1453
13591TIP3    H162264   3.644   0.717  16.629  1.0613 -0.3071  2.0192
13591TIP3    H262265   3.780   0.698  16.691  2.8019 -1.6434 -2.0552
13592TIP3   OH262266   4.691   5.842  11.399  0.1702 -0.0326  0.3473
13592TIP3    H162267   4.739   5.858  11.318 -0.8809  1.9623  0.0597
13592TIP3    H262268   4.758   5.820  11.463  1.2186  0.3746 -0.5859
13593TIP3   OH262269   2.626   2.945   3.874 -0.1366  0.4597  0.5864
13593TIP3    H162270   2.637   2.915   3.784 -0.7395  1.1482  0.2848
13593TIP3    H262271   2.642   2.867   3.927  1.9613  0.4278 -0.0321
13594TIP3   OH262272   3.710   4.961   3.459  0.3932 -0.0431  0.4100
13594TIP3    H162273   3.647   4.889   3.453  0.8631 -0.3015 -2.3574
13594TIP3    H262274   3.771   4.934   3.527  0.8000 -2.4753 -0.8718
13595TIP3   OH262275   0.461   4.393  14.638 -0.1906  0.1535  0.8754
13595TIP3    H162276   0.382   4.425  14.683 -0.5737  1.2557 -0.5467
13595TIP3    H262277   0.533   4.423  14.694 -0.7452 -0.4369  1.9316
13596TIP3   OH262278   5.408   2.994   5.533  0.5749 -0.5076 -0.8191
13596TIP3    H162279   5.322   2.963   5.562 -0.3359  0.9268 -1.9569
13596TIP3    H262280   5.464   2.916   5.539 -0.5419 -1.2158  0.8980
13597TIP3   OH262281   2.949   4.071  11.969 -0.0730 -0.1166 -0.2110
13597TIP3    H162282   2.853   4.067  11.962 -0.0031  1.4829 -2.7168
13597TIP3    H262283   2.973   3.991  12.016 -2.6709 -0.2649  0.9575
13598TIP3   OH262284   3.660   1.086  17.230  0.0933 -0.1451  1.3422
13598TIP3    H162285   3.752   1.070  17.249  0.0036  0.6303  2.4704
13598TIP3    H262286   3.617   1.085  17.316 -1.1170 -1.5276  0.7500
13599TIP3   OH262287   0.656   1.509  11.600 -0.1768  0.5590  0.1251
13599TIP3    H162288   0.727   1.483  11.543  0.2767  1.9998 -0.0045
13599TIP3    H262289   0.583   1.452  11.577  0.1231  0.8423 -1.6082
13600TIP3   OH262290   6.091   5.580  14.096  0.1342  0.0209  0.4098
13600TIP3    H162291   6.032   5.647  14.061 -0.1221 -0.9456 -1.0513
13600TIP3    H262292   6.038   5.535  14.162 -0.7664 -0.7731 -0.8199
13601TIP3   OH262293   3.686   2.402  15.621 -0.0468  0.2973 -0.0272
13601TIP3    H162294   3.676   2.480  15.566  1.3983  0.2316 -0.4071
13601TIP3    H262295   3.777   2.405  15.650 -0.1800 -0.8749  0.5319
13602TIP3   OH262296   3.235   1.168  15.857 -0.2442 -0.9019 -0.0834
13602TIP3    H162297   3.284   1.228  15.913  2.1404 -1.1405 -1.8305
13602TIP3    H262298   3.154   1.215  15.838  0.0570  0.2885  1.4183
13603TIP3   OH262299   6.343   1.271   3.296  0.7401  0.1264 -0.0076
13603TIP3    H162300   6.362   1.336   3.228  1.2643  0.1072  0.1188
13603TIP3    H262301   6.328   1.322   3.375 -2.3516  0.3062 -0.6648
13604TIP3   OH262302   4.949   5.007  16.392 -0.7422 -0.3003  0.0031
13604TIP3    H162303   5.023   5.030  16.337 -0.5034 -0.3064  0.3191
13604TIP3    H262304   4.969   4.919  16.425 -0.9653 -0.3695 -0.0415
13605TIP3   OH262305   3.302   3.472   6.164 -0.1119 -0.0929 -0.1876
13605TIP3    H162306   3.210   3.487   6.187 -0.1518  1.1106 -1.0440
13605TIP3    H262307   3.309   3.507   6.075  0.3722 -3.2547 -1.4605
13606TIP3   OH262308   6.721   5.160  14.917 -0.1347  0.4016 -0.1621
13606TIP3    H162309   6.637   5.129  14.949  0.6344 -0.4967  1.0197
13606TIP3    H262310   6.784   5.138  14.986  1.0395  1.2666 -0.9128
13607TIP3   OH262311   1.902   1.501  13.806 -0.0865  0.1609 -0.3609
13607TIP3    H162312   1.991   1.473  13.782 -0.0720 -0.6507  0.5800
13607TIP3    H262313   1.912   1.593  13.828  0.4256  0.2123 -0.7894
13608TIP3   OH262314   3.090   2.277   2.465 -0.3024  0.6366  0.1278
13608TIP3    H162315   3.162   2.280   2.528 -1.2430  1.4500  1.1731
13608TIP3    H262316   3.027   2.216   2.504  0.7718 -1.8397 -1.8388
13609TIP3   OH262317   1.725   3.819   1.604  0.3273  0.3217 -0.1676
13609TIP3    H162318   1.671   3.896   1.588  2.7493  1.5806 -2.5329
13609TIP3    H262319   1.689   3.751   1.547 -0.3084  0.3681  0.1671
13610TIP3   OH262320   4.366   5.071   2.117  0.8688 -0.2725  0.2005
13610TIP3    H162321   4.272   5.079   2.133  1.0433 -0.0337  1.1713
13610TIP3    H262322   4.374   5.053   2.024 -0.1323 -0.0935  0.0809
13611TIP3   OH262323   5.281   3.445   1.942  0.3664 -0.0063 -0.2794
13611TIP3    H162324   5.209   3.390   1.972  1.6503 -1.9827 -0.7659
13611TIP3    H262325   5.284   3.430   1.847  1.6904 -0.2840 -0.1996
13612TIP3   OH262326   5.090   0.706  12.723  0.2789 -0.0014  0.5917
13612TIP3    H162327   5.032   0.633  12.705  2.3103 -1.1946 -1.4616
13612TIP3    H262328   5.167   0.666  12.764  0.9957  1.1354  0.3799
13613TIP3   OH262329   5.631   1.709  11.370 -0.1447 -0.0138  0.3761
13613TIP3    H162330   5.674   1.747  11.447 -0.3473 -0.2690  0.6189
13613TIP3    H262331   5.642   1.615  11.381  0.5885 -0.0163 -0.3668
13614TIP3   OH262332   1.623   3.675   5.538  0.1131 -0.2106 -0.2378
13614TIP3    H162333   1.621   3.591   5.583  0.5213 -0.8290 -1.3685
13614TIP3    H262334   1.622   3.653   5.445 -0.7348  1.0533 -0.5466
13615TIP3   OH262335   5.426   6.565  14.227  0.2921 -0.6323 -0.2725
13615TIP3    H162336   5.490   6.502  14.259 -0.0639 -1.4459 -1.1400
13615TIP3    H262337   5.342   6.520  14.231  0.0132 -0.1745 -0.7825
13616TIP3   OH262338   0.173   3.272  15.960  0.2214 -0.2382 -0.0621
13616TIP3    H162339   0.136   3.213  16.026  0.7131 -0.9561 -0.4112
13616TIP3    H262340   0.245   3.316  16.004 -0.6231  0.6750  0.4249
13617TIP3   OH262341   6.321   4.695  12.356 -0.1250  0.2006  0.0411
13617TIP3    H162342   6.274   4.659  12.280  0.8232  0.4427 -0.6751
13617TIP3    H262343   6.412   4.669  12.342 -0.0039 -0.0704  1.3060
13618TIP3   OH262344   0.044   3.500  14.470 -0.1288 -0.0774  0.2546
13618TIP3    H162345   0.023   3.544  14.552  0.2438 -0.0569  0.3386
13618TIP3    H262346   0.034   3.568  14.403 -1.9569 -0.4650  0.0851
13619TIP3   OH262347   2.562   2.831   3.601  0.0742 -0.2245  0.2065
13619TIP3    H162348   2.498   2.763   3.580 -0.4787 -0.1855  1.6689
13619TIP3    H262349   2.557   2.893   3.528 -0.6911 -0.8412 -0.2714
13620TIP3   OH262350   2.055   5.467  15.212  0.0814  0.4676  0.5447
13620TIP3    H162351   2.024   5.556  15.195 -1.2051 -0.0113  0.2973
13620TIP3    H262352   2.149   5.470  15.191 -0.6275  0.8880 -2.9646
13621TIP3   OH262353   2.128   1.734   1.279 -0.7295 -0.0409 -0.5547
13621TIP3    H162354   2.157   1.796   1.347 -0.7093 -0.3283 -0.3004
13621TIP3    H262355   2.203   1.676   1.266  0.1610  1.5181 -2.5954
13622TIP3   OH262356   1.238   3.228   3.811 -0.0614  0.5007  0.3092
13622TIP3    H162357   1.293   3.305   3.820  1.3466 -0.2871 -1.2335
13622TIP3    H262358   1.220   3.200   3.901 -2.1650  3.6587  0.9587
13623TIP3   OH262359   1.415   4.235  15.816 -0.6374 -0.3536 -0.1769
13623TIP3    H162360   1.440   4.221  15.725  0.4975 -0.4221  0.1397
13623TIP3    H262361   1.397   4.329  15.821  1.5212  0.0718  0.0493
13624TIP3   OH262362   4.291   0.654  11.492  0.4262  0.0113  0.8406
13624TIP3    H162363   4.211   0.612  11.523 -0.9830  2.6296  0.7933
13624TIP3    H262364   4.344   0.581  11.460 -0.8494 -2.0502  3.1682
13625TIP3   OH262365   2.061   0.927  16.079  0.3089  0.0705  0.1586
13625TIP3    H162366   1.970   0.944  16.103  0.0962 -0.1038 -0.5449
13625TIP3    H262367   2.084   0.847  16.126 -0.0735 -0.2005 -0.1132
13626TIP3   OH262368   0.635   5.680   5.733  0.0956 -0.4391 -0.4609
13626TIP3    H162369   0.683   5.674   5.815 -0.5781  0.7953  0.0440
13626TIP3    H262370   0.590   5.596   5.724 -1.1649  0.0130  1.2841
13627TIP3   OH262371   2.805   5.837  16.864 -0.5488 -0.4354 -0.0560
13627TIP3    H162372   2.732   5.777  16.850 -1.3749  0.8645 -1.4788
13627TIP3    H262373   2.768   5.924  16.849  1.4504  0.1874 -1.5687
13628TIP3   OH262374   3.893   4.923   4.610  0.0389 -0.1438 -0.3582
13628TIP3    H162375   3.823   4.925   4.545 -1.7393 -0.9040  1.5155
13628TIP3    H262376   3.860   4.975   4.683  1.2013 -0.9408  0.7631
13629TIP3   OH262377   4.759   1.066   5.951 -0.0388 -0.1345  0.6587
13629TIP3    H162378   4.733   1.150   5.990 -1.6421 -0.0372 -0.5757
13629TIP3    H262379   4.823   1.089   5.884 -1.4339  0.2552 -0.5673
13630TIP3   OH262380   0.167   5.358  11.190 -0.0931 -0.0343 -0.5112
13630TIP3    H162381   0.158   5.263  11.184 -1.5619 -0.0255  1.0946
13630TIP3    H262382   0.083   5.387  11.225  0.3775  1.8547 -0.9319
13631TIP3   OH262383   5.900   4.706   0.343  0.0943  0.6263  0.0088
13631TIP3    H162384   5.932   4.620   0.371 -0.0214  0.9536  1.1676
13631TIP3    H262385   5.900   4.701   0.247 -0.0503 -0.7183  0.0629
13632TIP3   OH262386   2.454   5.891  15.425 -0.3131  0.6016 -0.3338
13632TIP3    H162387   2.392   5.953  15.387 -1.1494  0.6425  1.0628
13632TIP3    H262388   2.420   5.805  15.399 -0.5845  0.6485 -0.1411
13633TIP3   OH262389   1.484   2.019   5.355  0.0460 -0.1312  0.2961
13633TIP3    H162390   1.525   1.979   5.278 -0.5439  1.6193 -0.9539
13633TIP3    H262391   1.556   2.067   5.396 -0.4760  2.1728 -1.3813
13634TIP3   OH262392   1.720   2.103   0.423  0.3410  0.0860 -0.1850
13634TIP3    H162393   1.771   2.183   0.411  0.0927  0.5219  1.4472
13634TIP3    H262394   1.774   2.049   0.480 -0.1644 -0.2455 -0.0151
13635TIP3   OH262395   4.292   1.755   3.587  0.5790 -0.3286 -0.3667
13635TIP3    H162396   4.256   1.670   3.610 -1.2665  0.5175 -0.0040
13635TIP3    H262397   4.276   1.763   3.492 -1.8081  0.7538  0.0915
13636TIP3   OH262398   0.102   0.697   5.813  0.6903  0.2168  0.4216
13636TIP3    H162399   0.095   0.647   5.895 -0.9913  0.9174  0.7385
13636TIP3    H262400   0.171   0.760   5.830  0.1986  0.5114  1.4076
13637TIP3   OH262401   5.125   1.586   1.515 -0.3813  0.1941 -0.8638
13637TIP3    H162402   5.181   1.664   1.518 -0.5701  0.2745  0.8375
13637TIP3    H262403   5.181   1.515   1.546 -1.0295  0.1594  0.2279
13638TIP3   OH262404   3.297   3.570  14.587  0.0052  0.4099  0.3880
13638TIP3    H162405   3.204   3.582  14.570  0.1172  0.7658  0.0031
13638TIP3    H262406   3.304   3.559  14.681 -0.3108  1.4569  0.5353
13639TIP3   OH262407   0.586   6.366  12.564 -0.1860  0.2550  0.3464
13639TIP3    H162408   0.558   6.320  12.485 -1.0179  0.1226  0.7159
13639TIP3    H262409   0.505   6.400  12.602  0.0320 -0.9402  1.9220
13640TIP3   OH262410   0.852   5.020  13.271  0.4238  0.4594  0.3491
13640TIP3    H162411   0.808   5.025  13.355 -0.1068  1.6744  0.0187
13640TIP3    H262412   0.885   4.930  13.266  2.0059  0.8584  2.6237
13641TIP3   OH262413   1.002   1.042   5.454 -0.5486  0.0673 -0.1653
13641TIP3    H162414   1.040   0.954   5.453 -1.4081 -0.3017 -0.4694
13641TIP3    H262415   0.986   1.060   5.547 -1.3281 -0.5158 -0.1793
13642TIP3   OH262416   5.299   1.608   2.208 -0.1909 -0.0119 -0.0147
13642TIP3    H162417   5.220   1.573   2.167  0.7301 -1.8242 -0.2967
13642TIP3    H262418   5.331   1.674   2.146 -1.0387  0.1388 -0.2864
13643TIP3   OH262419   0.903   4.290  16.117 -0.1606 -0.0551  0.0220
13643TIP3    H162420   0.992   4.254  16.120  0.3865  1.2996  0.2200
13643TIP3    H262421   0.915   4.384  16.106 -1.6143 -0.1513 -2.7018
13644TIP3   OH262422   2.987   1.616  12.441  0.0402  0.3896  0.6591
13644TIP3    H162423   3.015   1.703  12.412  0.0131  0.9452  2.2773
13644TIP3    H262424   2.985   1.621  12.536 -1.4828 -0.9150  0.7287
13645TIP3   OH262425   4.203   4.849  13.209  0.2827 -0.0937  0.0055
13645TIP3    H162426   4.177   4.845  13.301  1.5523 -0.9562  0.3289
13645TIP3    H262427   4.131   4.807  13.162 -0.0852 -0.1932  0.6530
13646TIP3   OH262428   6.615   1.589   2.684 -0.0790  0.4340 -0.2113
13646TIP3    H162429   6.570   1.510   2.653  2.3436 -0.9529 -0.3262
13646TIP3    H262430   6.641   1.634   2.605 -1.4324  1.3670 -0.1443
13647TIP3   OH262431   0.831   5.183  12.249  0.0151  0.2108 -0.2635
13647TIP3    H162432   0.878   5.143  12.321  0.1224  0.5806 -0.1255
13647TIP3    H262433   0.887   5.169  12.172  0.4697  0.8661 -0.0547
13648TIP3   OH262434   5.782   5.436  11.200  0.2873  0.4609  0.0154
13648TIP3    H162435   5.831   5.364  11.160 -1.0248  0.9671 -2.6178
13648TIP3    H262436   5.846   5.508  11.205  0.6974  0.1375 -0.4270
13649TIP3   OH262437   3.382   2.184  17.093 -0.4089  0.4377 -0.5216
13649TIP3    H162438   3.459   2.242  17.095  0.0410 -0.1653 -0.4619
13649TIP3    H262439   3.323   2.225  17.030  0.1936  0.6059 -0.9771
13650TIP3   OH262440   4.578   0.253   1.482 -0.2362  0.7126 -0.5080
13650TIP3    H162441   4.485   0.266   1.463 -0.9895 -1.7508  1.2518
13650TIP3    H262442   4.581   0.221   1.572  2.4175  1.6188 -0.2038
13651TIP3   OH262443   2.576   6.339   2.598 -0.4426  0.7185 -0.1628
13651TIP3    H162444   2.536   6.373   2.678  1.4594 -0.5615  1.3750
13651TIP3    H262445   2.502   6.309   2.545 -1.7348  1.6841  1.0657
13652TIP3   OH262446   3.182   4.667   0.620  0.6248 -0.2632 -0.0737
13652TIP3    H162447   3.213   4.748   0.579  1.1505 -0.1099  0.6198
13652TIP3    H262448   3.169   4.690   0.712 -0.6073 -0.5930 -0.1568
13653TIP3   OH262449   4.936   1.405   4.471  0.7040 -0.0868 -0.1184
13653TIP3    H162450   4.915   1.348   4.397  0.2469 -0.6816  0.4634
13653TIP3    H262451   4.936   1.347   4.547 -3.3953  1.2467  1.0409
13654TIP3   OH262452   2.163   2.846   2.289 -0.2688  0.3667 -0.2328
13654TIP3    H162453   2.221   2.863   2.364 -0.8791  0.8707  0.1329
13654TIP3    H262454   2.210   2.781   2.237  1.2943  1.8220 -0.6936
13655TIP3   OH262455   5.950   4.567  16.237 -0.2682  0.4392  0.0767
13655TIP3    H162456   5.974   4.556  16.329 -1.4619 -2.5027  0.0971
13655TIP3    H262457   6.033   4.573  16.191  0.5218 -2.9399  0.8694
13656TIP3   OH262458   3.192   3.431   5.634  0.3767 -0.2331 -0.2622
13656TIP3    H162459   3.204   3.337   5.643 -0.2265 -0.1440  1.5092
13656TIP3    H262460   3.100   3.446   5.655  0.7512  0.8934  0.6344
13657TIP3   OH262461   1.608   2.382  13.800  0.1167 -0.7584  0.1088
13657TIP3    H162462   1.693   2.403  13.760  0.3787  0.5952  1.3707
13657TIP3    H262463   1.623   2.299  13.846  1.1918  0.2934  1.6662
13658TIP3   OH262464   3.076   2.387  13.974 -0.4454  0.1665 -0.1597
13658TIP3    H162465   3.160   2.374  14.019 -1.2765 -1.4424  0.9779
13658TIP3    H262466   3.017   2.324  14.015 -1.8381  0.2676 -1.9528
13659TIP3   OH262467   2.122   3.147  16.014 -0.3087  0.4993  0.5617
13659TIP3    H162468   2.142   3.111  16.100 -0.3709 -2.5105 -0.6437
13659TIP3    H262469   2.180   3.223  16.006  1.1412 -0.3696  2.4274
13660TIP3   OH262470   5.780   2.915  12.406 -0.5033  0.6868  0.6590
13660TIP3    H162471   5.828   2.938  12.485  0.3030 -0.3366  0.4797
13660TIP3    H262472   5.713   2.853  12.436 -0.7421  0.9475  0.6679
13661TIP3   OH262473   6.206   5.412   5.534 -0.3503  0.2164 -0.6122
13661TIP3    H162474   6.168   5.375   5.454 -0.1247  0.0589 -0.6476
13661TIP3    H262475   6.209   5.507   5.517 -0.1026  0.1635 -0.8799
13662TIP3   OH262476   2.083   2.258  15.723 -0.5184 -0.0059  0.2164
13662TIP3    H162477   2.019   2.203  15.678 -0.1160  0.6132 -1.1311
13662TIP3    H262478   2.083   2.225  15.813 -1.6247 -0.9982 -0.1267
13663TIP3   OH262479   6.154   0.921   0.437 -0.2333 -0.3212 -0.1526
13663TIP3    H162480   6.131   0.834   0.467 -0.4309  0.3042  1.5687
13663TIP3    H262481   6.071   0.968   0.433 -0.3228 -0.6388 -2.5629
13664TIP3   OH262482   0.561   2.728  12.315  0.1729 -0.5067  0.9250
13664TIP3    H162483   0.587   2.801  12.260 -1.7621 -2.4823 -2.8306
13664TIP3    H262484   0.490   2.762  12.369 -0.4189  0.5418 -0.4874
13665TIP3   OH262485   3.554   1.207   3.554 -0.3182  0.3286  0.0222
13665TIP3    H162486   3.561   1.119   3.515 -0.7306  1.4301 -2.6776
13665TIP3    H262487   3.474   1.204   3.607  0.6032 -1.4204  1.3501
13666TIP3   OH262488   6.645   0.692   0.755 -0.2268 -0.0069  0.3014
13666TIP3    H162489   6.687   0.660   0.836 -0.3372  1.7154  1.0563
13666TIP3    H262490   6.713   0.743   0.712 -1.3727  2.4362  1.3164
13667TIP3   OH262491   5.420   3.652   1.156 -0.5940 -0.1144  0.0037
13667TIP3    H162492   5.512   3.632   1.140 -0.6043 -0.0294 -0.1561
13667TIP3    H262493   5.380   3.567   1.177 -0.1387  0.0738  1.7647
13668TIP3   OH262494   5.887   5.001  11.954  0.4637 -0.1492 -0.1225
13668TIP3    H162495   5.820   5.016  11.887  1.7028 -1.5823 -1.7200
13668TIP3    H262496   5.920   4.914  11.935 -0.6614 -1.4799  3.7201
13669TIP3   OH262497   4.583   0.725   5.517 -0.1723  0.2265 -0.0607
13669TIP3    H162498   4.574   0.762   5.605 -0.4622  0.6952 -0.2899
13669TIP3    H262499   4.507   0.667   5.508  0.1609 -0.2563  0.2121
13670TIP3   OH262500   2.413   1.814  10.452 -0.3504 -0.6800 -0.1836
13670TIP3    H162501   2.393   1.722  10.471 -1.8272 -0.5445 -1.0040
13670TIP3    H262502   2.330   1.850  10.421  0.7616  0.3399 -2.0597
13671TIP3   OH262503   4.889   0.879  10.547 -0.2714  0.2113  0.4305
13671TIP3    H162504   4.974   0.898  10.507 -0.3284  1.7415  1.0214
13671TIP3    H262505   4.907   0.874  10.641 -0.6275 -0.6291  0.4559
13672TIP3   OH262506   6.156   1.832   5.822 -0.2256 -0.0340 -0.2235
13672TIP3    H162507   6.236   1.883   5.809  0.8441 -0.9888  2.2694
13672TIP3    H262508   6.171   1.783   5.903 -3.2590 -0.4022  0.2029
13673TIP3   OH262509   5.726   4.517  12.205  0.1754 -0.0567  0.5314
13673TIP3    H162510   5.693   4.497  12.118  1.4452  0.4091 -0.0760
13673TIP3    H262511   5.648   4.533  12.258 -0.5514  3.1069 -1.3745
13674TIP3   OH262512   5.755   2.248   1.699 -0.2744 -0.1014 -0.2682
13674TIP3    H162513   5.769   2.319   1.636 -2.1165  0.6930  0.1797
13674TIP3    H262514   5.754   2.291   1.784  3.4311 -1.3444  0.4713
13675TIP3   OH262515   5.031   5.727  14.224 -0.2187 -0.1008  0.0973
13675TIP3    H162516   5.039   5.723  14.319 -0.7959 -4.1709  0.0545
13675TIP3    H262517   5.122   5.729  14.193 -0.0257  1.2527  0.7192
13676TIP3   OH262518   4.943   3.248   4.002  0.8285 -0.4172  0.5644
13676TIP3    H162519   4.943   3.153   4.001  0.7289 -0.4291  1.1283
13676TIP3    H262520   4.891   3.271   4.079 -0.6474  0.1125 -0.5767
13677TIP3   OH262521   1.168   3.092   2.481 -0.0737 -0.1510  0.0963
13677TIP3    H162522   1.197   3.075   2.570 -1.4992 -1.7438  0.2758
13677TIP3    H262523   1.076   3.064   2.480  0.6799 -2.6555 -2.5862
13678TIP3   OH262524   3.666   2.776  17.091  0.0209 -0.2600 -0.4884
13678TIP3    H162525   3.613   2.749  17.167  0.5201  1.5312  0.5148
13678TIP3    H262526   3.623   2.856  17.059  1.6374  0.7339 -0.1860
13679TIP3   OH262527   5.662   3.516  15.766 -0.2729 -0.4674 -0.7642
13679TIP3    H162528   5.648   3.610  15.778  0.1709 -0.0693 -3.1529
13679TIP3    H262529   5.601   3.475  15.827 -1.2642  1.3592 -0.4907
13680TIP3   OH262530   2.267   3.641  13.554  0.5954  0.3176 -0.1350
13680TIP3    H162531   2.345   3.675  13.596 -0.4089  2.3883  0.0974
13680TIP3    H262532   2.227   3.583  13.620  0.4425  1.4610  0.7833
13681TIP3   OH262533   1.934   0.682   3.182 -0.2700  0.0221 -0.2319
13681TIP3    H162534   1.957   0.608   3.126  1.1451 -0.4703  0.9711
13681TIP3    H262535   1.913   0.641   3.266  1.7946  1.0845  0.8217
13682TIP3   OH262536   2.748   4.553  15.265  0.0960 -0.3821  0.5539
13682TIP3    H162537   2.696   4.531  15.188 -1.8391 -1.4654  2.1083
13682TIP3    H262538   2.828   4.503  15.254  1.0892  1.6808 -2.1187
13683TIP3   OH262539   4.660   5.511  14.607 -0.1980  0.2749 -0.2541
13683TIP3    H162540   4.731   5.451  14.584 -0.2928 -0.4547  1.2723
13683TIP3    H262541   4.614   5.467  14.678 -1.8298  1.0133 -0.8406
13684TIP3   OH262542   0.163   3.315  15.269 -0.4260  0.5393 -0.1682
13684TIP3    H162543   0.124   3.398  15.240  1.6131  0.6522 -2.7524
13684TIP3    H262544   0.165   3.261  15.191  0.6836 -1.0157  0.9088
13685TIP3   OH262545   6.445   3.212   3.880  0.5643 -1.0083  0.1775
13685TIP3    H162546   6.510   3.233   3.813 -0.6478  1.2649 -0.3659
13685TIP3    H262547   6.411   3.298   3.907 -3.0848 -2.1894 -0.4735
13686TIP3   OH262548   4.245   4.270   0.011 -0.8440 -0.2584 -0.0817
13686TIP3    H162549   4.276   4.240  -0.074 -2.1378  0.5282 -0.8586
13686TIP3    H262550   4.288   4.213   0.075 -0.9333 -1.7637 -1.3424
13687TIP3   OH262551   4.372   4.038  15.017  0.0157 -0.1534  0.0024
13687TIP3    H162552   4.326   4.033  14.933 -0.3011 -0.7226  0.2027
13687TIP3    H262553   4.417   4.122  15.016 -1.2877  0.5581 -0.0852
13688TIP3   OH262554   2.179   5.195   4.033 -0.2390  0.2366  0.2821
13688TIP3    H162555   2.236   5.215   4.107  0.2879 -1.2251  0.2793
13688TIP3    H262556   2.131   5.117   4.059  0.1353 -0.4489 -1.0027
13689TIP3   OH262557   2.069   0.446  15.143 -0.3975  0.1292  0.0306
13689TIP3    H162558   2.038   0.535  15.160  0.2542  0.5521 -0.9453
13689TIP3    H262559   2.036   0.425  15.056 -0.0723 -0.3729  0.0250
13690TIP3   OH262560   2.450   5.412   5.123 -0.0247  0.0185 -0.1339
13690TIP3    H162561   2.470   5.500   5.155 -2.2395  0.9607 -1.2040
13690TIP3    H262562   2.521   5.391   5.063  0.8748  0.7922  0.6394
13691TIP3   OH262563   3.893   3.251  15.297 -0.0035 -0.1485 -0.2816
13691TIP3    H162564   3.864   3.287  15.381 -1.5096 -0.4448 -0.6492
13691TIP3    H262565   3.935   3.324  15.253 -0.3374  0.3514  0.2161
13692TIP3   OH262566   2.964   2.215  13.446  0.0609  0.3251  0.2033
13692TIP3    H162567   3.020   2.274  13.495  1.1016 -0.3590 -0.1532
13692TIP3    H262568   3.023   2.168  13.387 -0.6890 -1.3846  0.7824
13693TIP3   OH262569   5.438   1.355   3.586 -0.1979  0.3000  0.4654
13693TIP3    H162570   5.359   1.362   3.640  0.1258  1.0824  0.8456
13693TIP3    H262571   5.424   1.416   3.514 -0.5405 -0.5971 -0.2430
13694TIP3   OH262572   3.489   6.143   1.419 -0.1702 -0.0282  0.1879
13694TIP3    H162573   3.560   6.151   1.355 -0.9562 -0.3576 -0.7381
13694TIP3    H262574   3.532   6.153   1.503  0.6855  1.7810 -0.4255
13695TIP3   OH262575   1.643   6.369   5.574 -0.1030  0.2193  0.1630
13695TIP3    H162576   1.717   6.425   5.552  0.8351 -0.6397  1.1228
13695TIP3    H262577   1.678   6.306   5.636 -1.8036  0.2665  1.2065
13696TIP3   OH262578   5.750   3.748  12.591  0.0549 -0.0687  0.5073
13696TIP3    H162579   5.813   3.702  12.536 -0.8190 -0.1336 -0.4428
13696TIP3    H262580   5.730   3.686  12.661 -1.6360 -1.4381 -1.1394
13697TIP3   OH262581   4.302   0.529   0.668 -0.5352  0.1824  0.5221
13697TIP3    H162582   4.236   0.569   0.724  1.2751  0.2357  2.7259
13697TIP3    H262583   4.381   0.582   0.683  0.5754 -1.1702 -0.3649
13698TIP3   OH262584   2.359   5.555  15.376 -0.0453 -0.0314  0.2122
13698TIP3    H162585   2.328   5.555  15.285  2.9142 -0.0617 -0.8387
13698TIP3    H262586   2.426   5.487  15.379  1.2685  1.2767  1.9047
13699TIP3   OH262587   1.431   3.160  14.384 -0.1319 -0.0411  0.3256
13699TIP3    H162588   1.441   3.150  14.289 -2.3329  1.7965 -0.1659
13699TIP3    H262589   1.509   3.120  14.421 -0.1865 -2.5706 -2.1628
13700TIP3   OH262590   5.499   6.686   3.883  0.1011  0.2917  0.7001
13700TIP3    H162591   5.493   6.634   3.963 -1.8746 -2.5614 -1.2262
13700TIP3    H262592   5.427   6.749   3.890  0.5577  0.7171  1.6190
13701TIP3   OH262593   5.091   6.455   0.289 -1.4555  0.1594 -0.2477
13701TIP3    H162594   5.119   6.499   0.369 -0.9893 -1.3822  0.4401
13701TIP3    H262595   5.083   6.526   0.225  5.5405  0.6340 -0.9754
13702TIP3   OH262596   3.683   1.777   1.234  0.2334 -0.1691 -0.3182
13702TIP3    H162597   3.606   1.728   1.263 -0.0421 -0.2631 -1.1965
13702TIP3    H262598   3.746   1.710   1.208  1.1473 -0.1232  1.7314
13703TIP3   OH262599   3.665   4.679  13.552 -0.0622 -0.3946 -0.1396
13703TIP3    H162600   3.694   4.603  13.501 -1.8246  0.1337 -1.9870
13703TIP3    H262601   3.717   4.752  13.518 -1.0868 -0.0819 -1.0701
13704TIP3   OH262602   4.452   4.696   4.136  0.0940 -0.7574 -0.0421
13704TIP3    H162603   4.543   4.671   4.124 -0.2007 -3.7664  3.0827
13704TIP3    H262604   4.455   4.770   4.196  0.4534 -2.0299  1.5454
13705TIP3   OH262605   1.506   5.989   3.911 -0.0277  0.1272  0.0947
13705TIP3    H162606   1.533   6.032   3.830  0.1105 -2.1173 -1.1007
13705TIP3    H262607   1.583   5.995   3.968  0.6232 -0.1609 -0.7453
13706TIP3   OH262608   5.001   1.761   3.445  0.4541  0.0550 -0.4002
13706TIP3    H162609   5.056   1.710   3.505  1.6371  0.7851 -0.8552
13706TIP3    H262610   4.986   1.844   3.490  0.2355  0.0942 -0.5443
13707TIP3   OH262611   3.183   3.640   4.327  0.4623 -0.1885  0.1994
13707TIP3    H162612   3.139   3.555   4.332 -0.3105  0.0037 -2.4331
13707TIP3    H262613   3.272   3.620   4.297  0.8898 -0.2302  1.4911
13708TIP3   OH262614   5.836   2.536   2.708  0.7301 -0.4864  0.1047
13708TIP3    H162615   5.764   2.534   2.645 -0.1845  0.1364  1.1124
13708TIP3    H262616   5.825   2.620   2.754  0.8306 -1.3459  1.7233
13709TIP3   OH262617   0.213   4.182  16.463  0.3209  0.7313  0.3052
13709TIP3    H162618   0.132   4.228  16.442 -0.4587 -1.1690 -0.9802
13709TIP3    H262619   0.191   4.128  16.539  0.4197  0.3370  0.0562
13710TIP3   OH262620   2.335   3.158   0.709  0.1376 -0.3078 -0.5908
13710TIP3    H162621   2.416   3.160   0.658 -0.1701 -0.7653 -1.0996
13710TIP3    H262622   2.265   3.152   0.643 -0.3630  1.0166 -0.2019
13711TIP3   OH262623   3.163   0.381   2.695  0.8327  0.0129  0.3646
13711TIP3    H162624   3.238   0.422   2.739  0.8355  0.1419  0.2447
13711TIP3    H262625   3.203   0.327   2.626  0.7883  0.7875 -0.2808
13712TIP3   OH262626   2.191   3.795   5.569 -0.1061 -0.0227 -0.2278
13712TIP3    H162627   2.259   3.805   5.636  0.0346 -0.7656 -0.2582
13712TIP3    H262628   2.222   3.725   5.513  0.3140  1.3630 -1.7542
13713TIP3   OH262629   1.731   1.053   2.447  0.3588 -0.3128 -0.0399
13713TIP3    H162630   1.805   1.054   2.386  1.0187  0.3054  0.7580
13713TIP3    H262631   1.683   0.972   2.425  0.1801  0.2486 -1.8271
13714TIP3   OH262632   5.336   1.978   5.517 -0.1188  0.1308  0.1646
13714TIP3    H162633   5.260   1.922   5.505 -0.2702 -0.7864  4.4782
13714TIP3    H262634   5.300   2.067   5.516 -0.8881 -0.1777 -0.1051
13715TIP3   OH262635   5.217   2.139   2.672  0.3363  0.1185 -0.5372
13715TIP3    H162636   5.287   2.124   2.609  1.0049  0.3360  0.1435
13715TIP3    H262637   5.262   2.171   2.750 -0.4672 -0.2913  0.1006
13716TIP3   OH262638   0.535   0.193   3.388  0.3372 -0.5284 -0.5029
13716TIP3    H162639   0.582   0.113   3.414  1.1257 -0.0055 -0.2980
13716TIP3    H262640   0.462   0.199   3.451  0.3983 -0.9741 -0.3875
13717TIP3   OH262641   2.055   1.765  17.075  0.0959  0.0329 -0.0830
13717TIP3    H162642   2.091   1.851  17.098 -0.5854  0.5065 -0.7341
13717TIP3    H262643   2.002   1.782  16.997 -1.1451 -0.7240  0.5712
13718TIP3   OH262644   5.649   0.003   5.218  0.4326 -0.4692 -0.4338
13718TIP3    H162645   5.743   0.013   5.235  0.0789  0.2635  1.1470
13718TIP3    H262646   5.631  -0.089   5.237  1.1575 -1.0865 -2.5133
13719TIP3   OH262647   2.263   1.010   2.381 -0.0685 -0.2557  0.0015
13719TIP3    H162648   2.258   1.064   2.302  2.5718  1.8563  1.1921
13719TIP3    H262649   2.286   0.923   2.350 -0.8879  0.1205 -1.6939
13720TIP3   OH262650   0.459   5.776   0.020 -0.3689 -0.1977  0.1084
13720TIP3    H162651   0.381   5.815   0.060 -0.7234 -0.8652  0.0742
13720TIP3    H262652   0.431   5.689  -0.007 -0.3653  0.5359 -2.3670
13721TIP3   OH262653   5.984   4.721   5.508  0.2711 -0.3500 -0.3663
13721TIP3    H162654   5.935   4.784   5.561  0.3103 -0.1937 -0.5158
13721TIP3    H262655   5.928   4.644   5.503 -0.9583  0.6428 -2.4457
13722TIP3   OH262656   1.945   2.856  16.097  0.2058 -0.0510  0.2844
13722TIP3    H162657   2.031   2.868  16.137  0.0344 -1.3982  1.0907
13722TIP3    H262658   1.957   2.781  16.038  0.1504  1.1667 -1.3038
13723TIP3   OH262659   4.830   4.863  15.429 -0.2736  0.0570  0.3970
13723TIP3    H162660   4.904   4.923  15.416 -0.0219 -0.6881 -1.8193
13723TIP3    H262661   4.765   4.915  15.476  1.2351  1.0511  1.4112
13724TIP3   OH262662   2.916   1.926   3.372  0.0948  0.0336 -0.1643
13724TIP3    H162663   2.943   1.877   3.295 -1.9656 -1.0213 -0.2649
13724TIP3    H262664   2.958   1.879   3.445  1.2083  0.4171 -0.5459
13725TIP3   OH262665   6.030   0.779   1.869  0.3273  0.0026 -0.3848
13725TIP3    H162666   6.086   0.852   1.896 -0.2078 -0.1493  1.1827
13725TIP3    H262667   5.949   0.821   1.839  0.2543  0.0848 -0.0729
13726TIP3   OH262668   0.756   6.473   6.718 -0.5689 -1.3716  0.1828
13726TIP3    H162669   0.729   6.382   6.726 -0.1774 -1.6320 -1.2259
13726TIP3    H262670   0.851   6.469   6.704  0.0037 -0.5527  3.3974
13727TIP3   OH262671   0.207   2.840  11.818  0.2704  0.2596  0.2389
13727TIP3    H162672   0.193   2.835  11.913  0.2109  0.6529  0.2520
13727TIP3    H262673   0.207   2.933  11.799  1.1474  0.2164 -0.0217
13728TIP3   OH262674   1.615   2.128   5.104 -0.0887  0.5615  0.1157
13728TIP3    H162675   1.556   2.126   5.028  1.1778  1.9995 -0.9117
13728TIP3    H262676   1.634   2.035   5.120 -0.7711  0.2077 -0.9918
13729TIP3   OH262677   2.903   5.757   0.434 -0.2796  0.1832 -0.3269
13729TIP3    H162678   2.946   5.814   0.370 -0.4290 -0.8005 -1.3274
13729TIP3    H262679   2.933   5.789   0.519  1.4565  0.2841 -0.9621
13730TIP3   OH262680   2.978   6.030   5.982  0.1245 -0.2547 -0.5179
13730TIP3    H162681   2.890   6.003   5.954 -1.0393  2.0852  0.6666
13730TIP3    H262682   2.984   6.003   6.073  0.0364  0.8587 -0.1655
13731TIP3   OH262683   2.701   2.291   3.627 -0.5176  0.1655  0.2819
13731TIP3    H162684   2.666   2.206   3.599 -0.6927 -0.4629  2.3225
13731TIP3    H262685   2.789   2.293   3.590 -1.5837  0.4403 -2.3391
13732TIP3   OH262686   5.770   4.334   1.115  0.2742  0.0916  0.5425
13732TIP3    H162687   5.850   4.368   1.075  1.1664 -1.3786  1.0512
13732TIP3    H262688   5.757   4.389   1.193  1.5711 -0.5412  1.2187
13733TIP3   OH262689   1.961   3.266   1.303 -0.5606  0.1623 -0.1680
13733TIP3    H162690   2.036   3.289   1.359 -0.6390  1.2789 -0.5079
13733TIP3    H262691   1.987   3.184   1.261  0.4641  0.5135 -0.2440
13734TIP3   OH262692   6.046   6.684  13.860  0.4341 -0.1998  0.2382
13734TIP3    H162693   6.119   6.628  13.833  0.2497 -1.2373  1.8063
13734TIP3    H262694   6.009   6.639  13.936 -0.8541  1.1401  0.4137
13735TIP3   OH262695   6.437   5.954   6.346 -0.4843  0.7386  0.1566
13735TIP3    H162696   6.465   5.943   6.437 -1.3965  0.5816  0.4245
13735TIP3    H262697   6.385   5.876   6.327  0.3204  0.4214 -0.7409
13736TIP3   OH262698   3.144   2.753   3.997  0.5204 -0.2330 -0.2853
13736TIP3    H162699   3.072   2.698   3.967 -0.0146 -0.8709  2.0773
13736TIP3    H262700   3.217   2.693   4.010  1.9017  0.5772 -3.8008
13737TIP3   OH262701   0.543   3.543  11.017 -0.2640  0.2143  1.0463
13737TIP3    H162702   0.513   3.630  11.042  0.1530 -0.5396  4.4743
13737TIP3    H262703   0.476   3.484  11.052 -0.2622 -0.9023 -0.7589
13738TIP3   OH262704   2.249   2.733  17.183 -0.0993  0.2283 -0.1599
13738TIP3    H162705   2.258   2.772  17.269  0.1302  0.4797 -0.3006
13738TIP3    H262706   2.292   2.794  17.124 -1.0630  0.5157 -0.5790
13739TIP3   OH262707   3.495   6.593  17.213  0.2123 -0.3494 -0.0199
13739TIP3    H162708   3.414   6.606  17.262 -0.0623 -1.2301 -0.2227
13739TIP3    H262709   3.470   6.535  17.141  0.3563  1.8259 -1.8574
13740TIP3   OH262710   1.159   2.717   5.931 -0.1519 -0.1071 -0.0104
13740TIP3    H162711   1.191   2.769   5.858  0.2909 -0.4060 -0.0340
13740TIP3    H262712   1.128   2.635   5.891  1.0761 -0.7090  0.2413
13741TIP3   OH262713   5.363   6.242   1.654  0.4077 -0.2139 -0.5481
13741TIP3    H162714   5.343   6.188   1.577 -1.2708 -0.7808  0.2561
13741TIP3    H262715   5.458   6.245   1.658  0.5287  0.6937 -3.2582
13742TIP3   OH262716   3.126   3.334  14.739  0.3076  0.0661 -1.1085
13742TIP3    H162717   3.164   3.327  14.827  1.3527 -0.1836 -1.5739
13742TIP3    H262718   3.113   3.428  14.726  1.0488  0.1712 -1.0698
13743TIP3   OH262719   5.098   1.727   0.073 -0.5319  0.4482 -0.5794
13743TIP3    H162720   5.098   1.814   0.033 -0.0114  0.0230 -1.5155
13743TIP3    H262721   5.009   1.716   0.107 -0.6653  1.2531 -0.6669
13744TIP3   OH262722   5.339   6.185  14.787  0.1285  0.1748  0.0034
13744TIP3    H162723   5.321   6.267  14.741  0.0689  1.4735  2.2774
13744TIP3    H262724   5.434   6.177  14.786  0.2238  1.0373  1.0264
13745TIP3   OH262725   0.651   4.912  13.834  0.5053  0.1655 -0.6144
13745TIP3    H162726   0.568   4.923  13.880  0.7801 -1.5488  0.3308
13745TIP3    H262727   0.632   4.845  13.768  0.7795  0.7902 -1.3332
13746TIP3   OH262728   3.658   2.044  11.264  1.0703  0.2454  0.4865
13746TIP3    H162729   3.679   1.954  11.289  0.7921  0.2163  0.6204
13746TIP3    H262730   3.708   2.099  11.324  0.3628  0.1759  1.1386
13747TIP3   OH262731   5.721   4.563   2.833  0.5360 -0.4784 -0.0521
13747TIP3    H162732   5.764   4.480   2.812  0.7921 -0.6011  0.9325
13747TIP3    H262733   5.685   4.593   2.749 -0.5278 -2.1396 -0.2314
13748TIP3   OH262734   1.476   2.992  11.596  0.4603 -0.2068  0.3587
13748TIP3    H162735   1.430   3.059  11.545  0.2440 -1.2975 -0.8870
13748TIP3    H262736   1.565   3.026  11.606  0.4704  0.0674 -0.6392
13749TIP3   OH262737   2.916   5.992   3.855 -0.7914  0.5010  0.5619
13749TIP3    H162738   2.953   6.010   3.941  1.0700  1.6098 -0.4424
13749TIP3    H262739   2.948   6.064   3.800 -0.6164 -1.0749 -1.4321
13750TIP3   OH262740   2.545   2.970  11.619  0.6677  0.4550 -0.3050
13750TIP3    H162741   2.491   2.937  11.547  1.2960  1.8111 -1.4298
13750TIP3    H262742   2.611   2.902  11.632 -0.6498 -0.7091  0.3416
13751TIP3   OH262743   1.534   0.466  13.179  0.0520 -0.2086 -0.1233
13751TIP3    H162744   1.523   0.486  13.272 -0.7749  0.1777 -0.2997
13751TIP3    H262745   1.543   0.371  13.175 -1.5774 -0.3858  0.2001
13752TIP3   OH262746   4.903   2.067  13.352 -0.0926  0.3344 -0.5106
13752TIP3    H162747   4.984   2.035  13.390  0.3462 -1.0762 -2.5259
13752TIP3    H262748   4.924   2.085  13.260 -1.4124  2.4384 -0.4397
13753TIP3   OH262749   5.763   0.076   4.124 -0.3761 -0.2151 -0.0791
13753TIP3    H162750   5.672   0.069   4.098 -0.8896 -0.5355  1.7080
13753TIP3    H262751   5.792   0.160   4.089 -0.5702 -1.2761 -2.9015
13754TIP3   OH262752   3.177   3.146   5.587 -0.7580 -0.5329  0.6357
13754TIP3    H162753   3.199   3.084   5.656  0.0274  1.1744  1.9441
13754TIP3    H262754   3.260   3.164   5.542 -0.7179  0.6168  1.1508
13755TIP3   OH262755   4.696   4.808  11.673 -0.1349  0.3382 -0.0436
13755TIP3    H162756   4.651   4.789  11.756 -0.9725 -0.8479 -0.7558
13755TIP3    H262757   4.789   4.808  11.696 -0.3732  0.3583  0.9694
13756TIP3   OH262758   0.108   1.984  16.635  0.5187  0.1128  0.0614
13756TIP3    H162759   0.131   2.067  16.591  2.2551  0.6256  1.8517
13756TIP3    H262760   0.048   2.009  16.704  1.9674  0.0787  1.3648
13757TIP3   OH262761   0.044   4.846  12.873  0.2200  0.7850  0.5074
13757TIP3    H162762   0.045   4.921  12.813  3.1882  1.0026  0.7557
13757TIP3    H262763  -0.005   4.779  12.826 -1.0548  2.3170 -0.4147
13758TIP3   OH262764   3.632   0.334   2.154  0.6150 -0.1238  0.4766
13758TIP3    H162765   3.654   0.253   2.199  2.6965  0.0347 -0.1823
13758TIP3    H262766   3.691   0.399   2.192  0.4803  0.5977 -0.5281
13759TIP3   OH262767   2.756   3.152   5.398 -0.2154  0.1994 -0.1186
13759TIP3    H162768   2.838   3.114   5.364 -0.5986  1.4211 -2.5375
13759TIP3    H262769   2.705   3.076   5.426  1.1263 -0.6847  0.0304
13760TIP3   OH262770   6.524   6.356  11.902 -0.2213  0.6358  0.8523
13760TIP3    H162771   6.616   6.364  11.875 -0.2437  0.9602  0.8768
13760TIP3    H262772   6.526   6.368  11.997 -0.4095  1.5691  0.7376
13761TIP3   OH262773   2.367   0.246   0.974 -0.4676  0.0486 -0.5381
13761TIP3    H162774   2.308   0.218   0.904  1.8116 -1.3899 -1.9983
13761TIP3    H262775   2.379   0.340   0.959 -0.4244 -0.1405 -1.7967
13762TIP3   OH262776   6.530   1.286   6.347 -0.5960 -0.3552 -0.0504
13762TIP3    H162777   6.601   1.287   6.412 -0.1315 -0.4315 -0.5575
13762TIP3    H262778   6.499   1.376   6.345  0.0219 -0.1432 -0.4083
13763TIP3   OH262779   4.333   5.644  15.010 -0.3037  0.2964  0.2592
13763TIP3    H162780   4.244   5.625  15.041 -0.5833 -0.3100 -0.8957
13763TIP3    H262781   4.372   5.558  14.995  0.5709  0.5582  0.9646
13764TIP3   OH262782   0.756   6.692  11.770  0.5888 -0.3208  0.0348
13764TIP3    H162783   0.665   6.718  11.786  0.3340 -1.3691  0.3115
13764TIP3    H262784   0.749   6.617  11.711  1.2688 -0.4719  0.1468
13765TIP3   OH262785   3.561   2.728   2.963 -0.0915 -0.0551 -0.2031
13765TIP3    H162786   3.516   2.791   3.019  1.8251  0.5578  0.6869
13765TIP3    H262787   3.563   2.769   2.877  2.0300  1.5655  0.5984
13766TIP3   OH262788   1.028   2.533  14.075  0.0724  0.0134  0.0195
13766TIP3    H162789   1.006   2.559  14.165 -4.3404 -1.6412 -0.4332
13766TIP3    H262790   0.985   2.599  14.021 -0.2531 -0.9453 -0.8992
13767TIP3   OH262791   2.877   6.601  13.537 -0.3777  0.3432  0.1189
13767TIP3    H162792   2.969   6.619  13.557 -0.1973  0.2279 -0.5869
13767TIP3    H262793   2.831   6.613  13.620  0.3461 -0.0778  0.5797
13768TIP3   OH262794   2.732   5.857  11.273  0.1361  0.2374  0.0223
13768TIP3    H162795   2.720   5.791  11.341  2.1243  1.3544  1.5088
13768TIP3    H262796   2.644   5.876  11.242 -0.4934 -2.9900 -0.3443
13769TIP3   OH262797   2.748   5.794   2.400 -0.1593 -0.4911  0.2827
13769TIP3    H162798   2.741   5.772   2.493 -0.2545 -1.3627  0.0720
13769TIP3    H262799   2.842   5.808   2.386 -0.3134  1.1809  0.8511
13770TIP3   OH262800   6.339   5.673  12.746  0.2558  0.1823  0.0014
13770TIP3    H162801   6.416   5.698  12.693  1.1289  1.5176  1.8542
13770TIP3    H262802   6.276   5.743  12.730  0.9265  1.1646  1.5151
13771TIP3   OH262803   4.619   5.018  14.904 -0.4986 -0.3700 -0.2051
13771TIP3    H162804   4.664   5.036  14.821 -1.3247  0.2357 -0.5350
13771TIP3    H262805   4.687   5.024  14.970  0.0525 -0.2236 -0.7857
13772TIP3   OH262806   2.742   4.773   4.746  0.5561  0.0108  0.1117
13772TIP3    H162807   2.819   4.746   4.696 -0.0148 -1.2972 -0.0903
13772TIP3    H262808   2.676   4.707   4.725 -0.5835  1.0404  0.3861
13773TIP3   OH262809   1.568   5.071   3.614 -0.3448  0.0386  0.3775
13773TIP3    H162810   1.483   5.068   3.657  0.4475  1.5391  2.1086
13773TIP3    H262811   1.623   5.012   3.666 -0.0330 -0.0364 -0.0372
13774TIP3   OH262812   4.270   2.582   1.430  0.4292 -0.0255  0.3628
13774TIP3    H162813   4.207   2.646   1.398 -0.9884 -0.3242  2.4716
13774TIP3    H262814   4.292   2.613   1.518  2.2423 -0.6453  0.1383
13775TIP3   OH262815   6.240   3.264  16.222  0.0810  0.0081 -0.3482
13775TIP3    H162816   6.171   3.212  16.264 -2.3132  1.2480 -2.6278
13775TIP3    H262817   6.279   3.204  16.158 -1.5136  0.4561 -1.7655
13776TIP3   OH262818   0.990   2.472  12.826  0.9367 -0.2081  0.0315
13776TIP3    H162819   1.020   2.525  12.752 -0.5455  0.5268 -0.0683
13776TIP3    H262820   0.895   2.464  12.813  0.9797 -1.9547  0.6543
13777TIP3   OH262821   1.723   6.481   0.779 -0.1195  0.3647 -0.1054
13777TIP3    H162822   1.762   6.400   0.812 -0.4069 -0.2029 -1.1310
13777TIP3    H262823   1.771   6.551   0.824  0.2399 -0.3702  0.6691
13778TIP3   OH262824   2.710   4.440   0.145  0.0363 -0.2750 -0.1285
13778TIP3    H162825   2.778   4.404   0.088 -2.1210 -1.5641 -1.9901
13778TIP3    H262826   2.682   4.367   0.199  0.4444  0.3638  0.9592
13779TIP3   OH262827   5.285   4.228   3.136  0.3352 -0.3381  0.0368
13779TIP3    H162828   5.362   4.174   3.153  0.4741 -0.4612 -0.9424
13779TIP3    H262829   5.301   4.266   3.049 -1.3078 -1.4310 -0.7677
13780TIP3   OH262830   2.314   5.495  15.106  0.2672  0.1205 -0.1675
13780TIP3    H162831   2.306   5.571  15.048  0.4860 -0.0595 -0.4359
13780TIP3    H262832   2.341   5.423  15.048 -0.2618 -0.2394  0.0310
13781TIP3   OH262833   0.833   3.621   2.671 -0.3595 -0.4566  0.5379
13781TIP3    H162834   0.779   3.606   2.593  1.2468 -0.7043 -0.5500
13781TIP3    H262835   0.874   3.706   2.655 -1.6774  0.5021  2.1087
13782TIP3   OH262836   1.323   2.075  12.035  0.7681  0.1391 -0.2197
13782TIP3    H162837   1.282   2.082  11.949 -0.0830 -0.6063  0.1275
13782TIP3    H262838   1.334   2.166  12.064  0.8572  0.3814 -1.0158
13783TIP3   OH262839   6.480   5.687  15.629 -0.4118  0.0385  0.1241
13783TIP3    H162840   6.496   5.704  15.536  0.1297 -2.0748 -0.2064
13783TIP3    H262841   6.409   5.622  15.630 -1.5477  1.2711  1.2512
13784TIP3   OH262842   3.893   1.269  15.346 -0.6607 -0.6362 -0.2647
13784TIP3    H162843   3.852   1.182  15.349 -2.4930  0.1636 -1.5765
13784TIP3    H262844   3.894   1.292  15.253  0.3135  0.5113  0.0227
13785TIP3   OH262845   6.371   2.603   3.879  0.1476 -0.2025  0.2040
13785TIP3    H162846   6.298   2.657   3.909 -0.7292 -0.6725 -1.0189
13785TIP3    H262847   6.440   2.666   3.857  0.0649  0.2500  1.2559
13786TIP3   OH262848   4.534   3.965   0.318  0.2610  0.3336 -0.3005
13786TIP3    H162849   4.468   3.944   0.383  0.0454 -0.2690 -0.7071
13786TIP3    H262850   4.507   4.050   0.283  1.4283  1.5670  1.7256
13787TIP3   OH262851   4.924   1.456  16.775 -0.0881  0.4533 -0.0336
13787TIP3    H162852   4.995   1.492  16.828  1.3156 -1.7885 -0.2882
13787TIP3    H262853   4.940   1.490  16.687  1.0353 -0.4780 -0.2070
13788TIP3   OH262854   5.097   0.232   5.341 -0.0205  0.1507 -0.0005
13788TIP3    H162855   5.044   0.251   5.418  1.0587  1.9023  0.3178
13788TIP3    H262856   5.188   0.234   5.373  0.3816 -0.2083 -1.0960
13789TIP3   OH262857   3.886   2.678   0.873 -0.3053 -0.9198 -0.2376
13789TIP3    H162858   3.815   2.636   0.824 -0.0194 -0.9808 -0.6033
13789TIP3    H262859   3.868   2.771   0.866 -2.3912 -1.0247  2.7519
13790TIP3   OH262860   3.973   2.265  13.734  0.2254 -0.1250  0.0186
13790TIP3    H162861   4.022   2.202  13.787  0.2688 -0.4631 -0.4276
13790TIP3    H262862   4.040   2.317  13.690  0.1900  0.2333  0.3798
13791TIP3   OH262863   0.798   2.276  11.349 -0.4199 -0.6872  0.0935
13791TIP3    H162864   0.879   2.273  11.401 -0.3106 -1.1166 -0.1048
13791TIP3    H262865   0.763   2.364  11.365  0.6265 -0.1277 -0.6383
13792TIP3   OH262866   2.250   0.035  13.397  0.8039  0.2056 -0.1999
13792TIP3    H162867   2.294   0.018  13.314  0.3189  1.0868 -0.6482
13792TIP3    H262868   2.321   0.038  13.461  1.4304  1.7921 -0.9403
13793TIP3   OH262869   5.461   4.975  11.976 -0.5147 -0.3255 -0.2977
13793TIP3    H162870   5.515   4.944  12.050 -0.9159 -0.2006  0.0509
13793TIP3    H262871   5.371   4.953  12.001 -0.5419 -1.3617 -1.3004
13794TIP3   OH262872   3.580   4.813   3.900 -1.0002  0.1912 -0.9171
13794TIP3    H162873   3.509   4.833   3.961 -1.5421  0.5633 -1.6632
13794TIP3    H262874   3.646   4.881   3.915 -0.5514 -0.4640  0.1555
13795TIP3   OH262875   4.902   2.186  16.968 -0.3072  0.4331 -0.4785
13795TIP3    H162876   4.819   2.166  16.924 -0.5451  1.4257 -0.5037
13795TIP3    H262877   4.969   2.154  16.907 -0.6580 -2.5492  0.6078
13796TIP3   OH262878   2.233   0.822  15.326  0.4363  0.4009 -0.0432
13796TIP3    H162879   2.247   0.738  15.369  1.4059  0.5983  0.0500
13796TIP3    H262880   2.199   0.801  15.239  0.2674 -0.0659  0.1359
13797TIP3   OH262881   2.333   4.906  13.837  0.3591 -0.2366 -0.1729
13797TIP3    H162882   2.274   4.979  13.852 -1.6197 -1.5007 -1.6866
13797TIP3    H262883   2.370   4.921  13.751  0.1697 -0.8588 -0.3690
13798TIP3   OH262884   1.494   5.507   0.503  0.7466 -0.4020 -0.1063
13798TIP3    H162885   1.586   5.527   0.525  0.6992  0.4957 -0.6783
13798TIP3    H262886   1.444   5.553   0.571  0.7822 -3.8088  2.3524
13799TIP3   OH262887   4.883   3.955   0.987  0.3431 -0.5170 -0.3704
13799TIP3    H162888   4.833   4.024   1.029 -2.4941 -1.4916 -1.9887
13799TIP3    H262889   4.923   3.997   0.911  1.4106  0.0868  0.5054
13800TIP3   OH262890   3.326   1.787  13.715  0.0364  0.1980  0.2925
13800TIP3    H162891   3.309   1.695  13.733  1.5455 -0.1167  0.2237
13800TIP3    H262892   3.320   1.831  13.800 -0.6242  0.0236  0.3339
13801TIP3   OH262893   1.160   1.825   6.075 -0.0870  0.1379  0.4902
13801TIP3    H162894   1.252   1.843   6.092 -0.2720  0.8806  0.7418
13801TIP3    H262895   1.132   1.771   6.149  0.1146  0.0174  0.4793
13802TIP3   OH262896   3.059   5.112  12.340  0.5987  0.4329  0.3563
13802TIP3    H162897   3.143   5.144  12.374  1.3164 -2.1759  1.1274
13802TIP3    H262898   3.083   5.038  12.284 -1.1453  0.1387 -0.0124
13803TIP3   OH262899   0.787   3.922   3.301 -0.1759 -0.1513 -0.4561
13803TIP3    H162900   0.817   3.848   3.353  4.0371  0.4480 -1.8491
13803TIP3    H262901   0.711   3.889   3.253  0.1115 -2.7959  0.8310
13804TIP3   OH262902   4.361   0.143  12.642 -0.0702  0.3658 -0.4253
13804TIP3    H162903   4.442   0.171  12.600  0.0397  0.3020 -0.2580
13804TIP3    H262904   4.354   0.199  12.720 -0.1682  0.3469 -0.4212
13805TIP3   OH262905   4.526   1.507   0.481  0.0692  0.2621 -0.4184
13805TIP3    H162906   4.605   1.561   0.492  0.5605 -0.4288 -0.4810
13805TIP3    H262907   4.507   1.475   0.569  1.4294 -1.7188 -0.8040
13806TIP3   OH262908   5.643   4.336  15.573 -0.2668 -0.0812 -0.3101
13806TIP3    H162909   5.597   4.281  15.509 -1.7739  1.5459 -0.6633
13806TIP3    H262910   5.691   4.399  15.519  0.8128 -0.5260  0.1119
13807TIP3   OH262911   3.100   4.376   2.071  0.2159 -0.4297  0.0252
13807TIP3    H162912   3.023   4.424   2.039  1.3590 -0.0419 -2.2160
13807TIP3    H262913   3.064   4.315   2.135 -2.2683 -1.5537 -2.3163
13808TIP3   OH262914   5.685   4.406  10.792 -0.2581 -0.0846 -0.1319
13808TIP3    H162915   5.777   4.422  10.815  0.0031  0.4612 -1.4909
13808TIP3    H262916   5.656   4.339  10.854  1.0090 -0.1558  0.4019
13809TIP3   OH262917   2.161   3.929  13.007 -0.4121  0.3645 -0.4709
13809TIP3    H162918   2.071   3.920  13.039 -0.3284 -0.3573 -0.4276
13809TIP3    H262919   2.192   4.011  13.045 -0.7264  0.1224  0.3069
13810TIP3   OH262920   5.652   3.567   2.022 -0.2889 -0.5231 -0.2872
13810TIP3    H162921   5.581   3.566   2.085 -0.4298  2.4012 -0.3646
13810TIP3    H262922   5.622   3.626   1.953  2.2322  0.8311 -0.2686
13811TIP3   OH262923   0.559   3.273   1.849  0.1272 -0.2920 -0.1773
13811TIP3    H162924   0.603   3.207   1.903  1.2498 -1.1969 -2.1676
13811TIP3    H262925   0.630   3.319   1.805 -0.6253  2.4580  1.3483
13812TIP3   OH262926   1.537   5.795   2.615 -0.7229 -0.0913 -0.1039
13812TIP3    H162927   1.524   5.701   2.624 -0.7797 -0.1315 -0.5914
13812TIP3    H262928   1.532   5.811   2.521 -1.4122  0.5013  0.0279
13813TIP3   OH262929   1.323   3.645   3.342 -0.5026  0.4411 -0.5635
13813TIP3    H162930   1.413   3.628   3.369 -0.3725 -1.5520 -2.1392
13813TIP3    H262931   1.331   3.669   3.249 -1.5104  1.0088 -0.5013
13814TIP3   OH262932   2.902   5.516   6.668 -0.1114  0.0246  0.5371
13814TIP3    H162933   2.990   5.552   6.661  0.2968 -0.6376  2.0590
13814TIP3    H262934   2.885   5.477   6.582  2.0547 -2.0606  1.0036
13815TIP3   OH262935   2.173   5.483   1.034 -0.4556  0.1739 -0.4034
13815TIP3    H162936   2.234   5.453   1.102 -1.1134 -0.3581 -0.0390
13815TIP3    H262937   2.229   5.524   0.968  0.4302 -1.4873 -0.7098
13816TIP3   OH262938   2.142   4.198   0.515 -0.0779  0.1192  0.2828
13816TIP3    H162939   2.213   4.135   0.530  0.2757  0.3250 -0.4775
13816TIP3    H262940   2.114   4.181   0.425  1.0412  2.0465 -0.4652
13817TIP3   OH262941   4.236   5.274   6.453 -0.4661  0.4051  0.8003
13817TIP3    H162942   4.230   5.287   6.548  1.1935 -0.1381  0.9866
13817TIP3    H262943   4.253   5.181   6.442  1.5179  0.8278  0.0812
13818TIP3   OH262944   1.430   5.207   2.672 -0.6039  0.7724  0.5586
13818TIP3    H162945   1.388   5.121   2.666 -1.6187  1.0580  3.0776
13818TIP3    H262946   1.515   5.189   2.712  0.4781  0.5912 -1.7271
13819TIP3   OH262947   1.974   4.744  15.193 -0.0218 -0.4629 -0.0680
13819TIP3    H162948   1.990   4.785  15.277  2.4535 -0.8108 -0.3333
13819TIP3    H262949   2.016   4.658  15.199 -2.1256 -1.5722 -0.7332
13820TIP3   OH262950   5.678   1.701   5.420  0.1669  0.0775 -0.2969
13820TIP3    H162951   5.606   1.639   5.435 -1.2185  1.5316 -0.7587
13820TIP3    H262952   5.639   1.787   5.437  2.2447  0.7917  1.0095
13821TIP3   OH262953   3.018   4.202   2.902  0.3109  0.0859  0.3183
13821TIP3    H162954   2.992   4.292   2.924  1.3199  0.8219 -1.3700
13821TIP3    H262955   3.113   4.206   2.892  0.7797 -1.8968  3.3628
13822TIP3   OH262956   1.582   5.191  13.137 -0.1667 -0.1869 -0.6705
13822TIP3    H162957   1.617   5.117  13.086  1.0057 -0.4329  0.4819
13822TIP3    H262958   1.488   5.189  13.119 -0.1488 -1.9508 -0.6955
13823TIP3   OH262959   2.328   2.039  12.914 -0.3873  0.5065  0.1046
13823TIP3    H162960   2.327   2.003  12.826  0.9874 -2.0706  1.0939
13823TIP3    H262961   2.356   2.130  12.903 -1.6156  0.6349 -2.2189
13824TIP3   OH262962   4.495   0.002  13.890 -0.2764 -0.1503  0.7936
13824TIP3    H162963   4.414   0.047  13.866 -0.4665 -0.4431  0.8813
13824TIP3    H262964   4.493  -0.002  13.986  0.2754  0.6374  0.8373
13825TIP3   OH262965   0.636   4.018  15.548 -0.3526 -0.2869  0.4185
13825TIP3    H162966   0.586   4.034  15.628 -0.0393  3.1110 -0.0096
13825TIP3    H262967   0.719   4.064  15.562  1.9828 -4.2038  0.3188
13826TIP3   OH262968   4.304   3.473   3.676  0.3563 -0.8566 -0.2955
13826TIP3    H162969   4.357   3.438   3.605  0.6176 -2.8845  0.8492
13826TIP3    H262970   4.216   3.439   3.659 -0.2047  1.0519 -1.2323
13827TIP3   OH262971   1.246   5.039   1.475  0.3006  1.1102 -0.7012
13827TIP3    H162972   1.186   5.088   1.530 -0.2180  1.0134 -1.1705
13827TIP3    H262973   1.189   4.992   1.414  0.8467  0.9091 -1.0584
13828TIP3   OH262974   6.794   6.430  11.642  0.0734  0.3442  0.0690
13828TIP3    H162975   6.760   6.363  11.701 -0.9208 -0.8482 -1.8022
13828TIP3    H262976   6.717   6.479  11.613  0.4806  0.6116 -0.5897
13829TIP3   OH262977   1.343   0.504   0.547 -0.1941  0.4013  0.3898
13829TIP3    H162978   1.323   0.567   0.478  2.5006  2.9009  1.7719
13829TIP3    H262979   1.280   0.524   0.616  0.7282  1.7039  0.8722
13830TIP3   OH262980   3.522   6.652   2.556 -0.0157 -0.1009 -0.7229
13830TIP3    H162981   3.588   6.669   2.623 -2.0754 -1.9757  1.8696
13830TIP3    H262982   3.569   6.604   2.487  1.7495  0.3283  0.1616
13831TIP3   OH262983   1.464   1.586  12.929  0.6359  0.5716  0.6333
13831TIP3    H162984   1.500   1.674  12.930  1.1136  0.3664  1.6041
13831TIP3    H262985   1.458   1.564  12.836  0.2291  1.7334  0.3770
13832TIP3   OH262986   4.358   2.849  13.434 -0.1779 -0.0787  0.6128
13832TIP3    H162987   4.371   2.794  13.512 -0.0149 -1.0484 -0.0804
13832TIP3    H262988   4.320   2.789  13.369 -1.7352  1.0850  0.4265
13833TIP3   OH262989   4.553   3.009   3.462  0.3376 -0.3559 -0.0710
13833TIP3    H162990   4.517   2.940   3.407  0.7163 -0.5242 -0.1093
13833TIP3    H262991   4.642   3.022   3.430 -0.2952  1.3541 -1.1896
13834TIP3   OH262992   1.453   4.677  16.032 -0.0328 -0.2927  0.3573
13834TIP3    H162993   1.475   4.720  16.114 -0.9767  0.6115  0.1438
13834TIP3    H262994   1.410   4.595  16.058  1.6318 -1.0642  0.7576
13835TIP3   OH262995   5.416   1.451  13.910 -0.0150 -0.4466 -0.0252
13835TIP3    H162996   5.466   1.382  13.953  0.4093  0.3607  0.8033
13835TIP3    H262997   5.399   1.515  13.979  0.0108  0.5008 -0.8813
13836TIP3   OH262998   2.506   4.436   0.684 -0.2306 -0.7765  0.5768
13836TIP3    H162999   2.442   4.482   0.738  0.5840 -0.6786  1.4898
13836TIP3    H263000   2.578   4.499   0.674 -0.6581 -0.5585 -1.1758
13837TIP3   OH263001   0.598   0.798  11.203  0.3962  0.4226  1.1078
13837TIP3    H163002   0.601   0.827  11.112  2.0517 -0.8383  0.7252
13837TIP3    H263003   0.545   0.719  11.202 -1.3798  1.5901  1.6072
13838TIP3   OH263004   1.732   3.519   4.728  0.0304  0.5551  0.0581
13838TIP3    H163005   1.733   3.458   4.654 -0.6741 -0.9074  1.2340
13838TIP3    H263006   1.656   3.574   4.712  0.1920  0.6019 -0.5848
13839TIP3   OH263007   5.051   2.862   2.412 -0.5076  0.1284 -0.3696
13839TIP3    H163008   4.994   2.872   2.336 -0.0237 -0.3546 -0.8097
13839TIP3    H263009   5.005   2.802   2.470 -0.5259 -0.1364 -0.6539
13840TIP3   OH263010   4.710   1.256   6.206  0.7797  0.2555 -0.1943
13840TIP3    H163011   4.627   1.293   6.175  0.8106  0.9703  0.5371
13840TIP3    H263012   4.706   1.266   6.301  1.0340 -1.1625 -0.0262
13841TIP3   OH263013   0.193   3.387  11.623  0.0898  0.6363 -0.1373
13841TIP3    H163014   0.262   3.452  11.634 -0.4606  1.8178 -3.0692
13841TIP3    H263015   0.113   3.433  11.650 -0.1704  0.9222 -1.3365
13842TIP3   OH263016   5.376   5.814   1.748 -0.6568  0.1572 -0.0964
13842TIP3    H163017   5.453   5.854   1.707  0.2875 -2.2283 -0.7476
13842TIP3    H263018   5.405   5.726   1.771 -2.5451 -0.0226  1.6773
13843TIP3   OH263019   0.197   1.094   1.003 -0.2585 -0.4204 -0.5862
13843TIP3    H163020   0.220   1.002   1.015  4.1143  0.9567  2.6496
13843TIP3    H263021   0.143   1.115   1.080 -0.8206 -0.1013 -1.0601
13844TIP3   OH263022   6.285   1.015   2.336 -0.6035 -0.2896 -0.2668
13844TIP3    H163023   6.267   1.058   2.419 -2.2145  0.0690 -0.7983
13844TIP3    H263024   6.204   1.022   2.286  0.3041 -0.6056 -1.8348
13845TIP3   OH263025   1.457   6.601   5.983 -0.0158  0.2150 -0.2763
13845TIP3    H163026   1.537   6.651   6.002  0.7244 -1.7935  2.1490
13845TIP3    H263027   1.396   6.628   6.051 -0.6775  0.0980 -0.8199
13846TIP3   OH263028   3.324   5.468   2.888 -0.1375  0.0145  0.8427
13846TIP3    H163029   3.370   5.552   2.892 -1.9179  1.0654 -0.4634
13846TIP3    H263030   3.361   5.424   2.812 -3.1704  2.0223 -1.8731
13847TIP3   OH263031   2.355   4.780  15.299 -0.1700  0.0822 -0.1248
13847TIP3    H163032   2.281   4.754  15.243 -1.0809  0.4305  0.9096
13847TIP3    H263033   2.318   4.844  15.359  0.1992 -2.0709  2.5002
13848TIP3   OH263034   5.910   0.447   2.655  0.2758 -0.2546 -0.0045
13848TIP3    H163035   5.935   0.371   2.708  0.2170  0.2377  0.7449
13848TIP3    H263036   5.863   0.410   2.580  1.8060 -1.0692 -0.5848
13849TIP3   OH263037   6.781   3.704  16.923 -0.3658  0.2211 -0.9719
13849TIP3    H163038   6.827   3.666  16.848 -0.2997 -1.7844  0.0678
13849TIP3    H263039   6.689   3.690  16.905 -0.5607  2.6987 -2.2144
13850TIP3   OH263040   2.402   5.477  14.673 -0.1905 -0.0147  0.2697
13850TIP3    H163041   2.396   5.467  14.578  1.1016 -0.4104  0.2286
13850TIP3    H263042   2.483   5.526  14.688 -0.1207 -0.3913  1.1951
13851TIP3   OH263043   3.367   2.055   1.697 -0.4409 -0.5159  0.2511
13851TIP3    H163044   3.391   1.994   1.627 -0.5545 -2.0005  1.4809
13851TIP3    H263045   3.400   2.140   1.667  0.2024 -1.2679 -1.2376
13852TIP3   OH263046   5.024   2.478   0.201 -0.1722 -0.5019  0.0497
13852TIP3    H163047   5.029   2.473   0.297 -1.3805 -0.0194  0.1365
13852TIP3    H263048   5.074   2.402   0.172 -0.3761 -1.0501  1.0764
13853TIP3   OH263049   4.444   2.479  17.180 -0.4047 -0.4057 -0.0829
13853TIP3    H163050   4.363   2.482  17.231  0.8733 -0.8331  2.0442
13853TIP3    H263051   4.489   2.400  17.211 -0.1179 -1.3339 -2.7380
13854TIP3   OH263052   5.341   0.929  14.444 -0.0204  0.1804 -0.1602
13854TIP3    H163053   5.422   0.907  14.489 -0.2307  0.2066  0.2339
13854TIP3    H263054   5.361   0.919  14.351  0.3067 -0.2488 -0.0433
13855TIP3   OH263055   1.599   6.324  13.429 -0.1351  0.6204 -0.3416
13855TIP3    H163056   1.565   6.253  13.374 -0.4694  2.2036 -2.2211
13855TIP3    H263057   1.685   6.344  13.392  0.1696  0.8734  0.4963
13856TIP3   OH263058   4.638   4.546   1.007 -0.6169  0.3310  0.1934
13856TIP3    H163059   4.629   4.512   0.918 -0.1741 -0.9924  0.6384
13856TIP3    H263060   4.549   4.548   1.041 -0.7370  0.4057 -0.1225
13857TIP3   OH263061   1.213   6.234   2.072 -0.1774  0.1180 -0.2255
13857TIP3    H163062   1.183   6.170   2.008  0.3112  1.5969 -1.9822
13857TIP3    H263063   1.192   6.195   2.157 -2.0998 -1.2692 -1.2958
13858TIP3   OH263064   0.318   4.984   3.327  0.0488  0.2726  0.3517
13858TIP3    H163065   0.336   4.934   3.407 -0.1396 -0.5263 -0.1043
13858TIP3    H263066   0.374   4.944   3.260 -0.9455 -0.0623 -0.2821
13859TIP3   OH263067   3.732   5.054  11.819 -0.5111  0.6219  0.0700
13859TIP3    H163068   3.700   5.099  11.897 -1.4915 -0.1934  0.1478
13859TIP3    H263069   3.720   4.961  11.838 -0.7204  0.4156 -1.0435
13860TIP3   OH263070   3.658   5.548   3.369  0.1741  0.3965  0.3829
13860TIP3    H163071   3.577   5.572   3.414  0.1537 -0.9145  1.0606
13860TIP3    H263072   3.677   5.623   3.313 -0.7849  1.2823  1.2186
13861TIP3   OH263073   4.454   0.239   5.416  0.2902  0.0542  0.3092
13861TIP3    H163074   4.479   0.291   5.492  1.6444  0.4671 -0.4077
13861TIP3    H263075   4.536   0.222   5.370 -0.3521 -1.2750 -0.3824
13862TIP3   OH263076   2.472   2.845  13.810 -0.1155 -0.6542 -0.4013
13862TIP3    H163077   2.514   2.886  13.734  0.6242 -1.0019 -0.1899
13862TIP3    H263078   2.517   2.883  13.885  0.1362 -1.3701 -0.1846
13863TIP3   OH263079   2.741   5.679  12.136 -0.1769 -0.2740  0.4552
13863TIP3    H163080   2.656   5.719  12.149 -0.1834 -0.8764  2.5037
13863TIP3    H263081   2.795   5.712  12.209  0.1281 -3.0201  1.5667
13864TIP3   OH263082   1.266   6.371  11.562 -0.2768  0.1470  0.3098
13864TIP3    H163083   1.203   6.302  11.585  0.0111 -0.4904 -0.7922
13864TIP3    H263084   1.213   6.448  11.547 -0.6106  0.1702  1.5034
13865TIP3   OH263085   4.074   3.493   2.260  0.2858 -0.5738  0.1220
13865TIP3    H163086   4.160   3.480   2.219  0.1666 -0.8801 -0.0314
13865TIP3    H263087   4.087   3.567   2.320  0.2602  0.4288 -1.0696
13866TIP3   OH263088   6.437   2.665   4.968 -0.0793 -0.3092  0.7140
13866TIP3    H163089   6.501   2.631   5.030  0.5164 -0.3144  0.1045
13866TIP3    H263090   6.485   2.671   4.885 -0.7461  0.0954  0.3534
13867TIP3   OH263091   3.634   6.177   3.308 -0.3901 -0.3490 -0.1325
13867TIP3    H163092   3.546   6.209   3.291 -1.2659 -1.3823  2.1613
13867TIP3    H263093   3.647   6.108   3.243 -1.4871 -0.5319 -0.1747
13868TIP3   OH263094   0.368   2.989  10.647 -0.0729  0.4823 -0.0090
13868TIP3    H163095   0.362   3.051  10.720  5.0222  1.8116 -0.5659
13868TIP3    H263096   0.401   2.909  10.687 -1.0132 -0.0340 -0.2605
13869TIP3   OH263097   0.732   2.616   0.045  0.1044 -0.1935 -0.4465
13869TIP3    H163098   0.666   2.685   0.059  0.3026  0.0820 -0.8660
13869TIP3    H263099   0.681   2.535   0.039 -0.0325 -0.2618  1.3586
13870TIP3   OH263100   2.258   6.493   6.309  0.1109 -0.6003 -0.1460
13870TIP3    H163101   2.176   6.500   6.358  0.5133 -0.9938  0.5972
13870TIP3    H263102   2.290   6.583   6.303  0.9050 -0.7265  1.8000
13871TIP3   OH263103   2.153   0.793  12.062  0.2597 -0.6896  0.8859
13871TIP3    H163104   2.233   0.752  12.095  0.8985  0.1877  0.4623
13871TIP3    H263105   2.085   0.769  12.125  1.3915  0.7229  2.6792
13872TIP3   OH263106   2.084   5.012   5.635  0.2797  0.1753 -0.2199
13872TIP3    H163107   2.129   5.061   5.704  0.1660 -0.6256  0.4299
13872TIP3    H263108   2.152   4.990   5.572  0.7519 -0.7275  0.5874
13873TIP3   OH263109   1.042   2.523  14.877  0.4066 -0.0446  0.2514
13873TIP3    H163110   1.071   2.433  14.893  1.0044  0.1511  0.2726
13873TIP3    H263111   0.962   2.513  14.825 -0.1988 -0.6170  1.2780
13874TIP3   OH263112   4.535   0.701  15.803  0.0448 -0.5860  0.4035
13874TIP3    H163113   4.594   0.777  15.808  0.9079 -1.3367  2.0018
13874TIP3    H263114   4.467   0.719  15.868  0.8583 -1.6688  1.5776
13875TIP3   OH263115   5.555   4.352  14.856 -0.4877 -0.7283  0.9185
13875TIP3    H163116   5.508   4.270  14.868  1.0745 -1.6884  0.5881
13875TIP3    H263117   5.634   4.343  14.910 -0.0271  0.3135  0.4393
13876TIP3   OH263118   2.555   0.669  12.487 -0.2898  0.4331  0.1637
13876TIP3    H163119   2.461   0.675  12.506 -0.5794  0.3397 -1.1598
13876TIP3    H263120   2.592   0.623  12.562 -1.3691  0.1393  0.5239
13877TIP3   OH263121   2.330   1.215  13.804  0.3182  0.2462 -0.1501
13877TIP3    H163122   2.362   1.250  13.887  0.1174  0.2827 -0.0869
13877TIP3    H263123   2.402   1.163  13.770  0.0450 -0.6112  0.5470
13878TIP3   OH263124   1.944   1.028  15.116  0.5858  0.0134 -0.6237
13878TIP3    H163125   2.010   1.007  15.050  0.9010  0.0465 -0.3158
13878TIP3    H263126   1.969   1.113  15.150  1.0719 -0.5139  0.3507
13879TIP3   OH263127   2.976   1.078   0.357 -0.6387  0.0556 -0.3685
13879TIP3    H163128   3.056   1.114   0.395 -0.2504  0.5451 -1.6255
13879TIP3    H263129   2.991   0.983   0.356  0.4789  0.2295 -1.7882
13880TIP3   OH263130   3.540   1.765  12.102 -0.0484  0.4792  0.0848
13880TIP3    H163131   3.540   1.829  12.031  0.5923 -1.1740 -1.4469
13880TIP3    H263132   3.610   1.704  12.080 -1.0260 -1.0979  1.1967
13881TIP3   OH263133   4.537   6.453  14.867 -0.3434 -0.9572  0.6875
13881TIP3    H163134   4.552   6.514  14.940 -1.8169 -1.7920  1.7233
13881TIP3    H263135   4.497   6.507  14.799 -0.9934 -0.6112  1.3288
13882TIP3   OH263136   0.148   5.332  15.455  0.0907 -0.1585  0.0433
13882TIP3    H163137   0.229   5.288  15.432 -0.5119 -0.1642 -2.2085
13882TIP3    H263138   0.136   5.398  15.387 -1.8962 -0.3227  0.1851
13883TIP3   OH263139   1.877   0.406  16.600 -0.2345  0.2937 -0.1100
13883TIP3    H163140   1.807   0.403  16.666 -0.5984 -0.2741 -0.5208
13883TIP3    H263141   1.939   0.470  16.635 -0.4623  0.0597  0.7554
13884TIP3   OH263142   4.029   1.418  16.358  0.4625 -0.1120  0.6803
13884TIP3    H163143   4.003   1.457  16.441  1.0041  0.9028  0.3772
13884TIP3    H263144   3.993   1.476  16.291 -0.7320 -1.4066  0.1793
13885TIP3   OH263145   6.401   3.548   4.576 -0.3843 -0.0077  0.7695
13885TIP3    H163146   6.338   3.509   4.515 -1.6560  0.0507  2.0089
13885TIP3    H263147   6.363   3.633   4.598 -0.5121 -0.4745  2.4531
13886TIP3   OH263148   4.869   6.221  13.056 -0.1814  0.4872  0.3591
13886TIP3    H163149   4.788   6.201  13.103  0.7864  0.4897  2.0720
13886TIP3    H263150   4.847   6.297  13.002 -1.9775 -0.9787 -1.0380
13887TIP3   OH263151   2.317   3.360   3.355 -0.1380 -0.0623 -0.5976
13887TIP3    H163152   2.405   3.372   3.391  1.2754  0.7538 -4.1556
13887TIP3    H263153   2.318   3.270   3.322 -1.0686 -0.4360  0.3580
13888TIP3   OH263154   0.183   5.713  11.863 -0.4368 -0.5291  0.2987
13888TIP3    H163155   0.226   5.694  11.780  1.9029 -0.3120  1.4047
13888TIP3    H263156   0.210   5.802  11.885 -0.4737 -0.8219  1.6099
13889TIP3   OH263157   2.720   6.451   5.562 -0.3027  0.3517 -0.6272
13889TIP3    H163158   2.654   6.387   5.536  1.1885 -1.3451 -0.3466
13889TIP3    H263159   2.751   6.420   5.648  1.5597  0.5164 -1.2084
13890TIP3   OH263160   1.026   1.467   4.142 -0.9064 -0.6259  0.1831
13890TIP3    H163161   1.074   1.535   4.188  0.6566 -1.5000 -0.1025
13890TIP3    H263162   1.055   1.474   4.051 -0.7005 -1.6785  0.1581
13891TIP3   OH263163   3.628   0.603   2.534 -0.2829 -0.7947  0.0736
13891TIP3    H163164   3.668   0.584   2.449  1.0071 -0.2821  0.5558
13891TIP3    H263165   3.701   0.630   2.590 -1.3242  0.3233  0.9224
13892TIP3   OH263166   5.166   3.244  16.530 -0.2311 -0.0835  0.2823
13892TIP3    H163167   5.101   3.203  16.473 -1.1267  2.7371 -0.7612
13892TIP3    H263168   5.147   3.208  16.617 -1.5138 -1.2399 -0.4468
13893TIP3   OH263169   2.565   5.384   3.460 -0.0849  0.7160  0.1755
13893TIP3    H163170   2.535   5.344   3.378 -0.6579  0.1466  0.6510
13893TIP3    H263171   2.648   5.341   3.479 -1.4306 -1.4298  1.4870
13894TIP3   OH263172   5.422   5.314   4.218 -0.8294 -0.1445  0.4850
13894TIP3    H163173   5.398   5.228   4.182  0.7689 -0.7165  0.7497
13894TIP3    H263174   5.516   5.319   4.206 -0.8828  1.4939  0.6907
13895TIP3   OH263175   3.288   6.466   1.995  0.0095  0.1878  0.0176
13895TIP3    H163176   3.281   6.397   1.928  0.7515  1.3073 -1.2333
13895TIP3    H263177   3.230   6.535   1.965 -0.8939  0.0379  1.3867
13896TIP3   OH263178   5.491   0.970  17.084  0.1825  0.7806  0.9220
13896TIP3    H163179   5.489   1.036  17.154  1.7997  1.6016  0.2159
13896TIP3    H263180   5.433   0.901  17.115  0.1153  1.5741  2.6366
13897TIP3   OH263181   4.777   4.034  12.626  0.0180  0.1607  0.7083
13897TIP3    H163182   4.734   4.119  12.636  0.1752  0.5166 -1.4258
13897TIP3    H263183   4.741   3.980  12.697 -2.7006  0.9371 -0.0445
13898TIP3   OH263184   5.504   1.109  12.909 -0.4837  0.0346 -0.5255
13898TIP3    H163185   5.438   1.071  12.851  0.1208  0.5249 -1.5433
13898TIP3    H263186   5.477   1.082  12.997 -0.8734 -1.5256 -1.1099
13899TIP3   OH263187   0.162   1.411   4.363  0.5767 -0.4870  0.3892
13899TIP3    H163188   0.106   1.479   4.401  0.6614  0.1306 -0.5826
13899TIP3    H263189   0.229   1.395   4.430  0.6669  0.5108  0.5489
13900TIP3   OH263190   2.800   6.352  16.645 -0.1882 -0.2405  0.3792
13900TIP3    H163191   2.793   6.439  16.685 -0.5227 -0.5361  0.9645
13900TIP3    H263192   2.894   6.334  16.643  0.0050  0.8096 -1.2024
13901TIP3   OH263193   6.456   5.308   0.010  0.7172 -0.2862 -0.2970
13901TIP3    H163194   6.402   5.238  -0.029  0.2343 -0.4678  0.6690
13901TIP3    H263195   6.393   5.377   0.030  1.0623  0.0578 -0.4077
13902TIP3   OH263196   1.738   3.615   6.496 -0.1093  0.7039  0.1574
13902TIP3    H163197   1.828   3.641   6.514 -0.5502  1.1799  1.8394
13902TIP3    H263198   1.703   3.591   6.582 -0.5206 -2.9179 -0.9652
13903TIP3   OH263199   4.675   3.649   0.925 -0.4645  0.7483 -0.0254
13903TIP3    H163200   4.758   3.696   0.917 -0.4956  0.7102 -0.5360
13903TIP3    H263201   4.700   3.558   0.938 -0.4414  0.6064 -1.0485
13904TIP3   OH263202   6.513   4.259   5.212  0.5051 -0.1959  0.4678
13904TIP3    H163203   6.546   4.316   5.282  0.9042 -0.2476  0.3218
13904TIP3    H263204   6.423   4.238   5.239  0.4534  0.2682  0.6672
13905TIP3   OH263205   1.833   4.718   6.741 -0.0108 -0.4746 -0.1836
13905TIP3    H163206   1.885   4.679   6.811  0.4650  1.2367  0.4348
13905TIP3    H263207   1.743   4.698   6.765  0.2529 -1.9118 -0.3273
13906TIP3   OH263208   4.532   3.533  12.811  0.1824 -0.3405 -0.2477
13906TIP3    H163209   4.567   3.484  12.885  1.0367  0.8685  0.1811
13906TIP3    H263210   4.456   3.580  12.847  0.7563  0.4536 -0.0592
13907TIP3   OH263211   3.669   0.966   5.340  0.0976 -0.2146 -0.3738
13907TIP3    H163212   3.695   0.942   5.428 -0.4140 -0.1868 -0.2160
13907TIP3    H263213   3.606   0.899   5.314  0.0499 -0.0768 -0.6166
13908TIP3   OH263214   6.438   4.764  15.802 -0.0696 -0.3898 -0.0233
13908TIP3    H163215   6.527   4.774  15.769  0.1274 -0.7636  0.3893
13908TIP3    H263216   6.382   4.803  15.734  0.4403  0.2898 -0.0498
13909TIP3   OH263217   3.679   6.524   6.274 -0.4352 -0.3547  0.1825
13909TIP3    H163218   3.692   6.473   6.193 -1.6280 -0.3859  0.0057
13909TIP3    H263219   3.765   6.562   6.292  0.1281 -1.3002 -0.4563
13910TIP3   OH263220   3.918   2.915   4.699  0.1308  0.0033 -0.3336
13910TIP3    H163221   3.894   3.007   4.702  1.3752  0.2925  2.7356
13910TIP3    H263222   4.007   2.912   4.736  0.7006 -2.2489 -1.7612
13911TIP3   OH263223   1.447   5.357  12.696 -0.0443 -0.2150 -0.1963
13911TIP3    H163224   1.408   5.416  12.761 -0.7533  1.1573 -1.8477
13911TIP3    H263225   1.386   5.284  12.692  0.1051 -0.4108  0.8209
13912TIP3   OH263226   5.065   1.755   1.000 -0.3667  0.1742  0.1413
13912TIP3    H163227   4.973   1.744   0.978  0.1713 -0.9548 -1.6305
13912TIP3    H263228   5.086   1.679   1.055 -0.1251 -0.3649 -0.6892
13913TIP3   OH263229   4.779   6.743   0.076  0.1801 -0.1813  0.2189
13913TIP3    H163230   4.728   6.664   0.094  2.4688 -1.5117  1.0288
13913TIP3    H263231   4.725   6.814   0.112 -0.5008 -1.6753  2.2882
13914TIP3   OH263232   6.394   5.180  10.976  0.3050 -0.2134 -0.1450
13914TIP3    H163233   6.383   5.199  11.069 -0.1067 -1.4418  0.0701
13914TIP3    H263234   6.444   5.254  10.942 -0.8378  0.9835  0.7456
13915TIP3   OH263235   0.658   2.333   1.039 -0.1999 -0.1128 -0.1337
13915TIP3    H163236   0.625   2.342   1.129 -0.3838  1.6194 -0.3582
13915TIP3    H263237   0.753   2.337   1.048 -0.1251 -1.8613  0.1620
13916TIP3   OH263238   2.293   2.598  11.942  0.2973  0.7645  0.8021
13916TIP3    H163239   2.320   2.525  11.999 -0.6098  0.0311  0.3065
13916TIP3    H263240   2.375   2.643  11.922  0.8961 -0.1819  1.0422
13917TIP3   OH263241   0.560   5.466  15.587  0.2463  0.1441 -0.0696
13917TIP3    H163242   0.632   5.488  15.528  0.3164 -0.6162 -0.2759
13917TIP3    H263243   0.560   5.370  15.590 -1.1605  0.1115 -0.5992
13918TIP3   OH263244   4.415   2.254   5.768  0.1007 -0.5203  0.1868
13918TIP3    H163245   4.435   2.181   5.826  0.9880 -1.1949 -0.9508
13918TIP3    H263246   4.439   2.223   5.681  1.0822  1.3407 -0.2396
13919TIP3   OH263247   3.380   4.379  13.686 -0.7871  0.0651  0.1786
13919TIP3    H163248   3.308   4.326  13.718 -1.4862  1.7304  1.4772
13919TIP3    H263249   3.346   4.422  13.607 -0.5599 -0.6166 -0.2960
13920TIP3   OH263250   2.916   6.386   2.080 -0.1814 -0.0443  0.5275
13920TIP3    H163251   2.964   6.341   2.010 -1.3781 -0.0246 -0.3143
13920TIP3    H263252   2.984   6.407   2.144  0.9980  0.2495 -0.7747
13921TIP3   OH263253   5.145   0.788  13.244  1.0892 -0.2515  0.3721
13921TIP3    H163254   5.064   0.744  13.271  2.1475 -2.5679 -0.0970
13921TIP3    H263255   5.145   0.870  13.295 -1.0086 -0.6863  1.1664
13922TIP3   OH263256   1.156   2.675   2.277 -0.4955  0.4928  0.4187
13922TIP3    H163257   1.068   2.638   2.281 -0.0607 -0.5200  0.7603
13922TIP3    H263258   1.156   2.729   2.198 -1.0087 -0.5749 -0.3215
13923TIP3   OH263259   4.355   0.755  15.258  0.4207 -0.1589  0.1223
13923TIP3    H163260   4.333   0.694  15.328 -0.4520 -0.9233 -0.8128
13923TIP3    H263261   4.302   0.833  15.276 -1.6078 -1.2576 -1.0240
13924TIP3   OH263262   1.133   3.381   3.009  0.0742 -0.0436  0.4792
13924TIP3    H163263   1.048   3.364   2.968  0.4612  1.0667 -0.8014
13924TIP3    H263264   1.161   3.295   3.040 -1.0959 -0.5782  0.1066
13925TIP3   OH263265   5.786   6.230  13.972  0.0191  0.1063  0.5316
13925TIP3    H163266   5.810   6.288  14.045 -0.0643 -2.4524  2.6502
13925TIP3    H263267   5.857   6.241  13.908  0.1612  2.2865  1.0153
13926TIP3   OH263268   5.105   0.962   5.569 -0.1176  0.2756  0.1401
13926TIP3    H163269   5.102   0.974   5.474 -0.9271  0.7225  0.2139
13926TIP3    H263270   5.196   0.937   5.587 -0.2249 -0.8662 -0.8626
13927TIP3   OH263271   0.642   1.617  16.821  0.0854 -0.4266  0.1213
13927TIP3    H163272   0.641   1.711  16.841 -0.0236 -0.1789 -1.0046
13927TIP3    H263273   0.637   1.613  16.725 -0.5198 -1.5972  0.1955
13928TIP3   OH263274   5.898   4.242   5.724  0.3321  0.4649  0.1605
13928TIP3    H163275   5.868   4.151   5.726  1.1328  0.1922 -0.1706
13928TIP3    H263276   5.989   4.238   5.753  0.7957  0.9901 -1.2057
13929TIP3   OH263277   0.157   0.710  10.657  0.2281  0.3235 -0.2262
13929TIP3    H163278   0.069   0.707  10.695  0.3489  0.3800  0.0597
13929TIP3    H263279   0.176   0.619  10.633  0.3724  0.2024  0.3526
13930TIP3   OH263280   5.663   0.789   2.663 -0.2363  0.0294  0.2250
13930TIP3    H163281   5.666   0.731   2.739 -2.2150  0.5002  0.7120
13930TIP3    H263282   5.742   0.843   2.671  0.5879 -1.2520  0.8570
13931TIP3   OH263283   6.386   1.963   5.748  0.2660 -0.0656 -0.3821
13931TIP3    H163284   6.442   1.949   5.824  0.6538  1.0774 -0.4522
13931TIP3    H263285   6.403   1.887   5.691  2.5017  0.7822 -0.8674
13932TIP3   OH263286   0.446   3.177  14.620 -0.3257 -0.5038  0.0917
13932TIP3    H163287   0.434   3.108  14.554  0.0471  0.5495 -1.0815
13932TIP3    H263288   0.400   3.253  14.584  0.1729  0.1744  0.8874
13933TIP3   OH263289   0.454   4.371   5.698  0.2623  0.3210 -0.3519
13933TIP3    H163290   0.391   4.443   5.699  0.5022  0.5499  1.6933
13933TIP3    H263291   0.409   4.300   5.744  0.9085 -0.0506 -0.2905
13934TIP3   OH263292   3.519   5.711  12.134 -0.4029  0.2686  0.5207
13934TIP3    H163293   3.454   5.733  12.200 -0.9360  1.3035 -0.3333
13934TIP3    H263294   3.597   5.760  12.160 -0.8097  1.1864  0.0379
13935TIP3   OH263295   2.490   6.174   0.237  0.3481 -0.1679 -0.0728
13935TIP3    H163296   2.503   6.237   0.308  0.5882 -2.2282  1.7463
13935TIP3    H263297   2.535   6.095   0.265  0.8593 -0.8936 -2.7545
13936TIP3   OH263298   4.779   4.971   1.022 -0.4711  0.1208 -0.4071
13936TIP3    H163299   4.798   4.887   1.062 -1.1048 -0.2718 -0.9038
13936TIP3    H263300   4.701   4.954   0.969 -1.9239  1.5472  1.2244
13937TIP3   OH263301   0.630   4.303   3.271  0.1357 -0.8039 -0.2200
13937TIP3    H163302   0.537   4.298   3.297 -0.1788 -0.8739 -1.3612
13937TIP3    H263303   0.677   4.273   3.349 -0.8147 -1.1961  0.2197
13938TIP3   OH263304   3.411   5.783   0.880  0.2458 -0.0903  0.0541
13938TIP3    H163305   3.322   5.810   0.858  0.6272  0.3601 -0.9425
13938TIP3    H263306   3.400   5.705   0.935 -0.8025  0.8344  1.1864
13939TIP3   OH263307   2.710   2.964   2.290  0.0114  0.5936  0.0877
13939TIP3    H163308   2.776   2.949   2.222 -0.0056  1.2935 -0.0878
13939TIP3    H263309   2.730   2.899   2.357  0.5211  0.4202 -0.2250
13940TIP3   OH263310   5.012   4.121   3.334 -0.1923 -0.1748  0.3106
13940TIP3    H163311   5.092   4.150   3.290  1.3241 -2.3055  1.5796
13940TIP3    H263312   5.040   4.098   3.423 -2.2795 -0.6237  0.8906
13941TIP3   OH263313   4.868   1.236   2.775 -0.0420 -0.0512  0.3819
13941TIP3    H163314   4.953   1.279   2.764 -0.2883  0.0989 -1.0269
13941TIP3    H263315   4.807   1.291   2.727 -0.1478 -2.6345 -2.5369
13942TIP3   OH263316   3.016   4.690  11.596  0.5338  0.3845  0.2550
13942TIP3    H163317   2.922   4.674  11.606  0.3389  1.6957  0.5032
13942TIP3    H263318   3.028   4.703  11.502  0.5278 -0.1131  0.1811
13943TIP3   OH263319   0.514   3.194   3.974 -0.6549  1.3531  0.3626
13943TIP3    H163320   0.541   3.280   4.007 -1.1876  0.8218  2.2283
13943TIP3    H263321   0.583   3.169   3.913  0.1447  2.5557  0.7462
13944TIP3   OH263322   6.065   1.440   5.172  0.5046  0.2603 -0.9741
13944TIP3    H163323   5.998   1.493   5.215  1.0869 -1.3072  2.0196
13944TIP3    H263324   6.020   1.396   5.100 -1.7215 -0.7638  0.9776
13945TIP3   OH263325   2.370   6.516  15.599  0.1128 -0.2935 -0.2078
13945TIP3    H163326   2.433   6.449  15.571 -0.4366 -2.5397  3.5517
13945TIP3    H263327   2.284   6.475  15.584 -0.2743  0.4155  0.0735
13946TIP3   OH263328   3.996   4.793   0.845  0.4290  0.1673  0.4859
13946TIP3    H163329   3.994   4.726   0.913  0.3441 -0.3375 -0.0083
13946TIP3    H263330   3.909   4.788   0.803 -0.2020  1.7408  1.5506
13947TIP3   OH263331   1.306   4.850   0.029 -0.4918  0.2069  0.1037
13947TIP3    H163332   1.354   4.933   0.028  0.2713 -0.1892  2.3895
13947TIP3    H263333   1.227   4.867   0.080 -0.0486 -0.6113  1.0865
13948TIP3   OH263334   1.357   2.236  16.900 -0.1306 -0.7157  0.0827
13948TIP3    H163335   1.362   2.211  16.808 -1.6595  0.9494 -0.4719
13948TIP3    H263336   1.449   2.247  16.926  0.2614  0.7852 -1.8014
13949TIP3   OH263337   1.465   1.902  16.394  0.3241 -0.2137 -0.0095
13949TIP3    H163338   1.459   1.808  16.410 -0.3561  0.0818  1.5594
13949TIP3    H263339   1.523   1.935  16.463  2.0554  0.2731 -1.6425
13950TIP3   OH263340   3.393   0.398  13.623  0.4274  0.2560  0.2470
13950TIP3    H163341   3.485   0.421  13.634 -0.5741  4.0603  1.6772
13950TIP3    H263342   3.377   0.404  13.529  1.5896 -0.3291  0.0059
13951TIP3   OH263343   4.804   1.909   5.822 -0.8403 -1.0003  0.2771
13951TIP3    H163344   4.789   1.951   5.737  1.2568  0.3784  0.5495
13951TIP3    H263345   4.858   1.832   5.801 -1.3082 -1.3199  0.2361
13952TIP3   OH263346   2.976   0.984   4.486 -0.2726 -0.4167 -0.3075
13952TIP3    H163347   2.915   0.911   4.494  1.6361 -2.2204 -1.4160
13952TIP3    H263348   3.029   0.961   4.409  1.7024  1.1167  0.5656
13953TIP3   OH263349   1.098   0.236   1.904 -0.4048 -0.2210 -0.4118
13953TIP3    H163350   1.104   0.288   1.984  0.3208  1.0311 -1.2660
13953TIP3    H263351   1.168   0.171   1.912  1.7459  1.8879 -1.4134
13954TIP3   OH263352   0.408   6.072   3.525 -0.0828  0.1540 -0.1924
13954TIP3    H163353   0.324   6.092   3.483 -0.5134 -2.5244 -0.7495
13954TIP3    H263354   0.420   5.978   3.509  0.8298 -0.5017  3.7227
13955TIP3   OH263355   1.608   1.454   5.562  0.3242 -0.0466  0.2524
13955TIP3    H163356   1.595   1.363   5.590 -0.9246 -0.0669 -0.3302
13955TIP3    H263357   1.617   1.503   5.644 -3.2018 -0.1246  0.7934
13956TIP3   OH263358   4.681   5.606   4.723  0.1755  0.5894  1.3110
13956TIP3    H163359   4.593   5.575   4.745  0.3599 -0.3539  0.7309
13956TIP3    H263360   4.729   5.527   4.699 -0.0803  1.5933 -2.7729
13957TIP3   OH263361   2.182   4.356  11.950  0.3120 -0.2293 -0.2542
13957TIP3    H163362   2.248   4.289  11.937 -0.7148 -1.7041  1.8061
13957TIP3    H263363   2.228   4.429  11.991  0.6704 -1.2422  1.1589
13958TIP3   OH263364   3.839   3.305  12.571  0.3431  0.1031  0.0894
13958TIP3    H163365   3.841   3.211  12.554 -0.3143  0.1683 -0.3940
13958TIP3    H263366   3.906   3.320  12.637 -0.2019 -0.8444  0.8592
13959TIP3   OH263367   1.575   1.989   1.830 -0.6292 -0.2955 -0.3004
13959TIP3    H163368   1.487   1.952   1.839 -0.3365 -1.0678 -0.6255
13959TIP3    H263369   1.562   2.083   1.846 -1.6001 -0.3217 -0.8746
13960TIP3   OH263370   0.232   5.289   2.156 -0.1429  0.3154 -0.0165
13960TIP3    H163371   0.290   5.226   2.198  0.5005 -1.6077 -3.5715
13960TIP3    H263372   0.156   5.238   2.129  0.1739  1.0847 -2.5391
13961TIP3   OH263373   0.970   5.015   1.940 -0.2851  0.7607 -0.1451
13961TIP3    H163374   1.028   5.033   2.014  0.5986 -1.7960 -0.1377
13961TIP3    H263375   0.897   4.965   1.978 -0.0449 -0.1820 -0.8872
13962TIP3   OH263376   6.572   4.108   6.603  0.2711  0.0425 -0.4738
13962TIP3    H163377   6.600   4.195   6.631 -0.5003  0.3223 -0.5702
13962TIP3    H263378   6.510   4.079   6.671 -0.9628  0.3789 -1.4373
13963TIP3   OH263379   4.547   2.553   3.186 -0.2998 -0.5221  0.1285
13963TIP3    H163380   4.596   2.475   3.210 -0.1490 -0.3593  0.3563
13963TIP3    H263381   4.479   2.522   3.126  0.2848 -0.6966 -0.4509
13964TIP3   OH263382   0.696   6.204   1.623  0.0583 -0.0642 -0.2560
13964TIP3    H163383   0.609   6.171   1.601 -0.8914  2.2557 -0.1027
13964TIP3    H263384   0.721   6.259   1.548  0.9942  0.0189  0.1062
13965TIP3   OH263385   6.595   6.433  12.150 -0.3582  0.0653  0.0990
13965TIP3    H163386   6.644   6.515  12.143 -0.1788 -0.1626 -1.6337
13965TIP3    H263387   6.629   6.391  12.229  2.3110 -0.0888 -1.0708
13966TIP3   OH263388   4.786   1.629  11.276  0.0984  0.2958 -0.3946
13966TIP3    H163389   4.845   1.661  11.208 -0.5255  2.6747  0.1247
13966TIP3    H263390   4.808   1.537  11.287  1.1501  0.2373 -2.8378
13967TIP3   OH263391   5.878   3.864   4.976  0.1233 -0.0462 -0.6218
13967TIP3    H163392   5.822   3.807   5.029  0.1436  0.9213  0.4577
13967TIP3    H263393   5.915   3.926   5.038 -0.4773  1.6225 -1.8886
13968TIP3   OH263394   1.936   5.449   5.805 -0.0105 -0.5359  0.0258
13968TIP3    H163395   1.924   5.357   5.827 -0.3958 -0.5423 -0.2122
13968TIP3    H263396   2.024   5.470   5.837 -0.8030 -0.3723  2.2052
13969TIP3   OH263397   1.155   1.713   1.666 -0.1964 -0.2372 -0.4721
13969TIP3    H163398   1.076   1.708   1.720 -0.0503 -2.2230 -0.4010
13969TIP3    H263399   1.124   1.735   1.579 -0.8004 -0.6900 -0.3705
13970TIP3   OH263400   1.419   4.681  13.996 -0.0504  0.4805 -0.1045
13970TIP3    H163401   1.435   4.587  13.987  2.3413  0.9185 -0.8092
13970TIP3    H263402   1.504   4.718  14.020 -1.0337  2.4282  0.5146
13971TIP3   OH263403   4.275   0.910  11.144 -0.5449  0.4257  0.1007
13971TIP3    H163404   4.298   0.874  11.058  0.8452 -2.0315  1.4638
13971TIP3    H263405   4.349   0.887  11.200 -1.5985  1.7064  2.0630
13972TIP3   OH263406   3.927   2.968  14.978  0.2730  0.1715  0.2961
13972TIP3    H163407   3.959   2.962  15.068  0.9318 -0.2017  0.0387
13972TIP3    H263408   3.997   3.011  14.930 -0.1495  0.5258 -0.0052
13973TIP3   OH263409   6.634   2.183  12.472 -0.2170  0.2189 -0.4119
13973TIP3    H163410   6.551   2.209  12.430 -0.0478  2.5234  0.6222
13973TIP3    H263411   6.695   2.254  12.450  1.6633 -1.7410 -1.6417
13974TIP3   OH263412   0.155   4.915  13.639 -0.4716  0.2630  0.0934
13974TIP3    H163413   0.161   4.981  13.708  0.4863 -0.4804  0.7336
13974TIP3    H263414   0.107   4.842  13.680 -0.8101  0.2362 -0.3496
13975TIP3   OH263415   0.358   0.978   4.078  0.1691  0.0791 -0.0791
13975TIP3    H163416   0.327   1.007   4.164  0.4422  1.6814 -0.5057
13975TIP3    H263417   0.441   0.935   4.096  0.0687  0.1144  0.4879
13976TIP3   OH263418   2.398   4.133  15.621  0.4751  0.5301 -0.1257
13976TIP3    H163419   2.304   4.131  15.640  0.4490  1.4572 -0.1508
13976TIP3    H263420   2.403   4.127  15.525  0.4497  0.4425 -0.1224
13977TIP3   OH263421   2.715   0.297  13.486  0.2481 -0.5342  0.0082
13977TIP3    H163422   2.714   0.264  13.396 -0.5160 -0.0588 -0.1561
13977TIP3    H263423   2.776   0.239  13.532 -0.4893 -1.7133 -0.4695
13978TIP3   OH263424   1.810   2.359   4.254  0.3662 -0.1517  0.5520
13978TIP3    H163425   1.763   2.442   4.250 -0.2840 -0.5022  0.8473
13978TIP3    H263426   1.887   2.372   4.198 -1.2153 -0.2781 -1.7161
13979TIP3   OH263427   1.349   1.879  16.892 -0.1285  0.9793 -0.4466
13979TIP3    H163428   1.397   1.955  16.924 -0.2613  0.3812  1.2227
13979TIP3    H263429   1.415   1.827  16.845  0.3541  1.2744 -0.1000
13980TIP3   OH263430   4.466   4.725   1.949 -0.3421  0.4051 -0.0199
13980TIP3    H163431   4.468   4.643   1.899 -0.8191 -0.1602  0.8544
13980TIP3    H263432   4.380   4.724   1.991 -0.4947  1.5455 -0.3109
13981TIP3   OH263433   6.438   0.013   2.443 -0.2357 -0.4578 -0.3841
13981TIP3    H163434   6.444   0.098   2.400  2.8921 -0.9243 -1.0008
13981TIP3    H263435   6.450  -0.051   2.372  0.5149 -1.3313  0.5193
13982TIP3   OH263436   5.558   4.507   2.551 -0.5972 -0.1685 -0.3219
13982TIP3    H163437   5.496   4.439   2.576 -1.1448  1.2728  2.4726
13982TIP3    H263438   5.520   4.588   2.584  0.6819  1.3494 -2.4135
13983TIP3   OH263439   1.166   0.179   0.281  0.1203  0.0019  0.2343
13983TIP3    H163440   1.220   0.239   0.229 -2.3019  2.2941  0.3081
13983TIP3    H263441   1.213   0.170   0.364  1.6731 -0.0831 -0.6251
13984TIP3   OH263442   2.087   6.185   1.798 -0.2434  0.0083 -0.0679
13984TIP3    H163443   2.129   6.112   1.753 -1.6997 -1.8724  1.5260
13984TIP3    H263444   2.146   6.206   1.870  0.3742  0.7064 -0.7627
13985TIP3   OH263445   4.046   1.843   1.214  1.0078 -0.7336 -0.0206
13985TIP3    H163446   4.070   1.877   1.128 -1.1693  0.4225 -0.2204
13985TIP3    H263447   3.967   1.792   1.197  0.4940 -0.3832  1.3104
13986TIP3   OH263448   2.092   4.318   2.107 -0.4516  0.2087 -0.3880
13986TIP3    H163449   2.024   4.303   2.173  0.2275  2.5818  0.9216
13986TIP3    H263450   2.165   4.262   2.135 -0.8642 -0.2393 -0.2032
13987TIP3   OH263451   5.080   2.274   5.306  0.0454  0.0877 -0.1768
13987TIP3    H163452   5.081   2.193   5.255  2.3896 -0.1785  0.2409
13987TIP3    H263453   5.105   2.342   5.244 -0.3205  0.2628 -0.1354
13988TIP3   OH263454   6.578   4.706   2.680 -0.6426  0.2231  0.7350
13988TIP3    H163455   6.624   4.693   2.598 -1.0738 -0.9269  0.6580
13988TIP3    H263456   6.631   4.769   2.729  0.7271 -0.6865  0.4418
13989TIP3   OH263457   2.845   4.276  10.481  0.5275 -0.0486  0.0928
13989TIP3    H163458   2.920   4.275  10.422  1.3818 -0.0467  1.1519
13989TIP3    H263459   2.773   4.308  10.428  1.2000 -0.3857 -1.0377
13990TIP3   OH263460   3.495   3.198  13.896 -0.4174 -0.0583  0.3283
13990TIP3    H163461   3.440   3.187  13.818 -0.5538  0.2721  0.3742
13990TIP3    H263462   3.477   3.288  13.925  0.4335  0.1836  0.1193
13991TIP3   OH263463   4.898   5.590   6.613 -0.1782  0.0602  0.1864
13991TIP3    H163464   4.885   5.500   6.643  0.8723  0.2968  1.4045
13991TIP3    H263465   4.993   5.603   6.616 -0.1550  0.5358 -1.9931
13992TIP3   OH263466   0.335   1.547   0.560  0.4527  0.2176 -0.2155
13992TIP3    H163467   0.356   1.461   0.597 -1.4858 -1.5453 -2.9086
13992TIP3    H263468   0.419   1.583   0.533  1.0965 -1.8846 -1.1056
13993TIP3   OH263469   3.359   4.332   1.189 -0.3139  0.0657 -0.0383
13993TIP3    H163470   3.432   4.283   1.149  1.1501  1.1372  1.2485
13993TIP3    H263471   3.345   4.405   1.129 -0.2056 -0.0444 -0.2002
13994TIP3   OH263472   0.809   2.260   1.553  0.4305  0.4313  0.1067
13994TIP3    H163473   0.781   2.215   1.633 -0.6771  0.3381 -0.3235
13994TIP3    H263474   0.761   2.216   1.483 -1.8828  3.2462 -0.1809
13995TIP3   OH263475   3.785   0.513   4.829 -0.1940  0.0650  0.6200
13995TIP3    H163476   3.839   0.439   4.799 -0.6114 -0.6252  1.5388
13995TIP3    H263477   3.722   0.526   4.759 -0.2844 -0.6264  0.5696
13996TIP3   OH263478   4.192   6.692   2.633  0.2782  0.3580 -0.2141
13996TIP3    H163479   4.254   6.620   2.620 -2.4789 -1.7322 -2.2814
13996TIP3    H263480   4.202   6.747   2.555  0.4601  0.7811  0.1019
13997TIP3   OH263481   6.212   4.802   3.721 -0.1701  0.1817  0.1275
13997TIP3    H163482   6.133   4.793   3.774  1.0689 -0.1540  1.9444
13997TIP3    H263483   6.232   4.896   3.725  2.4505 -0.4427  4.0586
13998TIP3   OH263484   3.428   4.865   2.334 -0.6425  0.0030 -0.0644
13998TIP3    H163485   3.517   4.856   2.300 -0.5445 -0.7864  0.3722
13998TIP3    H263486   3.386   4.782   2.311 -0.2757 -0.9715  2.5436
13999TIP3   OH263487   5.490   0.465   5.804 -0.1436  0.0045  0.3552
13999TIP3    H163488   5.563   0.511   5.763 -1.1856 -1.7113 -3.6059
13999TIP3    H263489   5.485   0.503   5.892  2.5753  3.3876 -0.8155
14000TIP3   OH263490   4.336   4.946   1.388 -0.4798 -0.2687  0.2414
14000TIP3    H163491   4.313   5.001   1.462 -0.8216 -0.4239  0.2509
14000TIP3    H263492   4.432   4.951   1.383 -0.6025  1.7109 -0.8125
14001TIP3   OH263493   6.079   5.632   1.163 -0.1306 -0.1538 -0.0399
14001TIP3    H163494   6.030   5.579   1.100 -0.0670  1.0402 -1.1008
14001TIP3    H263495   6.033   5.716   1.166  1.0901  0.5342 -0.0801
14002TIP3   OH263496   2.733   5.646   3.258  0.7948 -0.1081  0.2447
14002TIP3    H163497   2.784   5.713   3.303  0.6715 -0.6095  1.1482
14002TIP3    H263498   2.795   5.607   3.196  1.0988  0.2750  0.3030
14003TIP3   OH263499   4.907   3.113   0.368 -0.1842  0.4405 -0.0227
14003TIP3    H163500   4.904   3.202   0.402 -1.7336  0.3809  0.0451
14003TIP3    H263501   4.856   3.116   0.288  1.4387  0.0406 -1.0939
14004TIP3   OH263502   0.189   1.341  15.972  0.0541 -0.3847  0.3087
14004TIP3    H163503   0.234   1.403  16.030  0.9489 -0.8421  0.1157
14004TIP3    H263504   0.183   1.387  15.888 -0.2165 -0.1604  0.4506
14005TIP3   OH263505   5.542   3.062  13.022  0.2210  0.3850  0.1732
14005TIP3    H163506   5.482   2.991  13.045  0.3909 -0.0835 -0.7978
14005TIP3    H263507   5.507   3.139  13.066  0.5221 -0.4775  1.9475
14006TIP3   OH263508   6.384   2.060  14.557  0.3481  0.1107  0.4111
14006TIP3    H163509   6.306   2.051  14.501  0.6826 -0.0991 -0.0261
14006TIP3    H263510   6.368   2.000  14.630  0.2867 -0.2463  0.1057
14007TIP3   OH263511   3.599   1.741  17.030 -0.1607  0.0484  0.4421
14007TIP3    H163512   3.605   1.796  16.952 -2.1372  0.1288  0.3302
14007TIP3    H263513   3.665   1.776  17.089  2.0800 -0.6563 -1.5726
14008TIP3   OH263514   5.276   6.037  13.545 -0.5399  0.3530  0.0592
14008TIP3    H163515   5.190   5.996  13.540 -0.2856 -0.2871  0.8586
14008TIP3    H263516   5.260   6.121  13.588 -0.2814 -1.2422  3.3991
14009TIP3   OH263517   3.723   3.591   3.274 -0.1229  0.5108 -0.0214
14009TIP3    H163518   3.769   3.596   3.191  0.0093 -0.6893 -0.0405
14009TIP3    H263519   3.652   3.528   3.259 -0.2064  0.4164  0.7191
14010TIP3   OH263520   3.750   3.603   1.246 -0.4846 -0.7186 -0.2379
14010TIP3    H163521   3.798   3.553   1.312 -0.4475  0.7549  0.8552
14010TIP3    H263522   3.749   3.545   1.169  0.2999 -2.0475  0.7280
14011TIP3   OH263523   4.990   1.148   3.588 -0.1275 -0.2526 -0.5785
14011TIP3    H163524   4.909   1.147   3.538 -1.3230  1.8437  1.2251
14011TIP3    H263525   4.970   1.096   3.666  0.4374 -0.1547 -0.3642
14012TIP3   OH263526   1.652   6.620   3.285  0.2381 -0.3859  0.2755
14012TIP3    H163527   1.703   6.677   3.342 -0.6509 -0.0061  0.6919
14012TIP3    H263528   1.627   6.675   3.211 -1.2066 -0.0217  1.0105
14013TIP3   OH263529   2.506   4.239   1.215  0.4068  0.0003 -0.4677
14013TIP3    H163530   2.500   4.144   1.207  1.0109 -0.0283 -0.6714
14013TIP3    H263531   2.561   4.253   1.293  2.6817  0.1223 -2.0295
14014TIP3   OH263532   4.121   6.049  12.505  0.1012  0.3849  0.2037
14014TIP3    H163533   4.181   6.124  12.501 -0.4987  0.9332  1.2882
14014TIP3    H263534   4.175   5.978  12.539  0.3261  0.6797  0.4724
14015TIP3   OH263535   2.579   0.482   5.612  0.7901 -0.0737 -0.4642
14015TIP3    H163536   2.601   0.523   5.696 -0.8643  1.2668 -0.6649
14015TIP3    H263537   2.622   0.396   5.615  0.0035 -0.4165  2.1353
14016TIP3   OH263538   5.782   4.593   1.608 -0.1970 -0.1522 -0.7233
14016TIP3    H163539   5.820   4.612   1.522 -0.1844 -2.5918 -1.3152
14016TIP3    H263540   5.721   4.521   1.592 -1.7571  0.7530  0.9840
14017TIP3   OH263541   6.241   2.488  15.092  0.9842  0.4971  0.0298
14017TIP3    H163542   6.327   2.467  15.129  0.5852 -1.5973 -0.1830
14017TIP3    H263543   6.189   2.516  15.168  1.1840 -0.4895  0.5459
14018TIP3   OH263544   6.790   3.199  11.922  0.1122 -0.4822  0.7375
14018TIP3    H163545   6.880   3.179  11.948  0.6110 -1.2812 -1.5391
14018TIP3    H263546   6.796   3.281  11.874  0.2409 -2.5144 -2.8513
14019TIP3   OH263547   0.730   6.736   4.268 -0.3536 -0.7561 -0.1200
14019TIP3    H163548   0.699   6.793   4.338 -1.9816 -1.3196 -0.3524
14019TIP3    H263549   0.783   6.670   4.312  1.5674  0.9316  0.1461
14020TIP3   OH263550   2.298   6.771   2.704 -0.3794 -0.6571  0.2712
14020TIP3    H163551   2.262   6.683   2.699 -0.7052 -0.5162  0.1368
14020TIP3    H263552   2.239   6.817   2.764 -2.9996  0.8144 -3.2546
14021TIP3   OH263553   3.194   6.089  16.207  0.0089  0.2524  0.5045
14021TIP3    H163554   3.219   6.063  16.118 -0.1795  0.2142  0.4614
14021TIP3    H263555   3.100   6.074  16.210 -0.0629  0.7134  0.5535
14022TIP3   OH263556   4.946   1.589   6.061 -0.0153  0.5923 -0.0158
14022TIP3    H163557   4.868   1.645   6.063 -1.0005 -0.8141  1.6605
14022TIP3    H263558   4.957   1.567   5.969 -0.9683  1.6556 -0.4008
14023TIP3   OH263559   2.116   3.564  16.668 -0.6570  0.2102  0.0698
14023TIP3    H163560   2.073   3.612  16.738  0.2592  2.4143 -0.8285
14023TIP3    H263561   2.078   3.599  16.587 -1.6571 -2.2394 -0.5876
14024TIP3   OH263562   3.179   2.921  14.325  0.4292  0.1107  0.4399
14024TIP3    H163563   3.148   2.990  14.384 -0.7150 -1.2155  1.3944
14024TIP3    H263564   3.213   2.969  14.250 -2.5315  1.6853  0.0117
14025TIP3   OH263565   2.765   4.195  10.753  0.2947  0.4425 -0.4344
14025TIP3    H163566   2.766   4.272  10.810 -2.2661  0.4475 -0.3612
14025TIP3    H263567   2.765   4.232  10.664 -1.7213  0.5709 -0.3991
14026TIP3   OH263568   3.737   2.827  15.251  0.0572  0.2002 -0.4673
14026TIP3    H163569   3.805   2.760  15.258 -0.1412 -0.0153 -0.6095
14026TIP3    H263570   3.785   2.910  15.256  0.3608  0.0499 -0.8154
14027TIP3   OH263571   5.781   1.940   1.876 -0.0310 -0.5823  0.3382
14027TIP3    H163572   5.773   1.905   1.964  0.8737  0.7504  0.9650
14027TIP3    H263573   5.818   2.028   1.888 -2.4939  0.7347 -1.1282
14028TIP3   OH263574   0.325   4.124  14.581 -0.9545 -0.2826 -0.4629
14028TIP3    H163575   0.246   4.176  14.566 -1.2466 -0.7045 -0.3952
14028TIP3    H263576   0.397   4.181  14.554 -1.3522 -0.3390 -1.6699
14029TIP3   OH263577   1.124   6.376  16.342 -0.0414 -0.3777  0.5407
14029TIP3    H163578   1.043   6.324  16.342 -0.1713 -0.1743  0.6844
14029TIP3    H263579   1.178   6.337  16.411  0.2169 -0.8789  0.0649
14030TIP3   OH263580   4.671   4.483   1.798 -0.1364  0.5589 -0.2905
14030TIP3    H163581   4.713   4.569   1.788  1.5852 -0.0863  1.1623
14030TIP3    H263582   4.709   4.447   1.879  1.0123 -2.6094 -2.1590
14031TIP3   OH263583   2.014   3.361   0.561  0.9929 -0.5417  0.0951
14031TIP3    H163584   2.075   3.435   0.561 -0.4695  0.7281  2.1689
14031TIP3    H263585   1.993   3.348   0.654  1.6700 -3.9661 -0.1576
14032TIP3   OH263586   0.003   0.648  12.133 -0.0754 -0.0707  0.0225
14032TIP3    H163587   0.028   0.737  12.109 -0.3339 -0.0143 -0.0366
14032TIP3    H263588  -0.058   0.620  12.065 -2.9117  1.0623  2.0033
14033TIP3   OH263589   4.820   6.277   5.219 -0.3985  0.2588 -0.0448
14033TIP3    H163590   4.816   6.371   5.203  1.7755  0.3046 -0.3997
14033TIP3    H263591   4.744   6.259   5.276 -0.8582  2.1905 -0.0244
14034TIP3   OH263592   6.331   2.691   1.857 -0.0644 -0.0005  0.1152
14034TIP3    H163593   6.241   2.723   1.853  0.3215  1.3325  1.7776
14034TIP3    H263594   6.326   2.602   1.822 -1.9068  0.2982 -0.4209
14035TIP3   OH263595   0.506   3.124  16.945  0.3232  0.1868 -0.3358
14035TIP3    H163596   0.550   3.041  16.961  3.4225  2.2175  2.5506
14035TIP3    H263597   0.446   3.134  17.018  1.1665  1.1673  0.2495
14036TIP3   OH263598   6.513   2.856   3.256 -0.3732  0.7650  0.6929
14036TIP3    H163599   6.561   2.932   3.289 -0.6349  0.1551  2.5356
14036TIP3    H263600   6.554   2.836   3.172  0.9997  1.7296  1.1241
14037TIP3   OH263601   4.752   2.798  14.965  0.0729  0.5928 -0.0865
14037TIP3    H163602   4.735   2.773  14.875 -1.1038 -0.2442  0.3498
14037TIP3    H263603   4.678   2.854  14.989 -0.4428 -0.4708  0.8413
14038TIP3   OH263604   2.382   2.824   3.266 -0.1073 -0.1880  0.1009
14038TIP3    H163605   2.472   2.846   3.288 -0.4469 -0.4747  1.8583
14038TIP3    H263606   2.363   2.745   3.318 -0.8603 -1.0557 -1.4559
14039TIP3   OH263607   2.408   5.891   1.520  0.2666  0.0537 -0.0501
14039TIP3    H163608   2.452   5.877   1.437  0.0749 -0.8280 -0.0120
14039TIP3    H263609   2.474   5.873   1.587 -0.4301 -2.4887  0.0308
14040TIP3   OH263610   3.778   4.333  13.728 -0.0856  0.0140 -0.3586
14040TIP3    H163611   3.738   4.258  13.771  0.3664  0.4357  0.8204
14040TIP3    H263612   3.710   4.401  13.731  0.0081  0.0989 -0.1563
14041TIP3   OH263613   3.621   2.515   4.089 -0.7491 -0.0921 -0.2155
14041TIP3    H163614   3.600   2.534   3.998  3.1117  0.0535 -1.1200
14041TIP3    H263615   3.664   2.430   4.088  0.4446  0.4559  1.2871
14042TIP3   OH263616   6.373   0.130   6.091 -0.4663 -0.2298  0.8184
14042TIP3    H163617   6.282   0.152   6.113  0.0841  3.6139 -0.3651
14042TIP3    H263618   6.419   0.135   6.175 -0.8314  0.8058  0.9661
14043TIP3   OH263619   0.660   2.802  12.886  0.3137 -0.2585 -1.0584
14043TIP3    H163620   0.676   2.714  12.854 -0.3812  0.7795 -4.3755
14043TIP3    H263621   0.742   2.848  12.872  0.2052  0.0369 -0.7298
14044TIP3   OH263622   1.510   5.252  13.720  0.5663  0.3150  0.6284
14044TIP3    H163623   1.421   5.254  13.685  2.3703 -0.6450 -4.4328
14044TIP3    H263624   1.544   5.340  13.704  1.3323 -0.0600  0.1339
14045TIP3   OH263625   4.113   0.532   5.101 -0.2766  0.5117 -0.1402
14045TIP3    H163626   4.100   0.491   5.187 -0.2913  0.3482 -0.2203
14045TIP3    H263627   4.182   0.481   5.060 -0.8176  0.0950 -0.5415
14046TIP3   OH263628   4.320   6.130  15.063 -0.3219  0.3190 -0.1445
14046TIP3    H163629   4.272   6.185  15.000  0.5014  0.3312 -0.7699
14046TIP3    H263630   4.363   6.064  15.009 -2.1483 -1.6070  0.6932
14047TIP3   OH263631   2.905   4.790  12.872  0.4957  0.0005  0.2309
14047TIP3    H163632   2.832   4.807  12.813  0.6551 -2.5090 -0.7677
14047TIP3    H263633   2.864   4.774  12.957 -0.2280 -2.2474 -0.5079
14048TIP3   OH263634   1.767   2.533   5.892  0.0888 -0.1067  0.1525
14048TIP3    H163635   1.682   2.488   5.898 -1.1689  1.9742 -1.3031
14048TIP3    H263636   1.793   2.547   5.983 -0.9780 -1.0346  0.6152
14049TIP3   OH263637   3.089   4.062   4.507  0.2206 -0.2540 -0.2850
14049TIP3    H163638   3.046   4.026   4.585  0.3226 -0.3789 -0.2856
14049TIP3    H263639   3.072   3.998   4.438 -0.2265  0.0639 -0.4689
14050TIP3   OH263640   0.423   2.341  13.614  0.1126 -0.1574  0.1611
14050TIP3    H163641   0.389   2.252  13.603  0.3192 -0.1615 -0.4462
14050TIP3    H263642   0.364   2.381  13.678 -0.1998 -0.6126  0.1605
14051TIP3   OH263643   0.849   1.691   2.472  0.2652  0.3516  0.3463
14051TIP3    H163644   0.938   1.726   2.478  0.4189 -0.2424  1.8350
14051TIP3    H263645   0.848   1.643   2.390  1.0046  1.2429 -0.1902
14052TIP3   OH263646   3.844   2.436  12.312  0.1971  0.5799  0.0480
14052TIP3    H163647   3.754   2.417  12.340 -0.5805  0.4061 -2.4273
14052TIP3    H263648   3.877   2.353  12.280  0.4681  1.1078 -1.0631
14053TIP3   OH263649   2.352   5.670   6.091  0.3343 -0.0760 -0.0138
14053TIP3    H163650   2.390   5.725   6.160 -0.1913 -0.3396  0.4980
14053TIP3    H263651   2.297   5.730   6.041 -0.1917 -0.1142  0.5062
14054TIP3   OH263652   3.171   5.029   6.019 -0.6745  0.1516 -0.3206
14054TIP3    H163653   3.176   5.093   5.948  0.9684  0.5886  0.1968
14054TIP3    H263654   3.194   5.077   6.098 -3.9210  0.0246  0.7896
14055TIP3   OH263655   1.684   3.229   1.321 -0.1237 -0.3099 -0.2854
14055TIP3    H163656   1.778   3.247   1.323 -0.1496 -0.2393  0.6282
14055TIP3    H263657   1.672   3.159   1.385 -0.5727 -0.9193 -1.0322
14056TIP3   OH263658   2.889   5.896   6.245  0.1103  0.0238 -0.7903
14056TIP3    H163659   2.969   5.939   6.277  1.7349 -2.1276 -1.8173
14056TIP3    H263660   2.880   5.819   6.301 -0.3572 -0.5731 -1.6802
14057TIP3   OH263661   2.084   6.335   0.305  0.0798 -0.2121 -0.2975
14057TIP3    H163662   2.145   6.268   0.272 -2.2907 -1.1022 -3.1130
14057TIP3    H263663   2.073   6.314   0.397  1.2428 -2.2510 -0.5939
14058TIP3   OH263664   4.984   4.781   0.800 -0.2868  0.4354 -0.1793
14058TIP3    H163665   5.040   4.858   0.795 -0.6145  0.8492  1.9595
14058TIP3    H263666   5.041   4.708   0.775  0.4704  1.1763 -0.6265
14059TIP3   OH263667   3.643   0.187  13.754  0.2467 -0.0480  0.0172
14059TIP3    H163668   3.601   0.273  13.761  0.0516 -0.1007 -0.5025
14059TIP3    H263669   3.667   0.165  13.844  1.9101  1.3617 -0.0508
14060TIP3   OH263670   2.838   5.798   3.669  0.1786  0.2924  0.8091
14060TIP3    H163671   2.849   5.788   3.764  2.1136 -1.0346  0.4920
14060TIP3    H263672   2.841   5.708   3.635 -0.7233  0.7369 -0.4844
14061TIP3   OH263673   6.127   5.291  14.907 -0.1491  1.1456  0.4986
14061TIP3    H163674   6.078   5.285  14.989 -0.3550 -0.1805  0.2883
14061TIP3    H263675   6.081   5.233  14.847 -0.3214  2.5296 -0.7349
14062TIP3   OH263676   5.829   4.389  14.250 -0.4501  0.0411  0.1025
14062TIP3    H163677   5.851   4.370  14.341 -0.2699  0.5528  0.1639
14062TIP3    H263678   5.753   4.448  14.255  0.4532  1.2274 -0.0538
14063TIP3   OH263679   0.718   2.387   2.213  0.1173  0.3468 -0.2711
14063TIP3    H163680   0.719   2.357   2.304 -0.3162 -2.6331 -1.1965
14063TIP3    H263681   0.630   2.422   2.201  0.3033  1.1364  0.5336
14064TIP3   OH263682   0.384   3.622  15.325 -0.3215 -0.1598  0.2396
14064TIP3    H163683   0.396   3.534  15.360  0.7318 -1.0185 -2.2170
14064TIP3    H263684   0.424   3.679  15.391  0.8394 -1.6607  0.8575
14065TIP3   OH263685   3.274   4.142  10.552  0.0588  0.7803  0.0016
14065TIP3    H163686   3.190   4.116  10.589  0.0849  2.6558  1.4640
14065TIP3    H263687   3.333   4.070  10.572 -1.0901 -0.3570 -0.6649
14066TIP3   OH263688   2.560   2.199  17.089 -0.4505  0.3039  0.0350
14066TIP3    H163689   2.589   2.271  17.145 -2.3359  0.4522  0.8511
14066TIP3    H263690   2.567   2.121  17.144  0.7536 -0.0203 -0.5680
14067TIP3   OH263691   2.283   5.282   0.799  0.3476  0.1261  0.3279
14067TIP3    H163692   2.274   5.369   0.838 -0.2163 -0.4398  1.5171
14067TIP3    H263693   2.275   5.222   0.873 -1.5502 -1.0191 -0.7581
14068TIP3   OH263694   0.238   5.857   0.177  0.4734 -0.2983 -0.4245
14068TIP3    H163695   0.152   5.885   0.210  1.5297  1.7989  0.6598
14068TIP3    H263696   0.286   5.830   0.256  1.0659 -0.7686 -0.9392
14069TIP3   OH263697   6.122   1.318  15.696  0.3355 -0.1478  0.9757
14069TIP3    H163698   6.175   1.277  15.627 -0.4824 -0.0912  0.3001
14069TIP3    H263699   6.156   1.407  15.702 -0.2994  0.1820 -0.1267
14070TIP3   OH263700   0.059   6.719  14.201 -0.3178  0.7765  0.3408
14070TIP3    H163701  -0.029   6.700  14.170  0.5512 -1.2273 -1.0079
14070TIP3    H263702   0.066   6.671  14.284  0.2267 -0.9904 -0.6797
14071TIP3   OH263703   0.911   0.839   4.236 -0.0144  0.7173  0.5356
14071TIP3    H163704   0.855   0.917   4.242 -1.7277 -0.5972  2.0538
14071TIP3    H263705   0.920   0.809   4.326 -0.6113 -1.6904 -0.1854
14072TIP3   OH263706   6.345   5.088  14.518 -0.2183 -0.3418  0.3831
14072TIP3    H163707   6.396   5.151  14.568  0.5559 -0.1325 -0.6443
14072TIP3    H263708   6.293   5.141  14.458 -0.9356 -0.6021  0.7619
14073TIP3   OH263709   4.986   2.675   2.705  0.2091 -0.5066 -0.2836
14073TIP3    H163710   4.934   2.637   2.776 -1.0929 -0.6527 -1.3101
14073TIP3    H263711   4.986   2.608   2.637 -0.7807  0.6905 -1.4870
14074TIP3   OH263712   2.002   0.150   1.686 -0.4239  0.2974  0.2880
14074TIP3    H163713   2.021   0.238   1.654 -0.4119 -0.1532 -0.9657
14074TIP3    H263714   1.906   0.145   1.687 -0.6033  1.9416  4.8912
14075TIP3   OH263715   5.682   4.054  16.134 -0.0250  0.1864  0.0933
14075TIP3    H163716   5.719   3.987  16.076 -1.2682  1.0900 -1.7607
14075TIP3    H263717   5.612   4.094  16.083  1.7181  4.0044  0.5829
14076TIP3   OH263718   3.040   0.480  13.137  0.2128 -0.2085 -0.0692
14076TIP3    H163719   2.997   0.499  13.220  0.5038 -0.9466  0.2543
14076TIP3    H263720   3.003   0.396  13.110  0.8693 -0.4530 -0.1943
14077TIP3   OH263721   0.573   0.811   2.061  0.4630 -0.0779  0.3124
14077TIP3    H163722   0.523   0.729   2.057 -0.6242  0.4503  2.2441
14077TIP3    H263723   0.538   0.863   1.988  0.1209 -0.7746 -0.0304
14078TIP3   OH263724   3.776   1.835   6.087  0.2696 -0.3816 -0.5847
14078TIP3    H163725   3.862   1.800   6.063 -0.3229 -0.7657 -2.1973
14078TIP3    H263726   3.787   1.930   6.082  0.3352 -0.4498 -1.7177
14079TIP3   OH263727   1.914   6.293   4.469 -0.2116 -0.2072  0.1929
14079TIP3    H163728   1.821   6.297   4.491  0.0487  3.0764  0.8967
14079TIP3    H263729   1.918   6.230   4.396 -2.5966 -2.3327  1.7823
14080TIP3   OH263730   3.420   6.379  14.503 -0.4325  0.0212 -0.3945
14080TIP3    H163731   3.478   6.324  14.451  0.4232  0.4826  0.0653
14080TIP3    H263732   3.355   6.318  14.539  0.9230 -0.8192  0.6930
14081TIP3   OH263733   5.590   5.659   4.458  0.6491 -0.4294 -0.1003
14081TIP3    H163734   5.550   5.735   4.500  0.0478 -0.6388 -0.2872
14081TIP3    H263735   5.518   5.619   4.409  0.3748 -2.5289  1.9408
14082TIP3   OH263736   5.752   1.804   3.169  0.0225  0.1414 -0.2949
14082TIP3    H163737   5.708   1.723   3.142  0.9663  0.1774 -2.0027
14082TIP3    H263738   5.834   1.804   3.121  1.8234  0.2275  2.6692
14083TIP3   OH263739   3.394   6.756  14.891  0.1686  0.0964  0.4526
14083TIP3    H163740   3.335   6.681  14.883  1.5432 -0.7644 -2.1727
14083TIP3    H263741   3.372   6.811  14.816  0.8583  1.1120  0.9801
14084TIP3   OH263742   3.148   1.007  16.110  0.7523 -0.2585  0.7663
14084TIP3    H163743   3.186   1.028  16.025  1.4013  1.8039  1.5467
14084TIP3    H263744   3.217   1.025  16.174 -0.3638  0.0947  1.9040
14085TIP3   OH263745   6.684   3.344  12.625  0.3718  0.1846 -0.4617
14085TIP3    H163746   6.724   3.385  12.702 -0.3315  2.1591 -1.1256
14085TIP3    H263747   6.703   3.251  12.635  1.7373  0.6207  1.2435
14086TIP3   OH263748   1.684   0.332  16.793  0.1999  0.3465  1.0193
14086TIP3    H163749   1.746   0.263  16.816 -0.1294 -0.6965 -1.0972
14086TIP3    H263750   1.598   0.293  16.805 -0.0411  1.2123  2.2092
14087TIP3   OH263751   5.348   5.829  14.447  0.2476 -0.1357  0.4553
14087TIP3    H163752   5.398   5.780  14.512 -1.0524 -0.2540  1.4025
14087TIP3    H263753   5.261   5.788  14.448  0.7305 -1.3658 -2.7483
14088TIP3   OH263754   2.998   0.177  13.056 -0.5051 -0.3015  0.3748
14088TIP3    H163755   3.006   0.084  13.032 -2.3251 -0.3537 -0.0274
14088TIP3    H263756   3.066   0.189  13.123  0.4560 -1.6541 -0.3260
14089TIP3   OH263757   4.528   4.658   5.892  0.4706 -0.6097  0.4524
14089TIP3    H163758   4.621   4.677   5.889  0.4398 -0.6350 -0.5580
14089TIP3    H263759   4.505   4.666   5.985  1.2907  0.2876  0.5791
14090TIP3   OH263760   4.793   0.862   4.928 -0.0157 -0.0405 -0.5808
14090TIP3    H163761   4.882   0.884   4.952  0.3367  0.6573 -2.4607
14090TIP3    H263762   4.790   0.766   4.931  1.2074 -0.1358 -1.8419
14091TIP3   OH263763   0.483   1.192  17.261  0.7976  0.0838  0.3858
14091TIP3    H163764   0.565   1.161  17.300  0.1996  0.3004  1.8599
14091TIP3    H263765   0.473   1.282  17.292 -0.2286 -0.0953  0.6203
14092TIP3   OH263766   5.308   1.386   1.646  0.5427 -0.0817  0.2356
14092TIP3    H163767   5.268   1.303   1.671  0.0395  0.3891  1.0010
14092TIP3    H263768   5.365   1.408   1.720  2.4572 -0.8870 -0.9519
14093TIP3   OH263769   0.041   5.486  11.584  0.0194 -0.3354 -0.1227
14093TIP3    H163770   0.131   5.464  11.558  0.1514 -1.0906  0.9338
14093TIP3    H263771  -0.012   5.464  11.508  0.6022 -0.9701 -0.3520
14094TIP3   OH263772   2.557   3.147  10.828  0.3749  0.3091 -0.0551
14094TIP3    H163773   2.478   3.198  10.809  0.7504  0.9844  0.1788
14094TIP3    H263774   2.524   3.058  10.847 -0.1988  0.2231 -1.4070
14095TIP3   OH263775   1.073   2.008   4.929  0.2937 -0.1235  0.3768
14095TIP3    H163776   1.033   2.092   4.952 -0.3072 -0.7657  1.7037
14095TIP3    H263777   1.147   2.000   4.988  0.0317 -0.7758  0.6177
14096TIP3   OH263778   3.638   1.117  11.778 -0.0354 -0.0189  0.3757
14096TIP3    H163779   3.596   1.064  11.710  0.0339 -0.2083  0.4819
14096TIP3    H263780   3.590   1.096  11.858 -0.3432  0.4671  0.3193
14097TIP3   OH263781   0.556   4.071  12.970 -0.3555  0.6190  0.2133
14097TIP3    H163782   0.578   4.052  13.061 -0.7896 -0.2609  0.1469
14097TIP3    H263783   0.553   3.985  12.928 -1.6128  0.8875 -0.2906
14098TIP3   OH263784   3.768   6.673  13.459 -0.4388 -0.2047 -0.5698
14098TIP3    H163785   3.719   6.692  13.540 -1.6993 -1.5433 -1.0125
14098TIP3    H263786   3.853   6.717  13.473 -0.3074 -1.1157  1.8456
14099TIP3   OH263787   2.950   5.783  14.027 -0.2991  0.0675  0.1103
14099TIP3    H163788   2.942   5.857  13.967 -1.1008  0.6208  0.8845
14099TIP3    H263789   2.904   5.711  13.983 -0.4141  0.3150 -0.1772
14100TIP3   OH263790   1.630   5.202   2.260 -0.2016 -0.5530 -0.0626
14100TIP3    H163791   1.635   5.297   2.266 -0.1102 -0.4778 -1.2463
14100TIP3    H263792   1.670   5.170   2.341 -2.0199  0.4364  1.2602
14101TIP3   OH263793   0.603   4.360  13.744  0.3325 -0.1564 -0.3608
14101TIP3    H163794   0.539   4.391  13.680 -1.5941  1.4222  2.2379
14101TIP3    H263795   0.639   4.440  13.783  0.8707 -1.0773  1.0908
14102TIP3   OH263796   1.762   6.345   3.086  0.1027 -0.3941  0.4988
14102TIP3    H163797   1.704   6.380   3.018  0.0160 -2.2696 -0.4122
14102TIP3    H263798   1.741   6.252   3.091  2.8333 -1.0652  0.3371
14103TIP3   OH263799   0.162   1.134   0.728 -0.6872 -0.3894  0.5692
14103TIP3    H163800   0.160   1.112   0.821 -0.3834  0.5383  0.7947
14103TIP3    H263801   0.223   1.070   0.690  1.7755  1.2691  1.5617
14104TIP3   OH263802   1.364   1.274   5.829  0.1973  0.0693  0.2649
14104TIP3    H163803   1.307   1.216   5.879  1.1399 -0.7122  0.4466
14104TIP3    H263804   1.304   1.327   5.776 -0.7577  0.4046  1.6751
14105TIP3   OH263805   5.509   2.023   1.866  0.8333  0.0038  0.5201
14105TIP3    H163806   5.491   1.982   1.781 -0.5751 -0.9442  1.2634
14105TIP3    H263807   5.601   2.003   1.883  0.3512 -2.3241  0.5527
14106TIP3   OH263808   0.548   1.325  13.344  0.5046 -0.1256 -0.4530
14106TIP3    H163809   0.519   1.373  13.422 -0.9296 -1.2048 -0.3030
14106TIP3    H263810   0.626   1.372  13.315 -0.0439  1.4313  0.5159
14107TIP3   OH263811   4.973   5.509   4.365 -0.0123  0.1793  0.0989
14107TIP3    H163812   4.944   5.447   4.431 -2.6285  0.7900 -0.4069
14107TIP3    H263813   4.939   5.594   4.395  2.8735  1.2876  0.4025
14108TIP3   OH263814   1.886   5.980  13.766  0.1296  0.2496 -0.0334
14108TIP3    H163815   1.877   6.068  13.803  1.0706  0.6091 -0.6496
14108TIP3    H263816   1.914   5.995  13.676  1.0991 -0.6994  0.1062
14109TIP3   OH263817   1.194   0.825  12.595  0.1453 -0.0359 -0.4249
14109TIP3    H163818   1.111   0.788  12.626  0.3754 -0.4492 -0.2955
14109TIP3    H263819   1.251   0.824  12.672  0.6631 -0.9050 -0.8019
14110TIP3   OH263820   1.607   4.505   3.367 -0.1530  0.6429 -0.3386
14110TIP3    H163821   1.571   4.442   3.429 -2.1700  0.0146 -2.0993
14110TIP3    H263822   1.638   4.578   3.421  0.0623 -0.8267  1.5348
14111TIP3   OH263823   0.723   5.950  15.699  0.1856  0.1411 -0.1929
14111TIP3    H163824   0.725   5.887  15.770  1.5109 -0.1772 -0.5028
14111TIP3    H263825   0.811   5.947  15.661 -0.9752 -0.9589 -2.9456
14112TIP3   OH263826   4.313   5.047  14.056 -0.4318  0.1735  0.0643
14112TIP3    H163827   4.349   5.009  14.137 -1.8077 -0.7779  0.2422
14112TIP3    H263828   4.250   4.982  14.025  0.7913  0.0768 -2.3231
14113TIP3   OH263829   1.190   1.799  16.003 -0.1263 -0.0637  0.3405
14113TIP3    H163830   1.185   1.714  15.959 -0.6897  0.2502 -0.2143
14113TIP3    H263831   1.230   1.780  16.088  0.3345 -0.7830 -0.0362
14114TIP3   OH263832   3.850   3.004  12.526 -0.6062  0.7353  0.1047
14114TIP3    H163833   3.776   2.957  12.565 -1.5257  0.2502 -2.1561
14114TIP3    H263834   3.927   2.966  12.569 -1.4350 -1.6354 -0.4103
14115TIP3   OH263835   5.748   3.701   1.390 -0.0821 -0.1558  0.3126
14115TIP3    H163836   5.735   3.687   1.296 -1.1562  1.4709  0.2041
14115TIP3    H263837   5.675   3.656   1.432 -0.4196  0.3624  0.2827
14116TIP3   OH263838   2.413   0.779  16.777  0.3093  0.3982  0.7215
14116TIP3    H163839   2.475   0.825  16.833  1.1370  0.3663 -0.1510
14116TIP3    H263840   2.419   0.823  16.692 -0.1943 -0.1752  0.3764
14117TIP3   OH263841   2.430   0.823   1.074 -0.4192  0.0439  0.2006
14117TIP3    H163842   2.524   0.807   1.061 -0.4508  0.0874 -0.0878
14117TIP3    H263843   2.395   0.830   0.985 -1.1041 -2.3099  0.2460
14118TIP3   OH263844   0.044   3.344  14.222  0.0135 -0.7766 -0.0846
14118TIP3    H163845   0.013   3.428  14.188  0.7450 -0.2157  0.6079
14118TIP3    H263846   0.138   3.356  14.232 -0.1112 -1.1044  1.6260
14119TIP3   OH263847   3.454   5.335   6.628 -0.3994  0.0825  0.5926
14119TIP3    H163848   3.475   5.349   6.536  0.0303  0.8972  0.8125
14119TIP3    H263849   3.525   5.281   6.662  0.2268  1.0392  0.8116
14120TIP3   OH263850   4.618   2.528  14.894 -0.3158  0.2501 -0.1131
14120TIP3    H163851   4.632   2.572  14.978 -0.6778 -0.0663  0.1158
14120TIP3    H263852   4.659   2.586  14.830 -1.1690  1.1470  0.1354
14121TIP3   OH263853   6.427   4.298  15.219 -0.2837  0.2143  0.6559
14121TIP3    H163854   6.471   4.299  15.134 -1.8504  0.6639 -0.1627
14121TIP3    H263855   6.472   4.229  15.268  2.1147  1.4475  0.2749
14122TIP3   OH263856   1.207   1.227  14.970  0.0732 -0.2228 -0.2610
14122TIP3    H163857   1.121   1.209  15.008 -0.8470  0.1873 -2.1097
14122TIP3    H263858   1.193   1.220  14.875  2.0421 -0.0027 -0.5771
14123TIP3   OH263859   1.825   6.355   6.080  0.5063 -0.4595 -0.0761
14123TIP3    H163860   1.775   6.389   6.154 -0.6828  0.0086 -1.0775
14123TIP3    H263861   1.910   6.399   6.086 -0.4543  1.4829 -0.4319
14124TIP3   OH263862   5.791   4.694   5.847 -0.0991  0.4629 -0.3382
14124TIP3    H163863   5.718   4.643   5.883  0.0067  1.0419  0.6903
14124TIP3    H263864   5.865   4.673   5.902 -0.1646  2.1077  0.4101
14125TIP3   OH263865   2.973   5.015  11.821 -0.2281  0.1327 -0.1386
14125TIP3    H163866   2.906   4.959  11.861 -1.6713  1.0895 -1.1843
14125TIP3    H263867   2.950   5.018  11.728  0.5656  1.4318 -0.3041
14126TIP3   OH263868   6.664   2.311  11.755 -0.2896 -0.0504  0.8719
14126TIP3    H163869   6.573   2.319  11.729 -0.5376  1.1772  2.0721
14126TIP3    H263870   6.687   2.220  11.737 -1.8231 -0.4335  0.8459
14127TIP3   OH263871   2.239   0.651   6.324 -0.9277 -0.0268  0.0311
14127TIP3    H163872   2.265   0.723   6.266 -0.9734 -0.7764 -0.9376
14127TIP3    H263873   2.179   0.692   6.387  0.4959  1.1643  0.6481
14128TIP3   OH263874   0.336   4.472  15.858 -0.3097  0.3350 -0.3282
14128TIP3    H163875   0.425   4.474  15.821  0.0051  0.9877  0.4514
14128TIP3    H263876   0.350   4.458  15.952 -1.1124 -1.6218 -0.4727
14129TIP3   OH263877   4.693   2.701  12.790  0.5762  0.1693 -0.0295
14129TIP3    H163878   4.690   2.762  12.864  0.9676  1.5725 -1.1454
14129TIP3    H263879   4.779   2.660  12.795 -0.1969 -1.3295  1.5165
14130TIP3   OH263880   3.800   4.655  14.537 -0.5038 -0.1709  0.5782
14130TIP3    H163881   3.814   4.747  14.560  2.3751 -0.3875 -0.1330
14130TIP3    H263882   3.799   4.609  14.622  2.3548  0.0102  0.7612
14131TIP3   OH263883   0.765   1.289   1.817 -0.1351  0.1793  0.2359
14131TIP3    H163884   0.763   1.330   1.904 -1.1775 -0.6482  0.6210
14131TIP3    H263885   0.823   1.345   1.765  1.6288 -0.0979  1.8487
14132TIP3   OH263886   3.885   0.067   0.239 -0.1373 -0.3233 -0.4992
14132TIP3    H163887   3.895  -0.011   0.293  0.0917  0.4838  0.6289
14132TIP3    H263888   3.829   0.038   0.167 -0.6304 -1.3496  0.2745
14133TIP3   OH263889   5.776   5.065  11.366  0.1606  0.2886 -0.0810
14133TIP3    H163890   5.707   5.131  11.376 -0.7346 -0.5289 -0.7858
14133TIP3    H263891   5.830   5.099  11.294  0.6900  1.0917  0.6911
14134TIP3   OH263892   4.563   4.883   0.861 -0.2534  0.2330 -0.0574
14134TIP3    H163893   4.499   4.812   0.863 -0.4946  0.4407 -0.3716
14134TIP3    H263894   4.512   4.963   0.872 -0.0854  0.4215 -0.6140
14135TIP3   OH263895   1.951   2.723   1.957 -0.0351 -0.3942 -0.1412
14135TIP3    H163896   2.044   2.737   1.973  0.3947 -1.9956 -1.1241
14135TIP3    H263897   1.912   2.810   1.968  1.5807  0.3263  0.1607
14136TIP3   OH263898   1.908   0.118   1.422 -0.2698 -0.0379  0.1227
14136TIP3    H163899   1.996   0.108   1.459 -1.2432 -1.9026  2.0581
14136TIP3    H263900   1.862   0.038   1.448 -2.2628  0.4604 -1.6947
14137TIP3   OH263901   4.795   2.940   2.268  0.4637 -1.1193  0.1984
14137TIP3    H163902   4.730   3.003   2.236  1.2717 -1.2116 -1.6968
14137TIP3    H263903   4.743   2.873   2.314 -0.4875  0.3838  1.3395
14138TIP3   OH263904   0.835   3.335  11.703  0.7087  0.2923 -0.2618
14138TIP3    H163905   0.872   3.368  11.784  2.4150  0.7420 -1.2122
14138TIP3    H263906   0.804   3.413  11.657  0.8619  0.1538 -0.5982
14139TIP3   OH263907   5.529   1.511  15.354  0.1670  0.0209  0.3140
14139TIP3    H163908   5.455   1.456  15.380 -0.2208  0.6506  0.5640
14139TIP3    H263909   5.527   1.584  15.416 -0.3833  1.2223 -1.0955
14140TIP3   OH263910   0.117   3.205  13.901  0.5397 -0.4729 -0.0786
14140TIP3    H163911   0.175   3.214  13.976  1.3286  1.5118 -0.8866
14140TIP3    H263912   0.038   3.253  13.926  0.1288 -1.2342  0.1189
14141TIP3   OH263913   5.323   1.576  13.304  0.1118  0.8546 -0.8163
14141TIP3    H163914   5.299   1.658  13.260  1.2268  1.2570 -0.6963
14141TIP3    H263915   5.253   1.515  13.280 -0.9319  1.9416 -0.5895
14142TIP3   OH263916   0.091   1.249   0.149 -0.4071  0.3050 -0.2669
14142TIP3    H163917   0.046   1.167   0.168  0.5519 -0.2701 -0.4635
14142TIP3    H263918   0.083   1.259   0.054  3.0858 -1.7190 -0.8500
14143TIP3   OH263919   6.307   6.479  16.059  0.2168  0.1699  0.2514
14143TIP3    H163920   6.242   6.415  16.029  2.0380 -0.7251 -1.9308
14143TIP3    H263921   6.350   6.436  16.134 -0.4667  0.0187  0.5616
14144TIP3   OH263922   0.525   2.835  14.312 -0.3219 -0.4146 -0.0615
14144TIP3    H163923   0.565   2.751  14.335 -0.4247 -0.5423 -0.3620
14144TIP3    H263924   0.591   2.900  14.338 -0.4649 -0.5546  0.6769
14145TIP3   OH263925   1.256   2.958  17.156 -0.1773 -0.0992  0.5901
14145TIP3    H163926   1.272   2.875  17.201  0.1811 -1.3804 -1.7951
14145TIP3    H263927   1.301   3.024  17.210 -0.8099 -1.3854  2.7282
14146TIP3   OH263928   3.995   5.424   0.479 -0.4281 -0.4368 -0.5558
14146TIP3    H163929   3.945   5.503   0.502  0.1684  0.5422 -2.4782
14146TIP3    H263930   4.086   5.454   0.477  0.0981 -1.8410  1.3698
14147TIP3   OH263931   3.680   4.166   5.302 -0.0656 -0.8255  0.4268
14147TIP3    H163932   3.723   4.244   5.269 -0.5713 -0.7220  0.0085
14147TIP3    H263933   3.635   4.128   5.226 -0.0887 -1.3421  0.6941
14148TIP3   OH263934   6.022   1.088   3.571  0.2796 -0.2054  0.1513
14148TIP3    H163935   5.964   1.128   3.506  0.8496  1.6608  0.7890
14148TIP3    H263936   5.965   1.072   3.646  0.6823  2.1989  1.0088
14149TIP3   OH263937   2.527   4.822  14.157 -0.1954  0.6892 -0.0180
14149TIP3    H163938   2.611   4.813  14.111 -0.1835 -0.1370  0.1649
14149TIP3    H263939   2.464   4.780  14.099 -0.0390 -1.1703  1.1276
14150TIP3   OH263940   2.869   1.453  11.709 -0.1511 -1.0450 -0.0038
14150TIP3    H163941   2.917   1.523  11.665  1.0805 -0.5378  2.1176
14150TIP3    H263942   2.795   1.497  11.751 -2.0046 -1.6916 -2.4527
14151TIP3   OH263943   4.601   5.154   0.047  0.5109 -0.2104 -0.4453
14151TIP3    H163944   4.516   5.119   0.072 -0.5079  2.2939 -0.2815
14151TIP3    H263945   4.664   5.102   0.096 -1.0048 -1.0678  0.6134
14152TIP3   OH263946   1.130   3.542   2.245  0.2968  0.6028  0.2253
14152TIP3    H163947   1.189   3.576   2.178  0.9295  2.0389  1.4952
14152TIP3    H263948   1.186   3.519   2.319 -0.2980 -1.7827 -0.0092
14153TIP3   OH263949   2.584   0.875  17.011  0.1574  0.4908  0.3664
14153TIP3    H163950   2.561   0.932  17.084  1.6108 -0.3012  1.4921
14153TIP3    H263951   2.562   0.787  17.041  2.7731 -0.0818  0.7547
14154TIP3   OH263952   4.759   3.405  13.799 -0.4231  0.1079  0.0178
14154TIP3    H163953   4.707   3.477  13.835  1.7275  1.3527  0.7655
14154TIP3    H263954   4.840   3.407  13.850 -0.0408 -2.4089 -0.4474
14155TIP3   OH263955   5.020   5.713  15.168 -0.0034 -0.0646 -0.0535
14155TIP3    H163956   5.109   5.680  15.165 -0.8860 -2.6401  0.9592
14155TIP3    H263957   4.998   5.731  15.077  1.3902  0.1877 -0.3536
14156TIP3   OH263958   3.782   5.077   2.046  0.4429 -0.5712  0.4258
14156TIP3    H163959   3.825   5.149   1.999  0.8656 -0.7890  0.4681
14156TIP3    H263960   3.689   5.095   2.038  0.5389 -0.1586  0.2124
14157TIP3   OH263961   5.225   4.895   1.213 -0.3887  0.0944 -0.2183
14157TIP3    H163962   5.284   4.960   1.176  0.9776 -0.6360  0.6117
14157TIP3    H263963   5.170   4.943   1.274 -1.4803  0.9959 -1.8849
14158TIP3   OH263964   3.974   6.629   5.257  0.2484  0.2905 -0.4278
14158TIP3    H163965   3.925   6.614   5.338 -0.5065 -1.8275 -1.2471
14158TIP3    H263966   4.066   6.630   5.284 -0.0552  0.8398  0.6086
14159TIP3   OH263967   0.885   1.817   5.558 -0.2346  0.0268 -0.4023
14159TIP3    H163968   0.940   1.773   5.622 -0.5099  1.2548  0.6994
14159TIP3    H263969   0.918   1.907   5.555 -1.2137  0.3864 -0.8116
14160TIP3   OH263970   6.315   0.921  12.869  0.2320  0.3126  1.0531
14160TIP3    H163971   6.264   0.933  12.789  1.1722  1.7902  0.6548
14160TIP3    H263972   6.253   0.939  12.940 -0.5825 -0.9188  0.6831
14161TIP3   OH263973   3.970   2.656  11.298  0.4281 -0.5523 -0.2316
14161TIP3    H163974   4.032   2.677  11.367  0.1080  0.6493 -0.2948
14161TIP3    H263975   3.991   2.718  11.228 -2.2691  1.4182  0.6078
14162TIP3   OH263976   1.033   5.324   4.801 -0.4584 -0.2200 -0.4567
14162TIP3    H163977   1.013   5.231   4.800 -0.0450 -0.3123 -0.4289
14162TIP3    H263978   1.059   5.344   4.711  0.1307 -0.2869 -0.3054
14163TIP3   OH263979   0.931   5.141   5.505 -0.2554  0.3070 -0.4145
14163TIP3    H163980   1.011   5.109   5.548 -0.2884 -0.8429 -1.1865
14163TIP3    H263981   0.941   5.236   5.505  1.2046  0.1742 -0.6854
14164TIP3   OH263982   5.629   1.719  12.131  0.2164  0.0272  0.4521
14164TIP3    H163983   5.571   1.769  12.189 -0.0686 -0.4607  0.5878
14164TIP3    H263984   5.646   1.638  12.179  1.4919  0.4178  0.6726
14165TIP3   OH263985   2.624   3.272  12.922 -0.3441  0.2161 -0.1231
14165TIP3    H163986   2.619   3.217  13.000 -0.7540 -0.3461 -0.5476
14165TIP3    H263987   2.714   3.259  12.890 -0.3847 -0.0728 -0.1245
14166TIP3   OH263988   0.361   6.794  15.150 -0.0706  0.1248  0.2682
14166TIP3    H163989   0.299   6.744  15.096 -0.1723 -0.5307  0.9793
14166TIP3    H263990   0.406   6.727  15.201 -0.1040  0.7595  1.1295
14167TIP3   OH263991   3.025   1.902   5.875  0.7421  0.7579  0.0861
14167TIP3    H163992   2.969   1.941   5.942  0.6136  0.2771  0.2618
14167TIP3    H263993   3.097   1.863   5.925  1.1150  1.1776 -0.1228
14168TIP3   OH263994   6.787   4.062  13.913  0.1238 -0.3379 -0.4153
14168TIP3    H163995   6.796   4.020  13.999  2.1132  0.2919 -0.2758
14168TIP3    H263996   6.830   4.001  13.853 -1.1561 -0.7193 -0.9411
14169TIP3   OH263997   0.306   3.562  14.292 -0.3772  0.2261 -0.0238
14169TIP3    H163998   0.346   3.476  14.304 -0.7617  0.1513  0.7619
14169TIP3    H263999   0.350   3.599  14.215  0.4526 -0.2870  0.2015
14170TIP3   OH264000   4.035   2.620  14.137 -0.5054  0.1942  0.4005
14170TIP3    H164001   3.971   2.636  14.207  1.1560 -0.7433  2.1807
14170TIP3    H264002   4.114   2.666  14.165 -0.2921  1.1593 -1.6749
14171TIP3   OH264003   4.486   2.448  14.648 -0.4151 -0.4559 -0.3711
14171TIP3    H164004   4.499   2.507  14.722 -0.3555 -0.0033 -0.7434
14171TIP3    H264005   4.510   2.362  14.682 -0.9111 -0.3366  0.3014
14172TIP3   OH264006   4.447   2.296  12.666  0.3228  0.8100  0.2108
14172TIP3    H164007   4.373   2.280  12.607 -0.4318  0.2664  1.3031
14172TIP3    H264008   4.506   2.222  12.650  0.1463  0.6936  0.0870
14173TIP3   OH264009   5.321   0.341   3.695  0.0567  0.2916  0.1747
14173TIP3    H164010   5.276   0.271   3.743 -0.4798  0.2157 -0.4239
14173TIP3    H264011   5.402   0.356   3.744 -1.1802  1.2780  1.9883
14174TIP3   OH264012   6.569   6.308   4.385 -0.3889  0.4241 -0.1462
14174TIP3    H164013   6.561   6.401   4.407  0.4056  0.5394 -0.3404
14174TIP3    H264014   6.652   6.281   4.424 -0.0759  0.0741 -1.0360
14175TIP3   OH264015   5.338   5.559  13.649 -0.9215  0.1413  0.0133
14175TIP3    H164016   5.331   5.612  13.569 -1.4365 -0.0423 -0.0633
14175TIP3    H264017   5.367   5.621  13.716 -1.2984  0.4739 -0.1269
14176TIP3   OH264018   1.153   3.824  13.749  0.3783  0.7456 -0.3356
14176TIP3    H164019   1.106   3.904  13.774  1.2140  0.7341  1.4201
14176TIP3    H264020   1.126   3.759  13.814  1.0099  0.0859 -0.7201
14177TIP3   OH264021   0.788   6.533   1.233 -1.1660 -0.4666  0.2359
14177TIP3    H164022   0.712   6.499   1.279 -0.6131 -0.1434  1.4183
14177TIP3    H264023   0.784   6.628   1.247  0.3623 -0.5946  1.7833
14178TIP3   OH264024   2.304   1.114  15.735 -0.3463  0.4048 -0.3525
14178TIP3    H164025   2.384   1.098  15.685  0.6794 -1.4808  1.7722
14178TIP3    H264026   2.239   1.056  15.695  0.1737 -0.2902 -0.2060
14179TIP3   OH264027   5.878   0.310  16.133 -0.2464 -0.1639 -0.1692
14179TIP3    H164028   5.929   0.353  16.202 -1.3019  1.3808 -0.3326
14179TIP3    H264029   5.930   0.322  16.054 -0.8053  1.3536 -0.3225
14180TIP3   OH264030   0.105   0.402  11.526  0.2486  0.4763 -0.3037
14180TIP3    H164031   0.110   0.409  11.431 -0.6506 -0.2255 -0.4053
14180TIP3    H264032   0.082   0.310  11.543 -0.7584  0.8648  0.5392
14181TIP3   OH264033   3.281   6.782  16.525 -0.9514 -0.1562 -0.2037
14181TIP3    H164034   3.289   6.688  16.509  3.6233 -0.0117  0.4579
14181TIP3    H264035   3.279   6.821  16.437  0.9761 -0.7137 -0.5254
14182TIP3   OH264036   3.679   4.482   1.484 -0.5517 -0.0307  0.4956
14182TIP3    H164037   3.761   4.507   1.441 -0.3660  0.2752  1.0217
14182TIP3    H264038   3.695   4.498   1.577 -0.7119 -1.3445  0.7621
14183TIP3   OH264039   3.312   4.940   4.679  0.1317  0.0424  0.0465
14183TIP3    H164040   3.281   4.908   4.763 -1.4887  4.1923  1.1506
14183TIP3    H264041   3.405   4.958   4.693 -0.0269  0.2738  0.8326
14184TIP3   OH264042   6.018   1.011   2.226 -0.2536  0.6249  0.5011
14184TIP3    H164043   5.940   0.979   2.182  0.7973 -1.4549  0.0637
14184TIP3    H264044   5.985   1.053   2.305 -1.8340 -0.1780  0.2967
14185TIP3   OH264045   0.959   0.624   0.043 -0.1292  0.3659  0.4440
14185TIP3    H164046   0.956   0.529   0.028 -0.3111  0.5810 -0.8783
14185TIP3    H264047   0.869   0.646   0.069  0.3725 -0.1302  2.7181
14186TIP3   OH264048   4.770   1.448   1.684  0.1646 -0.5814  0.0149
14186TIP3    H164049   4.774   1.359   1.718  0.4725 -0.7445 -0.4546
14186TIP3    H264050   4.698   1.447   1.621 -3.4318  0.8064  3.8627
14187TIP3   OH264051   3.166   4.902  12.801 -0.4277 -0.2298  0.0994
14187TIP3    H164052   3.185   4.860  12.717 -2.0278 -1.0856  0.1609
14187TIP3    H264053   3.089   4.856  12.835 -1.0595  1.4808  1.0567
14188TIP3   OH264054   3.796   6.258   1.984  0.1950 -0.2287  0.4103
14188TIP3    H164055   3.746   6.202   1.925  2.1078 -1.4467 -0.0838
14188TIP3    H264056   3.840   6.198   2.044  0.7442  0.8452  1.1001
14189TIP3   OH264057   6.388   6.138  12.310 -0.2039 -0.5985  0.0784
14189TIP3    H164058   6.428   6.106  12.229  1.7879 -0.8866  1.1466
14189TIP3    H264059   6.398   6.234  12.305 -2.2834 -0.4275 -1.1258
14190TIP3   OH264060   1.451   4.993  10.834  0.1823  1.3794  0.3118
14190TIP3    H164061   1.382   4.943  10.790  2.2287 -0.6425 -0.6889
14190TIP3    H264062   1.429   5.084  10.817 -0.8684  0.7085 -2.1452
14191TIP3   OH264063   6.000   0.416  13.848  0.2364  0.4630  0.7274
14191TIP3    H164064   6.091   0.387  13.851  1.0269  2.6965 -0.5963
14191TIP3    H264065   5.972   0.417  13.940  1.7078  0.2626  1.1917
14192TIP3   OH264066   3.092   2.810   0.932  0.3448  0.1587 -0.1307
14192TIP3    H164067   3.042   2.757   0.995  1.0169 -0.7013 -0.3048
14192TIP3    H264068   3.106   2.894   0.977  2.5896 -1.1362  1.7276
14193TIP3   OH264069   3.274   0.860   4.856 -0.0268  0.2729 -0.1378
14193TIP3    H164070   3.184   0.883   4.833  0.4197  1.9969 -0.2421
14193TIP3    H264071   3.315   0.944   4.877  1.4262 -0.5552  0.3666
14194TIP3   OH264072   4.410   5.143   0.935  0.1014  0.3327 -0.4943
14194TIP3    H164073   4.454   5.221   0.968  0.7796  0.4047 -1.5643
14194TIP3    H264074   4.323   5.147   0.974  0.5183  0.9976  0.4047
14195TIP3   OH264075   4.564   4.159  16.097  0.2281 -0.2450 -0.4338
14195TIP3    H164076   4.482   4.139  16.143 -0.3763  1.5473 -0.6736
14195TIP3    H264077   4.540   4.156  16.004  0.2354  1.0162 -0.4870
14196TIP3   OH264078   5.236   1.598   4.734  0.5870 -0.4643 -0.7054
14196TIP3    H164079   5.315   1.610   4.788  1.6260  0.1482 -2.3278
14196TIP3    H264080   5.262   1.532   4.669 -0.2863 -0.3745 -1.1501
14197TIP3   OH264081   2.082   4.183  17.095  0.6541 -0.4723 -0.6032
14197TIP3    H164082   1.987   4.191  17.107  0.7510  0.0827 -0.1994
14197TIP3    H264083   2.114   4.142  17.175  0.9738  0.9292  0.0010
14198TIP3   OH264084   6.349   1.029   1.660 -0.1084 -0.4634  0.6951
14198TIP3    H164085   6.351   0.933   1.656 -0.3582 -0.3823 -1.8375
14198TIP3    H264086   6.258   1.050   1.683 -0.8461 -0.7768 -1.8036
14199TIP3   OH264087   2.248   6.507   2.674  0.3846 -0.0495 -0.3108
14199TIP3    H164088   2.204   6.464   2.600  0.0512  0.7008 -0.5569
14199TIP3    H264089   2.199   6.477   2.751 -2.9859  3.6157 -0.8630
14200TIP3   OH264090   5.745   1.614   0.851 -0.0313 -0.3203  0.2026
14200TIP3    H164091   5.741   1.675   0.924 -1.5852  0.3091 -0.3799
14200TIP3    H264092   5.836   1.584   0.849  0.6011  1.4901  0.8906
14201TIP3   OH264093   6.205   1.589   0.239 -0.3538 -0.0051 -0.1669
14201TIP3    H164094   6.129   1.628   0.282  1.7815  2.3411  1.6642
14201TIP3    H264095   6.231   1.517   0.297 -0.3669  0.0406 -0.1047
14202TIP3   OH264096   2.420   5.761   2.985 -0.6368  0.1128  0.1975
14202TIP3    H164097   2.497   5.805   3.022 -0.5219 -0.7611  1.0227
14202TIP3    H264098   2.447   5.737   2.897 -1.0744  2.6488 -0.6835
14203TIP3   OH264099   6.736   4.976   3.097 -0.2236  0.0024  0.0036
14203TIP3    H164100   6.750   4.921   3.174  0.4297 -0.9999 -0.8267
14203TIP3    H264101   6.663   5.034   3.121 -1.0264 -1.3409  0.8068
14204TIP3   OH264102   1.718   5.578  16.441 -0.3291 -0.0902 -0.0702
14204TIP3    H164103   1.759   5.653  16.483 -2.3681 -0.8515  3.4340
14204TIP3    H264104   1.629   5.608  16.421 -0.6119 -1.0136 -0.2178
14205TIP3   OH264105   3.933   1.849  14.740 -0.1734  0.1089 -0.6290
14205TIP3    H164106   3.913   1.886  14.826  0.3226  4.1993 -2.1429
14205TIP3    H264107   4.016   1.803  14.752 -0.2398  0.4023  1.1176
14206TIP3   OH264108   1.649   2.180   5.948  0.0124  0.3692 -0.2925
14206TIP3    H164109   1.742   2.157   5.935 -0.2426 -0.8341 -0.0703
14206TIP3    H264110   1.603   2.132   5.879 -0.4605  0.8233 -0.2918
14207TIP3   OH264111   4.493   2.055   1.532  0.0451 -0.9491 -0.4507
14207TIP3    H164112   4.521   2.097   1.613  0.8886  0.1987 -1.3074
14207TIP3    H264113   4.547   1.976   1.525  0.1460 -0.9175 -0.0246
14208TIP3   OH264114   5.442   1.945   2.704 -0.6398  0.0038 -0.3815
14208TIP3    H164115   5.462   1.864   2.752 -0.6727  0.3162  0.1746
14208TIP3    H264116   5.400   1.916   2.624 -0.0872 -0.5606 -0.4727
14209TIP3   OH264117   4.216   0.252  14.384  0.3194  0.4719 -0.1105
14209TIP3    H164118   4.131   0.219  14.411  0.2368  0.2996 -0.5838
14209TIP3    H264119   4.239   0.315  14.452  0.3928 -0.4089  0.6849
14210TIP3   OH264120   3.440   1.145   5.621  0.8886 -0.5213  0.1025
14210TIP3    H164121   3.529   1.149   5.655  0.8547 -0.8236  0.2231
14210TIP3    H264122   3.444   1.192   5.537  1.0470 -0.0769  0.3576
14211TIP3   OH264123   1.010   6.495  12.830  0.1484  0.4976 -0.4945
14211TIP3    H164124   0.927   6.490  12.784 -1.2337  0.4295  1.9080
14211TIP3    H264125   1.044   6.582  12.810 -1.4460  1.2528  0.0340
14212TIP3   OH264126   2.449   2.697   1.686  0.0649  0.3884  0.0031
14212TIP3    H164127   2.543   2.679   1.691  0.0525  0.1959 -0.4469
14212TIP3    H264128   2.407   2.613   1.707 -0.0012  0.2782 -0.5644
14213TIP3   OH264129   2.933   1.575  15.039 -0.4852  0.3719  0.1128
14213TIP3    H164130   2.872   1.501  15.044  0.5491 -0.4687  0.5656
14213TIP3    H264131   2.878   1.650  15.016 -1.7346 -0.3011  0.8408
14214TIP3   OH264132   5.661   2.266  11.929  0.5538  0.0894 -0.1630
14214TIP3    H164133   5.679   2.189  11.983  1.6778  0.0120 -0.6347
14214TIP3    H264134   5.730   2.328  11.951 -0.7300  1.2468  0.7108
14215TIP3   OH264135   5.260   5.198  13.362  0.0820 -0.0359 -0.2633
14215TIP3    H164136   5.266   5.102  13.369  0.4097 -0.0745 -1.0127
14215TIP3    H264137   5.330   5.231  13.419 -0.9142 -0.1997  1.0977
14216TIP3   OH264138   4.743   1.995  10.687 -0.3190 -0.1722 -0.5738
14216TIP3    H164139   4.715   1.957  10.604  1.5372 -0.4591 -1.0858
14216TIP3    H264140   4.787   1.923  10.733 -0.0293  0.3761  0.0113
14217TIP3   OH264141   4.603   3.715  13.293 -0.1937 -0.3625 -0.4917
14217TIP3    H164142   4.527   3.684  13.243 -0.3397  0.3006 -0.6925
14217TIP3    H264143   4.566   3.756  13.371  0.0533 -1.7346  0.3589
14218TIP3   OH264144   0.863   1.407   5.248 -0.1099  0.6095 -0.0524
14218TIP3    H164145   0.797   1.369   5.306 -0.4548  0.5260 -0.4990
14218TIP3    H264146   0.834   1.497   5.235  0.0661  0.6811  0.0508
14219TIP3   OH264147   0.552   1.394   1.335  0.0732 -0.0207  0.4672
14219TIP3    H164148   0.584   1.375   1.423 -1.3959  0.4609  1.1214
14219TIP3    H264149   0.505   1.315   1.309  1.9546 -0.8164 -0.5848
14220TIP3   OH264150   4.063   1.982  13.261  0.0156  0.0895 -0.6104
14220TIP3    H164151   4.057   2.008  13.169  2.4783 -0.0528 -0.8498
14220TIP3    H264152   4.006   1.904  13.267  0.9615 -0.7749 -2.3638
14221TIP3   OH264153   0.386   0.229  12.301 -0.1752 -0.3536 -0.2655
14221TIP3    H164154   0.305   0.184  12.277 -0.9793  0.4324  0.8916
14221TIP3    H264155   0.358   0.317  12.325  0.7746 -0.5896  1.8631
14222TIP3   OH264156   3.109   0.736   5.806  0.2345  0.3700  0.4497
14222TIP3    H164157   3.072   0.825   5.802  0.3598  0.3975 -0.1195
14222TIP3    H264158   3.109   0.715   5.900  2.0858  1.7726  0.7799
14223TIP3   OH264159   1.252   1.491  12.382  0.0770  0.4573  0.1024
14223TIP3    H164160   1.177   1.453  12.335  0.2608  1.6504 -1.1889
14223TIP3    H264161   1.213   1.546  12.449 -0.2084  0.6715 -0.2343
14224TIP3   OH264162   5.278   4.288  16.409  0.4723  0.3102 -0.2830
14224TIP3    H164163   5.346   4.256  16.350 -1.5189 -0.2400 -2.3691
14224TIP3    H264164   5.212   4.218  16.411 -0.7841  1.4711  0.4308
14225TIP3   OH264165   6.244   1.796   3.835 -0.0780  0.1146  0.1883
14225TIP3    H164166   6.247   1.773   3.742  0.2055 -2.0536  0.7025
14225TIP3    H264167   6.318   1.854   3.848  0.8992 -0.9288 -0.6226
14226TIP3   OH264168   2.509   6.519   3.111  0.4801  0.0699  0.4418
14226TIP3    H164169   2.474   6.472   3.187  0.3792  0.3563  0.5730
14226TIP3    H264170   2.502   6.611   3.135 -0.7662  0.2219 -0.4384
14227TIP3   OH264171   3.019   5.496   0.358  0.6315 -0.4449  0.0197
14227TIP3    H164172   2.983   5.578   0.391  1.9407  0.4867 -0.8629
14227TIP3    H264173   3.042   5.447   0.437  0.3275  0.2381  0.5390
14228TIP3   OH264174   1.222   5.928  15.721 -0.2955  0.5839 -0.1241
14228TIP3    H164175   1.264   5.858  15.772 -0.7910 -1.5521 -2.4896
14228TIP3    H264176   1.143   5.950  15.770 -0.1435 -0.5706  0.6717
14229TIP3   OH264177   6.805   2.387  12.386  0.8508  0.1438  0.5338
14229TIP3    H164178   6.899   2.402  12.394  0.8830  0.5060 -0.4291
14229TIP3    H264179   6.767   2.474  12.375  0.4031 -0.0050  0.8736
14230TIP3   OH264180   2.100   6.550   5.167 -0.5407 -0.3842 -0.1515
14230TIP3    H164181   2.059   6.467   5.142  0.0024 -0.4036 -1.0180
14230TIP3    H264182   2.090   6.555   5.262 -1.9508 -0.7077 -0.2698
14231TIP3   OH264183   5.865   1.222  15.202  0.1465 -0.3072 -0.3135
14231TIP3    H164184   5.824   1.180  15.278 -0.8200  0.0545 -0.6233
14231TIP3    H264185   5.813   1.301  15.188  0.8121  0.0306 -0.8694
14232TIP3   OH264186   5.051   1.489   1.124 -0.5208  0.0998  0.1681
14232TIP3    H164187   5.049   1.397   1.099  1.9155 -0.2748  1.1904
14232TIP3    H264188   4.991   1.495   1.198  0.8400 -1.1077  1.3988
14233TIP3   OH264189   3.926   3.030  13.696 -0.4859 -0.2066  0.2151
14233TIP3    H164190   3.934   2.941  13.728 -1.1310 -0.8220 -1.2836
14233TIP3    H264191   3.832   3.050  13.703 -0.7231 -0.5409 -1.7054
14234TIP3   OH264192   2.241   0.982   2.640 -1.2407  0.7392  0.1239
14234TIP3    H164193   2.147   0.966   2.628 -1.0303  0.4421 -1.1980
14234TIP3    H264194   2.271   1.013   2.555  0.0623 -0.1223  0.2583
14235TIP3   OH264195   1.775   0.965   4.138 -0.0657  0.2653 -0.4536
14235TIP3    H164196   1.813   0.979   4.052  1.5559  0.0333  0.2055
14235TIP3    H264197   1.737   0.877   4.134 -0.0179  0.2665 -0.9398
14236TIP3   OH264198   3.181   5.580  12.755 -0.0471  0.0756 -0.2440
14236TIP3    H164199   3.159   5.657  12.808 -1.2203  0.4095 -1.1710
14236TIP3    H264200   3.202   5.512  12.818 -0.6300  0.6993  0.6317
14237TIP3   OH264201   4.377   6.215   0.307  0.4415 -0.3446 -0.0562
14237TIP3    H164202   4.415   6.234   0.221 -0.0272 -0.4260 -0.2850
14237TIP3    H264203   4.289   6.252   0.303  1.0226  1.1800  1.0109
14238TIP3   OH264204   6.608   0.651   0.150 -0.5656 -0.3081  0.4450
14238TIP3    H164205   6.529   0.706   0.154 -0.9085 -0.7197 -0.5643
14238TIP3    H264206   6.639   0.660   0.060  0.3382 -0.4385  0.7440
14239TIP3   OH264207   3.495   3.192  17.210  0.1575 -0.0255 -0.6254
14239TIP3    H164208   3.464   3.282  17.220  0.0239  0.1393 -2.3798
14239TIP3    H264209   3.418   3.138  17.228 -0.4246  0.2996 -2.0577
14240TIP3   OH264210   2.939   5.998   5.079 -0.3735 -0.8926  0.3072
14240TIP3    H164211   2.939   6.093   5.082  0.0952 -0.8969  0.5021
14240TIP3    H264212   2.941   5.971   5.171  1.9293 -1.0733  0.2384
14241TIP3   OH264213   3.221   3.708   4.939 -0.1851 -0.1100  0.5860
14241TIP3    H164214   3.225   3.751   4.854 -2.6339 -1.0584 -0.0576
14241TIP3    H264215   3.209   3.780   5.001 -1.1045  0.4106 -0.1693
14242TIP3   OH264216   5.434   5.278  12.997 -0.3774  0.2481  0.3644
14242TIP3    H164217   5.402   5.368  12.985  0.8844  0.7533  0.6637
14242TIP3    H264218   5.370   5.223  12.953 -1.6573  1.2320  0.9567
14243TIP3   OH264219   0.660   5.239   1.888 -0.1345 -0.0354 -0.3127
14243TIP3    H164220   0.657   5.285   1.972  0.2803  0.5763 -0.6278
14243TIP3    H264221   0.625   5.152   1.907 -2.7998  1.0189 -0.1140
14244TIP3   OH264222   3.832   0.385   1.943 -0.5744 -0.0276 -0.0737
14244TIP3    H164223   3.749   0.426   1.968 -0.6222 -0.7982  1.0396
14244TIP3    H264224   3.899   0.451   1.963 -0.8901  0.4921 -0.7245
14245TIP3   OH264225   2.278   1.796  13.431  0.2111 -0.0134  0.1394
14245TIP3    H164226   2.272   1.858  13.358  0.3089 -0.2800 -0.0976
14245TIP3    H264227   2.310   1.848  13.505  2.1003 -0.1713 -0.5350
14246TIP3   OH264228   4.064   1.678  15.062  0.2265 -0.7878 -0.4708
14246TIP3    H164229   3.987   1.722  15.026  1.3261  0.9005 -0.8145
14246TIP3    H264230   4.082   1.608  15.000 -3.2628 -3.7045  1.5693
14247TIP3   OH264231   6.198   6.738   1.806 -0.1472 -0.1383 -0.0044
14247TIP3    H164232   6.212   6.779   1.891  1.4492 -1.8543  0.6086
14247TIP3    H264233   6.245   6.654   1.812 -1.0835 -0.8494 -2.1230
14248TIP3   OH264234   2.018   3.071   2.202  0.5288  0.0118  0.2936
14248TIP3    H164235   2.078   3.006   2.239 -0.8404 -0.8570  1.0299
14248TIP3    H264236   1.983   3.117   2.278  0.2221  0.4835 -0.1329
14249TIP3   OH264237   0.863   3.223  16.584  0.0368 -0.0006 -0.1016
14249TIP3    H164238   0.854   3.152  16.519  1.0222 -0.1420 -0.0875
14249TIP3    H264239   0.930   3.191  16.644  0.7092  1.0801 -0.2673
14250TIP3   OH264240   6.298   0.435  15.906  0.7605  0.3178 -0.3424
14250TIP3    H164241   6.341   0.454  15.989  1.2966  0.8800 -0.7418
14250TIP3    H264242   6.251   0.353  15.921 -0.3876  1.1729  0.9854
14251TIP3   OH264243   3.850   3.337   3.420 -0.0068  0.1666 -0.2641
14251TIP3    H164244   3.810   3.285   3.490 -0.5796  0.9028 -0.0350
14251TIP3    H264245   3.858   3.425   3.458  3.2188 -0.2698  0.2492
14252TIP3   OH264246   5.568   0.796  13.276  0.1004 -0.0182  0.2594
14252TIP3    H164247   5.595   0.722  13.221  0.3895 -0.9144  1.5743
14252TIP3    H264248   5.547   0.756  13.360  1.0401  1.5091  1.2365
14253TIP3   OH264249   3.650   3.316   5.620  0.2034 -0.1205 -0.5930
14253TIP3    H164250   3.631   3.223   5.604  1.2908 -0.2173 -1.4118
14253TIP3    H264251   3.742   3.317   5.646 -0.5360  0.4541  2.0926
14254TIP3   OH264252   5.714   0.409  12.139  0.5093  0.1026  0.8183
14254TIP3    H164253   5.704   0.494  12.097 -1.2458 -1.0305 -1.1601
14254TIP3    H264254   5.648   0.408  12.208 -1.2734 -0.6371 -0.8655
14255TIP3   OH264255   3.700   2.811   6.777  0.4112 -0.3375  0.4714
14255TIP3    H164256   3.756   2.888   6.785  0.5367 -0.5303  1.4605
14255TIP3    H264257   3.651   2.826   6.695  1.0655  0.3701  0.2023
14256TIP3   OH264258   2.285   5.771  13.066 -0.1127  0.0734 -0.2967
14256TIP3    H164259   2.234   5.690  13.053 -1.2710  1.1676 -3.0764
14256TIP3    H264260   2.372   5.750  13.034  0.7571 -1.2359  2.7269
14257TIP3   OH264261   0.856   5.441   4.418 -0.3877 -0.1385 -0.3333
14257TIP3    H164262   0.831   5.450   4.510  0.4418 -0.8226 -0.0281
14257TIP3    H264263   0.841   5.527   4.380 -0.6127  0.1825  0.4779
14258TIP3   OH264264   5.101   2.031   1.142  0.1507  0.2548  0.6887
14258TIP3    H164265   5.123   1.938   1.145 -2.3080 -0.4130 -0.8509
14258TIP3    H264266   5.014   2.037   1.182 -0.4616  1.6430 -0.7948
14259TIP3   OH264267   5.312   5.178   6.236  0.7689  0.2989  0.1611
14259TIP3    H164268   5.262   5.132   6.168 -0.8051 -1.9108  2.7375
14259TIP3    H264269   5.381   5.116   6.260  1.3711  1.1119  0.5312
14260TIP3   OH264270   4.026   1.989  17.112  0.2211  0.4240 -0.1017
14260TIP3    H164271   4.066   1.910  17.075 -1.3810  0.1096 -1.2200
14260TIP3    H264272   4.046   2.058  17.048 -0.9247  0.2861 -0.6176
14261TIP3   OH264273   0.367   0.981   5.032 -0.8063 -0.3611  0.3930
14261TIP3    H164274   0.329   1.009   5.115 -2.4864 -0.7336 -0.2390
14261TIP3    H264275   0.383   1.062   4.984  2.7605  0.0660  2.1355
14262TIP3   OH264276   2.623   4.006  16.241  0.6854 -0.3995 -0.4280
14262TIP3    H164277   2.612   4.045  16.155 -0.0851  1.1322  0.3390
14262TIP3    H264278   2.550   4.041  16.293  1.3327 -1.0181  0.9375
14263TIP3   OH264279   0.815   4.148   4.378 -0.3589 -0.1452 -0.7425
14263TIP3    H164280   0.836   4.153   4.472 -0.1520  0.4220 -0.8122
14263TIP3    H264281   0.824   4.055   4.356 -0.7766 -0.3340 -0.1162
14264TIP3   OH264282   3.283   4.221  16.121  0.3900 -0.5902  0.1817
14264TIP3    H164283   3.200   4.267  16.138 -0.5150 -1.0927 -2.6570
14264TIP3    H264284   3.269   4.133  16.157 -1.1126 -1.3200 -2.0529
14265TIP3   OH264285   4.176   0.945  14.623  0.7081 -0.5622  0.5072
14265TIP3    H164286   4.166   0.853  14.601 -1.1192 -0.3830  0.5471
14265TIP3    H264287   4.192   0.989  14.540  1.8582 -0.9352  0.5199
14266TIP3   OH264288   2.994   3.652  16.849 -0.2505  0.4279 -0.4877
14266TIP3    H164289   2.954   3.686  16.768 -1.5171 -1.4334 -0.6736
14266TIP3    H264290   3.073   3.606  16.819  0.0407  0.9334 -0.5054
14267TIP3   OH264291   4.774   6.497   4.075  0.1525 -0.4925  0.9204
14267TIP3    H164292   4.702   6.466   4.130  0.4590 -2.0643  0.4620
14267TIP3    H264293   4.844   6.432   4.087  0.8256  0.0294 -0.0477
14268TIP3   OH264294   4.784   3.289  15.795 -0.3433 -0.6435  0.9634
14268TIP3    H164295   4.698   3.254  15.771 -0.4917 -0.1604  0.7792
14268TIP3    H264296   4.765   3.354  15.863 -0.2146  0.0413  0.3582
14269TIP3   OH264297   2.081   2.098   0.847 -0.2158 -0.1880 -0.0663
14269TIP3    H164298   2.154   2.056   0.894  0.5307  3.5067  2.3699
14269TIP3    H264299   2.111   2.105   0.757  1.5108 -0.8066  0.4421
14270TIP3   OH264300   3.821   6.158  16.438  0.0940 -0.5846  0.1329
14270TIP3    H164301   3.757   6.107  16.390 -1.2210  1.5492 -0.4583
14270TIP3    H264302   3.789   6.158  16.528  0.1835 -0.9320  0.1658
14271TIP3   OH264303   3.615   0.406  10.783  0.3832 -0.0381 -0.2598
14271TIP3    H164304   3.561   0.394  10.705 -0.2503  0.1935  0.1436
14271TIP3    H264305   3.564   0.463  10.840  1.0575  0.2028  0.1191
14272TIP3   OH264306   0.273   0.891  16.300  0.2054 -0.0361 -0.0919
14272TIP3    H164307   0.360   0.867  16.333  0.7816 -1.9332 -2.8422
14272TIP3    H264308   0.218   0.816  16.323  0.1741 -0.5081 -1.6616
14273TIP3   OH264309   1.444   3.599   0.834  0.3915  0.2189  0.3301
14273TIP3    H164310   1.528   3.563   0.860  0.8011  0.8870 -0.0674
14273TIP3    H264311   1.453   3.694   0.847  0.2153  0.4428 -1.1446
14274TIP3   OH264312   6.597   3.537  11.467  0.5494 -0.1199 -0.1965
14274TIP3    H164313   6.515   3.567  11.508  0.6823 -0.5008  0.3520
14274TIP3    H264314   6.583   3.548  11.373  0.6969  1.9533  0.0033
14275TIP3   OH264315   6.141   0.979  11.542  0.0275 -0.1681  0.5159
14275TIP3    H164316   6.084   0.932  11.603  0.9280  0.4957  1.8816
14275TIP3    H264317   6.080   1.021  11.481 -0.8763 -0.8943  0.8907
14276TIP3   OH264318   3.954   1.904   3.254  0.9847 -0.6661 -0.0570
14276TIP3    H164319   3.955   1.897   3.159 -0.0567  0.6083 -0.1837
14276TIP3    H264320   3.869   1.868   3.279  0.9453 -0.3238  0.3111
14277TIP3   OH264321   3.992   2.499  15.486 -0.4550 -0.2508  0.0502
14277TIP3    H164322   3.993   2.404  15.500  1.2561 -0.4718 -1.3845
14277TIP3    H264323   3.965   2.510  15.394 -1.9178  0.7241  0.5732
14278TIP3   OH264324   6.655   1.402  14.418  0.0399 -0.0549 -0.1781
14278TIP3    H164325   6.685   1.356  14.339 -1.1644 -1.7716  0.3335
14278TIP3    H264326   6.563   1.377  14.427 -0.3823  1.6837  0.6939
14279TIP3   OH264327   2.426   0.063  13.598 -0.1019  0.3605 -0.7382
14279TIP3    H164328   2.457   0.100  13.680 -0.6813 -0.5046 -0.1110
14279TIP3    H264329   2.499   0.073  13.537  0.1993  1.3366 -0.2243
14280TIP3   OH264330   2.100   2.908  12.297 -0.5021  0.1363 -0.0679
14280TIP3    H164331   2.165   2.911  12.227 -1.2820  0.0315 -0.7985
14280TIP3    H264332   2.026   2.960  12.264 -0.8716  0.0951  0.6795
14281TIP3   OH264333   0.261   2.835  13.660 -0.2539  0.3005 -0.4801
14281TIP3    H164334   0.208   2.820  13.738  0.4307  1.1044  0.1619
14281TIP3    H264335   0.254   2.930  13.644 -0.6924  0.0878 -1.6175
14282TIP3   OH264336   6.614   4.016  15.032  0.1317  0.4853 -0.0639
14282TIP3    H164337   6.612   4.098  14.983  0.6905  1.0338  0.8010
14282TIP3    H264338   6.688   4.027  15.093  0.5636 -0.8811 -0.3307
14283TIP3   OH264339   4.213   5.957   4.940  0.2139 -0.5996 -0.0076
14283TIP3    H164340   4.271   5.934   4.867  0.1033 -0.7041 -0.0607
14283TIP3    H264341   4.270   5.953   5.018  0.6335  0.7530 -0.2428
14284TIP3   OH264342   5.829   2.968   3.617  0.1052  0.0764 -0.1479
14284TIP3    H164343   5.883   2.979   3.696 -2.7281 -1.1991  2.0782
14284TIP3    H264344   5.824   3.055   3.579 -0.1722  1.1695  2.2717
14285TIP3   OH264345   5.203   2.698  16.185 -0.1322 -0.1822  0.5554
14285TIP3    H164346   5.151   2.743  16.251 -1.5932 -0.7803 -0.1814
14285TIP3    H264347   5.165   2.726  16.102 -0.4122 -1.9875  0.0652
14286TIP3   OH264348   4.396   4.722  11.511 -0.4599  0.3709 -0.1922
14286TIP3    H164349   4.477   4.675  11.494 -0.8600 -0.6419  0.6443
14286TIP3    H264350   4.405   4.804  11.462  1.4498  0.6908  0.6539
14287TIP3   OH264351   1.502   5.192   3.351 -0.8610  0.0733 -0.1596
14287TIP3    H164352   1.465   5.280   3.361  0.0869  0.4721 -0.1171
14287TIP3    H264353   1.524   5.165   3.440 -1.1329 -0.1975 -0.1751
14288TIP3   OH264354   5.570   3.014   5.003  0.4001 -0.2861  0.4858
14288TIP3    H164355   5.518   2.934   4.997  0.1844 -0.2079  1.2633
14288TIP3    H264356   5.624   3.013   4.924  1.8824 -2.2465  1.4700
14289TIP3   OH264357   0.044   6.399   0.594 -0.2182  0.2796 -0.0619
14289TIP3    H164358   0.066   6.490   0.613 -0.3090  0.2143  0.3737
14289TIP3    H264359  -0.001   6.369   0.673  0.0477 -0.2202 -0.0975
14290TIP3   OH264360   2.033   5.716  12.809  0.5990  0.2483 -0.2043
14290TIP3    H164361   2.023   5.780  12.740  2.5691  1.4453  0.5788
14290TIP3    H264362   2.042   5.767  12.889  2.4497 -0.9580  0.4031
14291TIP3   OH264363   1.725   5.183   1.770 -0.1548 -0.1945  0.5695
14291TIP3    H164364   1.711   5.140   1.854  0.7793 -1.2591  0.1739
14291TIP3    H264365   1.765   5.267   1.793 -1.1400  0.0975  1.2705
14292TIP3   OH264366   1.482   1.593   0.637  0.4445 -0.1905 -0.2678
14292TIP3    H164367   1.569   1.553   0.633  1.0861  1.3287 -2.1942
14292TIP3    H264368   1.492   1.666   0.698 -0.2043 -1.6574  1.6404
14293TIP3   OH264369   3.531   2.454  16.333  0.3045  0.1150 -0.1132
14293TIP3    H164370   3.553   2.396  16.261  0.2752 -1.7338  1.3184
14293TIP3    H264371   3.498   2.534  16.291 -2.2001 -1.9015 -2.1285
14294TIP3   OH264372   0.967   1.300   3.134  0.4070 -0.2918 -0.3725
14294TIP3    H164373   0.876   1.279   3.154  0.3902  2.6199  2.9355
14294TIP3    H264374   1.018   1.258   3.203  1.0308  3.1289  1.3490
14295TIP3   OH264375   5.090   1.006  11.941  0.2527  0.3852  0.1051
14295TIP3    H164376   5.131   1.050  12.015 -1.1078  0.1489  1.0049
14295TIP3    H264377   5.069   0.918  11.973 -1.7416  0.7755 -0.0575
14296TIP3   OH264378   1.107   6.649  13.216 -0.3017 -0.3538 -0.3148
14296TIP3    H164379   1.189   6.606  13.241  0.0443 -0.1000 -0.9814
14296TIP3    H264380   1.121   6.674  13.124 -0.7707  0.5300 -0.1458
14297TIP3   OH264381   3.656   6.312   3.622 -0.4057 -0.0011 -0.6762
14297TIP3    H164382   3.727   6.367   3.588 -0.5330  1.2228  0.9405
14297TIP3    H264383   3.699   6.230   3.647  0.8118  1.3720  1.9480
14298TIP3   OH264384   6.754   6.200  15.703 -0.2601  0.2423 -0.5348
14298TIP3    H164385   6.803   6.124  15.736  4.0388  3.5973  1.2209
14298TIP3    H264386   6.688   6.216  15.771  0.4140 -0.4270  0.2969
14299TIP3   OH264387   2.196   3.360   1.417 -0.3977 -0.4645 -0.1408
14299TIP3    H164388   2.229   3.339   1.330  0.0428  0.7828 -0.2794
14299TIP3    H264389   2.236   3.444   1.439 -1.8053  0.0499  0.5625
14300TIP3   OH264390   4.235   0.002   6.147  0.1255  0.1943 -0.6082
14300TIP3    H164391   4.323   0.040   6.147  0.7035 -1.1162  0.0297
14300TIP3    H264392   4.202   0.017   6.235 -0.2083  0.4723 -0.7782
14301TIP3   OH264393   2.349   1.792   3.595 -0.0912 -0.0729  0.8167
14301TIP3    H164394   2.288   1.828   3.531  1.1653 -1.0541 -0.9755
14301TIP3    H264395   2.366   1.703   3.564  1.0263 -0.3459  2.1676
14302TIP3   OH264396   0.654   3.662   2.456 -0.6448 -0.1074 -0.1407
14302TIP3    H164397   0.683   3.718   2.384 -0.8500 -0.3858 -0.4419
14302TIP3    H264398   0.581   3.709   2.494 -0.9906 -0.2963 -0.5650
14303TIP3   OH264399   2.684   4.515  12.300 -0.2905 -0.1442  0.7059
14303TIP3    H164400   2.660   4.433  12.257 -0.2463  0.5762 -0.7287
14303TIP3    H264401   2.650   4.583  12.242  0.1628  0.8536  1.5990
14304TIP3   OH264402   3.794   4.277   4.270 -0.0351 -0.1524  0.5926
14304TIP3    H164403   3.724   4.213   4.282 -0.5963  0.6616  1.7408
14304TIP3    H264404   3.755   4.360   4.298  1.2351  0.3884  0.7673
14305TIP3   OH264405   5.901   2.147  13.342 -0.2844  0.6160 -0.4079
14305TIP3    H164406   5.837   2.186  13.283 -0.0038  0.0747 -1.0925
14305TIP3    H264407   5.859   2.067  13.374  0.8811 -0.9983 -2.6911
14306TIP3   OH264408   0.093   6.677   1.647 -0.0427 -0.4696 -0.0327
14306TIP3    H164409   0.148   6.606   1.613  1.5691  0.9221 -0.3585
14306TIP3    H264410   0.155   6.742   1.679 -1.5193  0.8410  0.1880
14307TIP3   OH264411   3.738   1.459   2.908 -0.3606 -0.5429 -0.2883
14307TIP3    H164412   3.796   1.522   2.866 -0.7139 -0.5578 -0.8152
14307TIP3    H264413   3.744   1.381   2.853  0.7110 -1.2662  0.8251
14308TIP3   OH264414   0.568   1.850   4.881 -0.4951  0.0389  0.0454
14308TIP3    H164415   0.634   1.904   4.838 -0.2048 -0.1967  0.1913
14308TIP3    H264416   0.595   1.848   4.973  0.0779 -1.1875 -0.1380
14309TIP3   OH264417   3.247   6.710  12.167  0.2976  0.5085 -0.1792
14309TIP3    H164418   3.269   6.780  12.106  1.9811  0.2907  0.1589
14309TIP3    H264419   3.301   6.726  12.244  2.6365 -2.5380 -1.0591
14310TIP3   OH264420   5.111   0.451   5.788  0.8594  0.2966  0.0410
14310TIP3    H164421   5.096   0.543   5.811 -0.2692  0.4460 -1.2598
14310TIP3    H264422   5.039   0.404   5.830  1.7681 -0.0789  1.1991
14311TIP3   OH264423   5.305   5.159   3.804 -0.0176 -0.1421  0.4917
14311TIP3    H164424   5.400   5.170   3.794 -0.3417  3.3637  0.5785
14311TIP3    H264425   5.267   5.231   3.755 -2.6860 -1.6267  0.2843
14312TIP3   OH264426   5.151   1.180  14.477  0.1984 -0.2431  0.1786
14312TIP3    H164427   5.157   1.116  14.547  0.8414 -0.0677  0.2852
14312TIP3    H264428   5.073   1.154  14.428 -0.1464 -0.4823  0.8373
14313TIP3   OH264429   0.700   1.726   3.169 -0.1032  0.6046 -0.5958
14313TIP3    H164430   0.691   1.706   3.076 -1.1772 -0.8537 -0.1885
14313TIP3    H264431   0.774   1.673   3.198 -0.6212  0.0196 -0.3308
14314TIP3   OH264432   5.049   3.666   2.207  0.7070  0.7974 -0.2328
14314TIP3    H164433   5.074   3.658   2.115  0.6615 -0.5104 -0.1461
14314TIP3    H264434   5.036   3.759   2.221  3.4427  1.3243 -0.8326
14315TIP3   OH264435   1.309   5.216  13.088 -0.7947  0.4711  0.2190
14315TIP3    H164436   1.284   5.292  13.036 -1.3816  0.3521  0.3252
14315TIP3    H264437   1.245   5.213  13.159 -0.7252 -0.0782  0.2603
14316TIP3   OH264438   6.408   3.621   2.744  0.1273  0.5455 -0.4601
14316TIP3    H164439   6.464   3.668   2.683  1.4880 -1.4806 -0.7787
14316TIP3    H264440   6.417   3.669   2.826  1.8194  0.6098 -0.6754
14317TIP3   OH264441   1.091   1.366   5.135  0.4466  0.8068  0.1488
14317TIP3    H164442   1.022   1.411   5.182  1.2589  1.6068  0.5880
14317TIP3    H264443   1.070   1.273   5.145 -1.0562  1.0563 -0.4979
14318TIP3   OH264444   1.659   6.197  14.843 -0.0243  0.2784  0.0462
14318TIP3    H164445   1.729   6.230  14.788  2.1132  0.0755  2.5366
14318TIP3    H264446   1.700   6.126  14.893 -1.8999  0.3755  1.7786
14319TIP3   OH264447   4.310   5.367  13.521  0.6727 -0.0768  0.0906
14319TIP3    H164448   4.249   5.323  13.462 -0.0211  0.2167  0.5751
14319TIP3    H264449   4.255   5.396  13.594  1.0825  1.6533 -0.2566
14320TIP3   OH264450   5.825   0.333   3.091 -0.2079 -0.2164  0.9841
14320TIP3    H164451   5.905   0.320   3.141  0.7601  1.0585 -0.2086
14320TIP3    H264452   5.853   0.335   3.000 -1.8414 -1.6448  0.4232
14321TIP3   OH264453   1.689   6.272   4.109  0.4886  0.1689 -0.0656
14321TIP3    H164454   1.713   6.184   4.078  1.2160  0.3317  0.0291
14321TIP3    H264455   1.772   6.319   4.113  0.3261  0.3340  1.5480
14322TIP3   OH264456   1.075   4.077  13.778  0.6240  0.4274  0.3984
14322TIP3    H164457   0.988   4.113  13.759 -0.0487 -0.6229  1.4438
14322TIP3    H264458   1.084   4.086  13.873  0.9248 -1.1030  0.5198
14323TIP3   OH264459   0.488   4.147   3.973  0.6023 -0.1487  0.0644
14323TIP3    H164460   0.577   4.178   3.986  0.9004 -0.9914  0.0514
14323TIP3    H264461   0.434   4.226   3.980  1.3832  0.4299 -0.3616
14324TIP3   OH264462   5.670   1.027   3.947  0.0810 -0.4662  0.0251
14324TIP3    H164463   5.670   0.971   3.869 -0.6329  1.9795 -1.7791
14324TIP3    H264464   5.579   1.030   3.974  0.3096 -1.2093  0.9172
14325TIP3   OH264465   1.673   3.027   3.903  0.5044  0.3746 -0.1315
14325TIP3    H164466   1.680   2.975   3.823 -0.5991  1.9868 -1.3356
14325TIP3    H264467   1.717   3.110   3.881  1.0633  0.4648  1.2749
14326TIP3   OH264468   5.978   3.769   4.730 -0.1692 -0.4708  0.6302
14326TIP3    H164469   5.972   3.776   4.825  0.9117  0.9743  0.6131
14326TIP3    H264470   5.969   3.859   4.699 -0.0411 -0.8786 -0.6194
14327TIP3   OH264471   4.393   2.622  12.556  0.6570  0.1275  0.0970
14327TIP3    H164472   4.394   2.702  12.607  1.7114 -0.5480  1.1453
14327TIP3    H264473   4.304   2.618  12.520  0.6995  1.9250 -0.2562
14328TIP3   OH264474   1.434   3.574  12.823  0.5783  0.3188  0.5812
14328TIP3    H164475   1.477   3.494  12.852 -1.6453 -1.1265  0.0422
14328TIP3    H264476   1.441   3.572  12.728  0.1840  0.5713  0.5445
14329TIP3   OH264477   1.333   2.760   2.797 -0.4218  0.4866  0.3084
14329TIP3    H164478   1.378   2.796   2.873  0.4381  4.0479 -1.7723
14329TIP3    H264479   1.403   2.720   2.745 -1.0016 -1.9110  1.3136
14330TIP3   OH264480   4.650   0.790  14.306 -0.1025 -0.7918 -0.0606
14330TIP3    H164481   4.601   0.718  14.348 -0.5239  0.2910  1.3291
14330TIP3    H264482   4.597   0.868  14.323  0.2367 -0.1684 -1.7718
14331TIP3   OH264483   6.219   4.425  16.338 -0.8698 -0.1349 -0.2162
14331TIP3    H164484   6.190   4.397  16.425 -0.8231 -0.9515 -0.4564
14331TIP3    H264485   6.191   4.354  16.280  2.2239 -1.3086 -0.3556
14332TIP3   OH264486   1.247   2.719   4.826  0.1627 -0.4152 -0.1670
14332TIP3    H164487   1.221   2.688   4.914 -0.5267 -0.8850 -0.5295
14332TIP3    H264488   1.340   2.742   4.835  0.0821 -0.4159  0.7000
14333TIP3   OH264489   5.057   0.345  14.839  0.4192  0.0018  0.1867
14333TIP3    H164490   4.976   0.395  14.841  0.3523 -0.1089  0.2213
14333TIP3    H264491   5.066   0.317  14.748  1.4837  1.7610 -0.2738
14334TIP3   OH264492   1.027   2.947  14.781 -0.3076 -0.3531  0.2070
14334TIP3    H164493   1.122   2.935  14.777 -0.1017  1.0950  0.4403
14334TIP3    H264494   1.005   2.938  14.873  0.0174  2.0624  0.5627
14335TIP3   OH264495   6.758   3.691  14.187 -0.0344 -0.3723 -0.1144
14335TIP3    H164496   6.686   3.673  14.127  0.0426 -0.6517 -0.1260
14335TIP3    H264497   6.718   3.685  14.274  0.2273 -1.7520 -0.0756
14336TIP3   OH264498   3.761   3.134  14.807  0.7827  0.3463 -0.0942
14336TIP3    H164499   3.790   3.052  14.846  2.1076  2.2036  3.0454
14336TIP3    H264500   3.778   3.200  14.875  0.2980  3.2998 -2.7269
14337TIP3   OH264501   1.453   2.763   5.923 -0.9685 -0.2482  0.1110
14337TIP3    H164502   1.445   2.686   5.867 -0.2793  0.1146 -0.5019
14337TIP3    H264503   1.490   2.730   6.005  1.2065 -0.2846 -0.8485
14338TIP3   OH264504   2.859   6.072  15.848 -0.1329  0.1978 -0.5381
14338TIP3    H164505   2.949   6.068  15.816  0.7052  0.9313  1.6219
14338TIP3    H264506   2.854   6.004  15.915  0.0524  2.7508  2.1952
14339TIP3   OH264507   4.275   1.899  10.339 -0.4657  0.0400 -0.3015
14339TIP3    H164508   4.256   1.900  10.245 -1.4803 -1.6207 -0.1304
14339TIP3    H264509   4.343   1.965  10.350 -0.5361  0.4544 -2.1629
14340TIP3   OH264510   1.838   5.614   3.229  0.2882 -0.3477 -0.9820
14340TIP3    H164511   1.772   5.609   3.298 -0.5280 -1.1543 -1.7963
14340TIP3    H264512   1.792   5.658   3.156  1.7777  2.4748 -0.2946
14341TIP3   OH264513   2.858   3.226   3.378  0.3715  0.5643  0.8397
14341TIP3    H164514   2.942   3.257   3.412 -1.0241  4.9961  0.6876
14341TIP3    H264515   2.846   3.276   3.297 -1.8694 -0.8773  0.2387
14342TIP3   OH264516   1.086   3.531   3.263 -0.0226  0.6116 -0.2265
14342TIP3    H164517   1.158   3.496   3.316 -1.9922 -3.5927 -0.1892
14342TIP3    H264518   1.108   3.506   3.174 -0.5649  0.9390 -0.4548
14343TIP3   OH264519   5.680   4.213  14.594 -0.5419  0.2355  0.1407
14343TIP3    H164520   5.678   4.305  14.622  1.9838  0.5723 -0.6515
14343TIP3    H264521   5.614   4.208  14.525 -1.0076  1.3416  0.4860
14344TIP3   OH264522   2.879   5.685   6.416 -0.5929  0.7421  0.4017
14344TIP3    H164523   2.871   5.593   6.393  0.5080  0.6877  0.1949
14344TIP3    H264524   2.842   5.692   6.504  3.9577 -0.9187  2.6094
14345TIP3   OH264525   6.430   5.962   5.811  0.8484  0.6245 -0.1959
14345TIP3    H164526   6.435   5.990   5.903  2.1465 -0.0929 -0.0361
14345TIP3    H264527   6.414   5.868   5.816  0.2758  0.6918 -0.7169
14346TIP3   OH264528   2.515   1.290  12.563 -0.2488 -0.0036 -0.1265
14346TIP3    H164529   2.430   1.256  12.534 -0.6021  1.0170 -0.2871
14346TIP3    H264530   2.579   1.230  12.523 -0.8831 -0.7843  0.0123
14347TIP3   OH264531   6.105   2.670  14.919  0.0456  0.2536  0.4973
14347TIP3    H164532   6.190   2.698  14.885  0.5493 -1.4354  0.3343
14347TIP3    H264533   6.126   2.608  14.988 -1.0526 -1.1193 -0.3704
14348TIP3   OH264534   5.473   4.291  16.609 -0.1770 -0.1397 -0.1281
14348TIP3    H164535   5.452   4.299  16.516  1.0978 -0.4201 -0.4434
14348TIP3    H264536   5.405   4.233  16.644 -0.5903 -0.1251 -0.9028
14349TIP3   OH264537   5.542   2.242   3.221  0.1965  0.4648 -0.0105
14349TIP3    H164538   5.456   2.276   3.247  0.3247 -0.0852  1.1334
14349TIP3    H264539   5.532   2.220   3.128 -1.1427 -0.4046  0.3427
14350TIP3   OH264540   3.449   2.596   0.569  0.1510  0.0978  0.0382
14350TIP3    H164541   3.376   2.537   0.548  1.5240 -0.8082 -2.3783
14350TIP3    H264542   3.442   2.665   0.503 -0.7604  2.1086  2.1517
14351TIP3   OH264543   1.875   6.684  10.983  0.4781 -0.4363 -0.2288
14351TIP3    H164544   1.948   6.627  11.006 -0.2216 -0.7117  1.3427
14351TIP3    H264545   1.839   6.646  10.902  0.0072 -2.2338  0.8056
14352TIP3   OH264546   5.121   3.679  16.889 -0.5223 -0.1293  0.0675
14352TIP3    H164547   5.190   3.613  16.889 -0.2629  0.1419  0.5823
14352TIP3    H264548   5.157   3.752  16.939 -0.8547  0.3549 -0.3953
14353TIP3   OH264549   0.041   5.591  15.850 -0.4013 -0.5468 -0.1731
14353TIP3    H164550  -0.038   5.544  15.822 -0.2191 -0.6524 -0.5199
14353TIP3    H264551   0.034   5.595  15.945 -2.5762  2.5312 -0.4051
14354TIP3   OH264552   5.654   6.742   1.271  0.1909  0.8204  0.4037
14354TIP3    H164553   5.655   6.809   1.203  2.1448  0.2476 -0.1536
14354TIP3    H264554   5.740   6.747   1.312 -0.5642  0.4122  2.1153
14355TIP3   OH264555   0.125   3.219  12.334 -0.0561 -0.7338  0.0135
14355TIP3    H164556   0.194   3.167  12.292  0.3412 -1.1238  1.1310
14355TIP3    H264557   0.172   3.283  12.388 -0.5364  0.7547 -1.2607
14356TIP3   OH264558   2.785   0.953  10.912 -0.0963 -0.0381 -0.1449
14356TIP3    H164559   2.785   0.904  10.829  2.6727  0.2178 -0.3274
14356TIP3    H264560   2.728   1.028  10.895  0.1784 -0.1648 -1.7287
14357TIP3   OH264561   3.611   4.879   5.028 -0.7326  0.1536 -0.1645
14357TIP3    H164562   3.566   4.816   4.972 -1.3773 -0.2448  0.7975
14357TIP3    H264563   3.661   4.825   5.089 -0.8991  0.5802  0.3496
14358TIP3   OH264564   4.034   4.731  16.947 -0.3416 -0.1489 -0.2206
14358TIP3    H164565   4.101   4.666  16.969 -0.8364 -1.5288 -2.6314
14358TIP3    H264566   4.084   4.806  16.916  0.1872  0.1640  1.3286
14359TIP3   OH264567   1.729   0.945   2.884 -0.1916 -0.4227  0.3406
14359TIP3    H164568   1.708   0.935   2.976  0.8828 -0.7244  0.5670
14359TIP3    H264569   1.695   0.865   2.843 -0.4458 -0.4035  0.5151
14360TIP3   OH264570   1.262   2.534   4.375  0.2237  0.2862 -0.3890
14360TIP3    H164571   1.186   2.546   4.319  0.3312  1.6104 -0.2679
14360TIP3    H264572   1.227   2.541   4.464  0.1526 -1.2048 -0.2805
14361TIP3   OH264573   4.301   3.757  11.856  0.8878  0.2577  0.1517
14361TIP3    H164574   4.354   3.834  11.875 -0.4706  0.9982  1.0221
14361TIP3    H264575   4.213   3.791  11.841  0.5184 -1.0080 -0.6970
14362TIP3   OH264576   1.777   6.332  14.240  0.0813  0.2785  0.5182
14362TIP3    H164577   1.699   6.277  14.227 -0.6509  1.4379 -0.0963
14362TIP3    H264578   1.851   6.273  14.224 -0.6784 -0.6470  0.3502
14363TIP3   OH264579   1.859   1.526   5.717 -0.5848 -0.5745 -0.2110
14363TIP3    H164580   1.864   1.517   5.621  0.2131  0.3419 -0.2572
14363TIP3    H264581   1.871   1.620   5.733  2.8554 -1.1596  1.0179
14364TIP3   OH264582   2.130   6.747   0.820  0.2628  0.6492  0.6961
14364TIP3    H164583   2.141   6.720   0.911  0.2818  1.3433  0.9015
14364TIP3    H264584   2.216   6.779   0.794  0.8831 -1.7229 -0.2997
14365TIP3   OH264585   1.680   1.503  15.324  0.1566  0.3979  0.6833
14365TIP3    H164586   1.648   1.480  15.237  2.1080  0.6900 -0.1433
14365TIP3    H264587   1.684   1.599  15.324  1.6544  0.3474  0.5193
14366TIP3   OH264588   3.195   6.027   5.502  0.1382  0.2356  0.4479
14366TIP3    H164589   3.265   6.076   5.460  1.0700 -1.8354 -0.4843
14366TIP3    H264590   3.234   5.996   5.585  0.8986 -2.2200 -0.7740
14367TIP3   OH264591   4.594   6.215  14.606 -0.2231  0.3248 -0.3810
14367TIP3    H164592   4.572   6.152  14.675 -1.1815 -0.4838 -1.4024
14367TIP3    H264593   4.675   6.256  14.636 -1.9460  1.8187  2.4635
14368TIP3   OH264594   2.281   6.267   0.085 -0.2794 -0.2167 -0.0141
14368TIP3    H164595   2.286   6.362   0.085  1.4589 -0.2895 -0.1499
14368TIP3    H264596   2.360   6.239   0.131 -2.1608 -1.5445  2.4739
14369TIP3   OH264597   5.769   4.786   3.184 -0.8616  0.4237 -0.0848
14369TIP3    H164598   5.750   4.873   3.148  0.1939 -0.1331 -2.1181
14369TIP3    H264599   5.689   4.735   3.168 -0.3555  0.1399 -1.8913
14370TIP3   OH264600   3.671   5.212   1.571 -0.4240 -0.5568  0.1076
14370TIP3    H164601   3.743   5.232   1.511 -0.6618  2.3741  0.7543
14370TIP3    H264602   3.595   5.258   1.534 -1.3156 -1.3281  0.9371
14371TIP3   OH264603   5.051   3.971   4.830  0.4808 -0.4280 -0.0854
14371TIP3    H164604   5.039   4.061   4.797  1.3027 -1.0640 -2.1872
14371TIP3    H264605   5.079   3.921   4.754  0.9280 -2.3025  1.2773
14372TIP3   OH264606   2.411   5.816   5.847  0.4700  0.5877 -0.3758
14372TIP3    H164607   2.330   5.864   5.833 -0.0012  0.0601  0.5134
14372TIP3    H264608   2.391   5.726   5.820  0.8010  0.4901 -0.3064
14373TIP3   OH264609   4.418   2.268   1.750  0.0200 -0.0546  0.2808
14373TIP3    H164610   4.428   2.306   1.663  1.4739 -0.9736  0.0104
14373TIP3    H264611   4.500   2.291   1.795  0.1252 -1.2507  0.7226
14374TIP3   OH264612   3.788   2.035   4.178  0.2929  0.3819  0.0879
14374TIP3    H164613   3.837   2.013   4.099  0.8551  2.1348 -0.0694
14374TIP3    H264614   3.854   2.050   4.245  0.0909  3.7784 -0.3900
14375TIP3   OH264615   5.451   5.992  12.868 -0.0466  0.3928  0.7893
14375TIP3    H164616   5.461   6.011  12.962  0.4512 -0.1204  0.8427
14375TIP3    H264617   5.424   5.901  12.865 -2.0440  0.9667  0.5066
14376TIP3   OH264618   3.255   1.951   3.953 -0.3342  0.6019 -0.3892
14376TIP3    H164619   3.252   1.974   4.046  0.2921 -0.0545 -0.2026
14376TIP3    H264620   3.286   2.030   3.909 -2.1871  1.4378 -0.2300
14377TIP3   OH264621   3.592   6.652  14.303 -0.3719 -0.1548  0.2378
14377TIP3    H164622   3.656   6.641  14.232 -1.2938 -1.1119 -0.4649
14377TIP3    H264623   3.554   6.738  14.290  1.6114  0.9283  1.3670
14378TIP3   OH264624   5.448   3.951   3.855 -0.2950  0.1568  0.2906
14378TIP3    H164625   5.433   3.901   3.774 -1.0562  0.3464  0.3172
14378TIP3    H264626   5.543   3.955   3.862 -0.1973 -2.1260  0.7960
14379TIP3   OH264627   1.245   3.220  13.192 -0.2652 -0.0374  0.1657
14379TIP3    H164628   1.303   3.266  13.130  1.4880  0.2662  1.9754
14379TIP3    H264629   1.248   3.273  13.271 -1.6722 -0.9652  0.8549
14380TIP3   OH264630   3.010   5.072   5.395  0.2193 -0.5060  0.2896
14380TIP3    H164631   3.092   5.115   5.421 -0.2391  0.9051 -0.5467
14380TIP3    H264632   2.942   5.132   5.425 -0.5484 -1.9018  1.4098
14381TIP3   OH264633   4.129   6.250   0.764  0.3627 -0.0915 -0.3037
14381TIP3    H164634   4.088   6.163   0.760 -0.5389  0.3966 -2.7630
14381TIP3    H264635   4.178   6.256   0.682  0.0949  1.8885 -0.3280
14382TIP3   OH264636   3.723   6.191  16.719 -0.2277 -0.1128 -0.0630
14382TIP3    H164637   3.701   6.124  16.783 -2.8490  0.2750 -0.4990
14382TIP3    H264638   3.762   6.261  16.770  0.2361 -0.9314  0.7253
14383TIP3   OH264639   6.296   5.644   1.000 -0.2590 -0.5957  0.5036
14383TIP3    H164640   6.243   5.592   0.940 -1.2368  0.7692  0.1579
14383TIP3    H264641   6.242   5.651   1.079  0.1110 -0.5851  0.7531
14384TIP3   OH264642   5.327   3.028   3.866 -0.0380  0.4733  0.3070
14384TIP3    H164643   5.357   3.077   3.943  0.8365  0.3969  0.0189
14384TIP3    H264644   5.407   3.005   3.820 -0.4034 -1.5811  0.6411
14385TIP3   OH264645   6.442   1.922   0.069 -0.7308 -0.1840  0.4918
14385TIP3    H164646   6.530   1.922   0.034  0.6867  1.5016  3.8118
14385TIP3    H264647   6.431   1.835   0.107 -0.7175 -0.5677 -0.3733
14386TIP3   OH264648   6.716   0.395  16.145 -0.1160  0.3945  0.0860
14386TIP3    H164649   6.794   0.339  16.146  0.6891  1.4857  0.1491
14386TIP3    H264650   6.646   0.340  16.181  1.5911  0.7341  4.2544
14387TIP3   OH264651   2.858   1.393  12.907 -0.2896  0.2337  0.1648
14387TIP3    H164652   2.931   1.408  12.847 -0.6948  0.4008 -0.2958
14387TIP3    H264653   2.802   1.330  12.861  0.3057 -1.0233  1.1486
14388TIP3   OH264654   2.150   0.278  12.598  0.4869  0.2011 -0.0274
14388TIP3    H164655   2.057   0.299  12.598 -0.3217 -3.1370 -0.1259
14388TIP3    H264656   2.187   0.337  12.664 -1.6293  1.7081 -0.1186
14389TIP3   OH264657   2.391   2.939   4.648 -0.3397 -0.3408 -0.0457
14389TIP3    H164658   2.440   2.964   4.569 -0.9639  0.0623 -0.3136
14389TIP3    H264659   2.452   2.956   4.720 -0.2663  0.6743 -0.3328
14390TIP3   OH264660   0.032   3.355   1.122  0.0742  0.3878 -0.0857
14390TIP3    H164661   0.038   3.312   1.037 -2.7731 -1.0827  0.3861
14390TIP3    H264662  -0.062   3.356   1.141  0.6902  0.4222  3.1622
14391TIP3   OH264663   4.312   4.160   5.495  0.0597 -1.2819 -0.2728
14391TIP3    H164664   4.318   4.241   5.545 -0.5339 -0.8601 -0.8834
14391TIP3    H264665   4.228   4.166   5.449  0.7047 -1.5496 -1.5091
14392TIP3   OH264666   2.655   4.288  12.710  0.6149 -0.1133 -0.3046
14392TIP3    H164667   2.693   4.202  12.727  1.3115 -0.2869 -2.5528
14392TIP3    H264668   2.728   4.340  12.676  0.1261  1.2849  0.7556
14393TIP3   OH264669   6.597   3.269  14.188 -0.7001  0.0621 -0.2311
14393TIP3    H164670   6.686   3.305  14.191 -0.7526  0.5516 -3.2286
14393TIP3    H264671   6.595   3.207  14.260  2.4634 -0.7734 -0.7534
14394TIP3   OH264672   0.457   2.179  16.713 -0.0747  0.2424  0.3537
14394TIP3    H164673   0.540   2.205  16.674  0.3428 -0.2132  0.9355
14394TIP3    H264674   0.395   2.181  16.640  0.0842  2.2373  0.2650
14395TIP3   OH264675   4.600   5.067  11.597  0.1578 -0.3078 -0.2226
14395TIP3    H164676   4.511   5.098  11.612  0.8747  1.3630  0.7810
14395TIP3    H264677   4.594   4.972  11.605 -1.7515 -0.3195 -1.4407
14396TIP3   OH264678   1.678   0.781   3.420  0.1218  0.0388  0.6304
14396TIP3    H164679   1.726   0.700   3.403 -0.6775  0.0025 -1.6503
14396TIP3    H264680   1.591   0.752   3.447 -1.0528  0.0826 -2.8897
14397TIP3   OH264681   0.581   5.525   3.566 -0.2256  0.0100 -0.5020
14397TIP3    H164682   0.525   5.483   3.632  1.8674  0.3691  1.5731
14397TIP3    H264683   0.559   5.618   3.571 -0.1233  0.0274 -0.3542
14398TIP3   OH264684   5.408   2.435  13.148 -0.1732  0.0356 -0.2463
14398TIP3    H164685   5.473   2.434  13.219  0.0875 -0.1816 -0.4890
14398TIP3    H264686   5.324   2.446  13.193  0.0961  1.0650  0.0261
14399TIP3   OH264687   0.976   5.193   2.670 -0.0009  0.3624 -0.4786
14399TIP3    H164688   0.999   5.127   2.734 -1.3616 -0.1096 -0.4629
14399TIP3    H264689   1.049   5.193   2.608 -0.8257 -2.4907 -1.5360
14400TIP3   OH264690   4.170   0.406   0.415  0.8440 -0.4907 -0.5597
14400TIP3    H164691   4.174   0.311   0.412  0.1619 -0.5705  0.7414
14400TIP3    H264692   4.247   0.433   0.464  0.8725 -0.3873 -0.6591
14401TIP3   OH264693   6.419   1.976  15.700 -0.2664 -0.0052  0.1626
14401TIP3    H164694   6.442   2.024  15.621  0.0338 -0.0635  0.2161
14401TIP3    H264695   6.490   1.995  15.762  0.5818 -1.6523 -0.2922
14402TIP3   OH264696   0.870   5.749   3.171  0.3159  0.1058 -0.0213
14402TIP3    H164697   0.925   5.748   3.249  0.3219  0.7343 -0.0157
14402TIP3    H264698   0.873   5.659   3.138  0.6920 -0.0491  0.4352
14403TIP3   OH264699   3.893   2.143   0.568 -0.5582  0.0637 -0.1843
14403TIP3    H164700   3.824   2.179   0.624 -0.4033 -0.4610  0.3460
14403TIP3    H264701   3.846   2.103   0.495 -0.8538 -0.9882  0.5802
14404TIP3   OH264702   3.630   3.228   1.023 -0.3591  0.3264  0.2208
14404TIP3    H164703   3.707   3.183   1.056 -0.6068  0.5258  1.0899
14404TIP3    H264704   3.604   3.287   1.094 -2.0442 -0.6521  0.4471
14405TIP3   OH264705   3.244   0.853  17.128  0.3743 -0.4828 -0.2141
14405TIP3    H164706   3.240   0.948  17.127  0.1411 -0.4911  0.0569
14405TIP3    H264707   3.261   0.829  17.037  3.3018 -0.0464  0.1754
14406TIP3   OH264708   5.143   3.875  14.625 -0.2597 -0.1686  0.1899
14406TIP3    H164709   5.223   3.928  14.621 -0.5666  0.3268  0.5005
14406TIP3    H264710   5.076   3.929  14.582  0.1063 -1.5852 -2.2599
14407TIP3   OH264711   3.318   3.737  11.308  0.3888 -0.4403  0.2625
14407TIP3    H164712   3.269   3.814  11.280 -1.4714 -1.6731  0.0341
14407TIP3    H264713   3.303   3.732  11.402  1.6623  0.2692  0.5050
14408TIP3   OH264714   4.166   6.477   3.537  0.9596 -0.1669 -0.3061
14408TIP3    H164715   4.169   6.520   3.451 -1.0380 -0.4262 -0.5147
14408TIP3    H264716   4.212   6.538   3.595 -1.4819  2.1321 -0.6782
14409TIP3   OH264717   3.962   1.046  16.547  0.1110  0.1227  0.2893
14409TIP3    H164718   4.019   0.999  16.609 -0.0770 -0.2007  0.2140
14409TIP3    H264719   4.015   1.056  16.468  0.9085  1.8841  1.0120
14410TIP3   OH264720   6.119   6.477  14.334 -0.0922  0.1364 -0.1829
14410TIP3    H164721   6.161   6.563  14.331 -0.5138  0.3243 -0.7337
14410TIP3    H264722   6.026   6.495  14.339 -0.2978 -0.2856 -2.1696
14411TIP3   OH264723   4.598   3.595  13.927 -0.3153 -0.1956 -0.4230
14411TIP3    H164724   4.529   3.653  13.896 -0.7280 -0.8542 -0.7477
14411TIP3    H264725   4.605   3.614  14.021 -0.9132 -0.1029 -0.3957
14412TIP3   OH264726   3.119   5.262   0.531 -0.1913 -0.0519  0.7508
14412TIP3    H164727   3.054   5.201   0.497 -0.2755 -0.1349  1.0527
14412TIP3    H264728   3.177   5.207   0.585  0.8671 -0.1944 -0.5164
14413TIP3   OH264729   2.745   6.335  13.835  0.6419 -0.2822 -0.2096
14413TIP3    H164730   2.672   6.365  13.889 -0.3236 -1.0120 -1.0910
14413TIP3    H264731   2.821   6.381  13.870 -0.5017  1.8225 -0.4025
14414TIP3   OH264732   1.065   2.221   3.292  0.0272 -0.3966 -0.0110
14414TIP3    H164733   1.018   2.232   3.375  1.8161  0.2502  0.9461
14414TIP3    H264734   1.069   2.126   3.280 -2.5715 -0.4559 -0.7568
14415TIP3   OH264735   4.461   5.760   5.374  0.2538 -0.1283  1.0627
14415TIP3    H164736   4.551   5.740   5.400 -0.2662 -0.0826  2.9870
14415TIP3    H264737   4.429   5.819   5.442 -0.8587  0.7986 -0.2399
14416TIP3   OH264738   3.727   3.026   5.483 -0.3076  0.0943  0.0481
14416TIP3    H164739   3.722   2.981   5.399  1.0876 -0.3962  0.2256
14416TIP3    H264740   3.780   3.103   5.467 -1.5914  1.0064  0.0616
14417TIP3   OH264741   5.404   1.738  14.570 -0.2166  0.8173 -0.2442
14417TIP3    H164742   5.400   1.740  14.474 -3.8856 -1.5618 -0.2824
14417TIP3    H264743   5.326   1.688  14.595  1.5892 -0.0796  3.9324
14418TIP3   OH264744   1.260   0.524   1.068  0.3382  0.2743 -0.5238
14418TIP3    H164745   1.331   0.492   1.124  0.7310 -0.2914 -1.3491
14418TIP3    H264746   1.220   0.446   1.032 -1.0150  0.5714  0.3030
14419TIP3   OH264747   1.159   0.555   5.381  0.1041 -0.4478 -0.4251
14419TIP3    H164748   1.086   0.498   5.355 -0.7096  0.0417  0.7861
14419TIP3    H264749   1.233   0.495   5.391 -0.6608 -1.2478  0.4899
14420TIP3   OH264750   1.531   1.521  13.542 -0.0554  0.0548  0.7789
14420TIP3    H164751   1.489   1.442  13.574  0.7259 -0.6238  0.1665
14420TIP3    H264752   1.461   1.570  13.498 -0.7683  0.2178  2.0556
14421TIP3   OH264753   0.179   1.203   5.852 -0.4516  0.4412 -0.7775
14421TIP3    H164754   0.244   1.272   5.866 -0.5286  0.8203 -2.1843
14421TIP3    H264755   0.125   1.234   5.779 -0.8320 -0.8412 -1.0707
14422TIP3   OH264756   6.330   1.825   2.495  0.0930 -0.6819 -0.2345
14422TIP3    H164757   6.345   1.911   2.535 -2.6661 -0.0985 -0.3379
14422TIP3    H264758   6.337   1.763   2.567 -4.0387  0.2855  1.1322
14423TIP3   OH264759   3.156   3.139   3.313  0.4744 -0.1191 -0.2553
14423TIP3    H164760   3.214   3.115   3.385 -1.0824  2.4276  1.9282
14423TIP3    H264761   3.115   3.221   3.341 -3.8833 -1.6002 -1.8888
14424TIP3   OH264762   0.184   3.638  11.984 -0.2523 -0.2552 -0.0911
14424TIP3    H164763   0.126   3.617  12.057  0.0897 -0.4249  0.1365
14424TIP3    H264764   0.191   3.556  11.934 -0.2611 -0.2164 -0.1565
14425TIP3   OH264765   0.687   1.134   1.162  0.5107  0.9142 -0.2686
14425TIP3    H164766   0.754   1.168   1.221 -1.7704  1.5455  2.0447
14425TIP3    H264767   0.647   1.061   1.210 -0.5341  0.6131 -1.5431
14426TIP3   OH264768   6.573   4.216  14.172  0.1769 -0.1079  0.4244
14426TIP3    H164769   6.629   4.177  14.104 -1.5090  1.7016 -2.1007
14426TIP3    H264770   6.533   4.141  14.216  1.2895 -1.3147 -0.5851
14427TIP3   OH264771   1.392   0.063   2.791 -0.1850  0.4426 -0.5570
14427TIP3    H164772   1.355   0.146   2.761  1.1356  0.9672 -0.7702
14427TIP3    H264773   1.391   0.070   2.887  0.2497  0.8468 -0.5813
14428TIP3   OH264774   2.723   6.678   1.762  0.3336 -0.0326 -0.1160
14428TIP3    H164775   2.645   6.734   1.766  0.2048 -0.1981 -0.3157
14428TIP3    H264776   2.710   6.613   1.831  1.3648  1.3203  1.3835
14429TIP3   OH264777   1.387   1.318  10.943  0.3414  0.9007  0.2448
14429TIP3    H164778   1.423   1.318  10.854  1.4570  2.1016  0.6881
14429TIP3    H264779   1.413   1.402  10.980 -1.0325  0.8623  1.3554
14430TIP3   OH264780   1.733   2.014   5.705  0.0041  0.0976  0.1006
14430TIP3    H164781   1.753   1.944   5.643  0.3833  0.4045 -0.1303
14430TIP3    H264782   1.744   2.094   5.653 -1.3341  0.2924  0.1033
14431TIP3   OH264783   4.437   4.042   0.929 -0.3525  0.4398  0.2449
14431TIP3    H164784   4.346   4.031   0.901 -0.1844 -0.8479  0.1802
14431TIP3    H264785   4.435   4.116   0.989 -1.2533  1.1464 -0.6519
14432TIP3   OH264786   4.429   1.340  11.392 -0.1850  0.1611 -0.6454
14432TIP3    H164787   4.453   1.342  11.485  1.1972  1.2228 -0.9976
14432TIP3    H264788   4.464   1.256  11.361 -0.9451 -0.3470 -0.1334
14433TIP3   OH264789   4.883   2.169  14.829  0.1153  0.0537  0.4608
14433TIP3    H164790   4.789   2.159  14.815  0.0711  0.7856  0.2424
14433TIP3    H264791   4.919   2.182  14.741  0.4559 -0.4433  0.5194
14434TIP3   OH264792   1.740   6.510   5.088  0.0986  0.2412  0.4072
14434TIP3    H164793   1.745   6.605   5.082 -1.2175  0.3175  0.4734
14434TIP3    H264794   1.822   6.479   5.049  0.6213  1.4050  0.5811
14435TIP3   OH264795   4.144   6.791   1.402 -0.2358  0.2545 -0.1919
14435TIP3    H164796   4.159   6.871   1.451 -1.8940  0.6829 -0.3534
14435TIP3    H264797   4.055   6.800   1.368 -0.3948 -1.5990 -0.3178
14436TIP3   OH264798   0.226   3.153  11.990  0.1702  0.4258 -0.1994
14436TIP3    H164799   0.279   3.112  12.059  0.1699  0.9386  0.1014
14436TIP3    H264800   0.274   3.133  11.909  0.9993  1.1676  0.1040
14437TIP3   OH264801   5.784   1.248  12.067 -0.6316  0.0943  0.1899
14437TIP3    H164802   5.787   1.317  12.133 -0.9397 -0.4732  0.8204
14437TIP3    H264803   5.874   1.217  12.060 -0.1302  1.9395 -1.6030
14438TIP3   OH264804   5.495   5.681   0.182  0.2131 -0.1856  0.7684
14438TIP3    H164805   5.415   5.705   0.229  0.4934  1.2619  0.5358
14438TIP3    H264806   5.464   5.646   0.099 -0.1688  0.4964  0.6243
14439TIP3   OH264807   3.513   0.950   3.481 -0.7987  0.0279 -0.3683
14439TIP3    H164808   3.518   1.002   3.401  0.7951  1.3422  0.5562
14439TIP3    H264809   3.450   0.881   3.461 -0.2432  0.1911 -2.8358
14440TIP3   OH264810   2.658   4.713   2.339 -0.2313 -0.4904 -0.3950
14440TIP3    H164811   2.676   4.632   2.292  0.7247 -0.5259  0.0183
14440TIP3    H264812   2.742   4.758   2.344 -0.2131 -0.6896  1.6487
14441TIP3   OH264813   2.459   3.635   2.727 -0.2357 -0.0961 -0.4879
14441TIP3    H164814   2.374   3.599   2.753 -0.8490 -0.9283 -3.3962
14441TIP3    H264815   2.479   3.700   2.794 -1.8783 -1.7846  1.7324
14442TIP3   OH264816   2.237   1.153   4.212  0.8291 -0.4825 -0.1819
14442TIP3    H164817   2.275   1.206   4.142  0.3185  1.0675  0.6931
14442TIP3    H264818   2.148   1.135   4.183 -0.0204  1.7816  0.8891
14443TIP3   OH264819   2.206   2.807  11.691  0.0183 -0.2116  0.2291
14443TIP3    H164820   2.217   2.763  11.775 -0.9144 -1.5864 -0.3483
14443TIP3    H264821   2.227   2.740  11.626 -0.5663  0.4573 -0.6579
14444TIP3   OH264822   4.203   6.797  14.139  0.3013  0.7201  0.0384
14444TIP3    H164823   4.183   6.720  14.086  1.3416 -0.3412  1.1470
14444TIP3    H264824   4.176   6.871  14.085  0.9266 -0.3515 -1.7838
14445TIP3   OH264825   4.654   1.428  14.750 -0.4269  0.0174 -0.4754
14445TIP3    H164826   4.686   1.470  14.829  0.0593 -0.0066 -0.6610
14445TIP3    H264827   4.727   1.375  14.719 -0.0522  1.3009 -1.8339
14446TIP3   OH264828   3.292   4.701   2.106  0.4801  0.5385 -0.0245
14446TIP3    H164829   3.218   4.719   2.047  0.6622 -0.9161 -0.7382
14446TIP3    H264830   3.254   4.644   2.174  0.1389  2.6596  1.6070
14447TIP3   OH264831   2.543   4.686  14.820 -0.1378 -0.0357  0.0271
14447TIP3    H164832   2.559   4.692  14.725 -0.6740 -0.1420 -0.0708
14447TIP3    H264833   2.623   4.722  14.860 -0.5131  1.3808 -0.4770
14448TIP3   OH264834   5.017   1.566   2.354  0.1387  0.3344  0.1356
14448TIP3    H164835   5.050   1.524   2.276  0.6611  1.4184 -0.2323
14448TIP3    H264836   4.921   1.564   2.344  0.1525 -1.0841  0.3011
14449TIP3   OH264837   5.003   1.384  13.576 -0.3007 -0.5177  0.3699
14449TIP3    H164838   5.031   1.421  13.659 -1.1615 -2.1214  1.3978
14449TIP3    H264839   5.074   1.324  13.551  1.0899  1.7262 -1.2888
14450TIP3   OH264840   3.772   6.362   1.397 -0.2334 -0.5145 -0.2978
14450TIP3    H164841   3.693   6.389   1.351 -0.7577 -0.8437  0.4185
14450TIP3    H264842   3.769   6.266   1.396 -0.6710 -0.5297  1.1487
14451TIP3   OH264843   4.461   6.093  17.067  0.4901 -0.0583 -0.2533
14451TIP3    H164844   4.526   6.163  17.066 -1.1379  1.5053 -0.5223
14451TIP3    H264845   4.435   6.082  16.976  0.8453 -1.1260 -0.2316
14452TIP3   OH264846   5.059   5.300  17.117  0.3534 -0.1163  0.2860
14452TIP3    H164847   5.038   5.208  17.130 -0.4320  0.2338  1.6128
14452TIP3    H264848   5.074   5.334  17.205  0.4929  1.0481 -0.1750
14453TIP3   OH264849   1.152   5.034  12.105 -0.3312  0.4468  0.2892
14453TIP3    H164850   1.093   5.100  12.070  0.4678 -0.2543 -2.4376
14453TIP3    H264851   1.106   4.951  12.090  0.4897  0.0511 -0.0150
14454TIP3   OH264852   5.874   0.037  16.370 -0.0174 -0.0664  0.3324
14454TIP3    H164853   5.870   0.028  16.275 -0.4128  2.0811  0.1104
14454TIP3    H264854   5.934   0.110  16.384 -2.1830  1.5104  1.5941
14455TIP3   OH264855   4.437   2.869  12.368  0.2919 -0.7182  0.1974
14455TIP3    H164856   4.514   2.832  12.411  2.0149  0.6725 -1.5771
14455TIP3    H264857   4.402   2.796  12.316  1.4104 -0.9251 -0.2838
14456TIP3   OH264858   3.965   0.025  11.035  0.0753  0.2788 -0.0170
14456TIP3    H164859   4.018  -0.055  11.027  0.3711  0.2889  1.6719
14456TIP3    H264860   3.943   0.048  10.945  0.6815 -1.2503 -0.5734
14457TIP3   OH264861   0.534   5.831  11.135  0.0633 -0.3328  0.4446
14457TIP3    H164862   0.466   5.852  11.199 -0.6317 -2.5770  0.4890
14457TIP3    H264863   0.598   5.778  11.184  1.7437  1.5640  0.3460
14458TIP3   OH264864   6.366   5.054   4.539 -0.0313 -0.8111 -0.0305
14458TIP3    H164865   6.457   5.064   4.566  0.0101 -0.0647 -0.4178
14458TIP3    H264866   6.349   5.132   4.485 -1.3396 -0.1722  1.2756
14459TIP3   OH264867   3.506   4.572  16.309  0.5127 -0.8233 -0.1039
14459TIP3    H164868   3.473   4.522  16.384  1.6164 -1.2442  0.1187
14459TIP3    H264869   3.517   4.506  16.240 -0.2303 -0.4847 -0.5508
14460TIP3   OH264870   1.218   2.057   1.992  0.1864 -1.3326 -0.1488
14460TIP3    H164871   1.288   2.120   2.013  1.4683 -3.1927  1.2679
14460TIP3    H264872   1.139   2.096   2.029  0.5846  0.3870 -1.0290
14461TIP3   OH264873   1.182   1.977   4.563  0.1284  0.1484  0.2431
14461TIP3    H164874   1.155   1.896   4.607 -1.7111  0.4633 -0.2774
14461TIP3    H264875   1.277   1.980   4.575  0.1808 -1.9329  0.5375
14462TIP3   OH264876   2.731   4.366  11.896 -0.0978 -0.0568  0.2994
14462TIP3    H164877   2.652   4.344  11.847  1.0893 -3.2793 -0.2778
14462TIP3    H264878   2.785   4.287  11.892  2.7148  1.7079  1.5670
14463TIP3   OH264879   1.598   1.576   1.710  0.2023  0.6215  0.5324
14463TIP3    H164880   1.687   1.577   1.745  0.7605  0.3939 -0.8824
14463TIP3    H264881   1.543   1.558   1.787  1.1094  3.7080  1.9878
14464TIP3   OH264882   6.212   3.241  16.546  0.3188  1.0312 -0.3091
14464TIP3    H164883   6.165   3.294  16.482 -0.9229  1.5520  1.0139
14464TIP3    H264884   6.278   3.300  16.582 -0.3757  1.3904  0.4025
14465TIP3   OH264885   3.541   6.806  15.233 -0.4473  0.0034 -0.2383
14465TIP3    H164886   3.528   6.716  15.204  0.0487 -0.2612  0.3387
14465TIP3    H264887   3.634   6.824  15.218 -0.7906  0.8349 -1.4730
14466TIP3   OH264888   0.615   6.659  11.403 -0.6887  0.1756 -0.3451
14466TIP3    H164889   0.623   6.622  11.315 -0.3100 -1.0459  0.2040
14466TIP3    H264890   0.558   6.599  11.450  2.4051 -1.4650  1.4842
14467TIP3   OH264891   5.298   5.044   1.552 -0.1694 -0.3133 -0.1979
14467TIP3    H164892   5.371   5.047   1.491 -1.2781 -0.8307 -1.5752
14467TIP3    H264893   5.224   5.013   1.500 -1.3714  0.1879  1.1747
14468TIP3   OH264894   6.010   0.718  13.935  0.6180  1.0842 -0.3894
14468TIP3    H164895   6.020   0.627  13.908 -1.8976  0.6819 -0.0818
14468TIP3    H264896   6.073   0.730  14.006  0.8863 -0.4389 -0.3656
14469TIP3   OH264897   4.625   3.390   4.204  0.2900 -0.1743 -0.4996
14469TIP3    H164898   4.607   3.481   4.181  1.4569  0.3234  0.4783
14469TIP3    H264899   4.721   3.383   4.199  0.2679 -1.1093  0.2647
14470TIP3   OH264900   1.409   6.437  16.614  0.0028 -0.2277  0.0013
14470TIP3    H164901   1.419   6.516  16.561  0.0964 -0.5894 -0.5287
14470TIP3    H264902   1.412   6.366  16.550 -1.8010 -0.5701  0.2766
14471TIP3   OH264903   4.873   4.565  12.772  0.0620  0.0748 -0.0068
14471TIP3    H164904   4.849   4.514  12.849 -0.2619  0.0461 -0.1287
14471TIP3    H264905   4.946   4.620  12.801  0.8172 -0.9073 -0.0460
14472TIP3   OH264906   2.044   2.086  13.049 -0.4869  0.7734 -0.2741
14472TIP3    H164907   2.126   2.104  13.095 -1.3926  2.1629  0.8485
14472TIP3    H264908   1.979   2.076  13.118 -1.1589 -0.9121 -1.1408
14473TIP3   OH264909   4.214   3.434  15.341 -0.6678 -0.1679 -0.4185
14473TIP3    H164910   4.239   3.459  15.430  0.3071 -1.6048 -0.2697
14473TIP3    H264911   4.284   3.468  15.286 -0.2294 -1.0183 -0.4016
14474TIP3   OH264912   0.638   6.655  15.829 -0.1908 -0.3878  0.0478
14474TIP3    H164913   0.595   6.579  15.791  0.0101  0.4166 -1.8480
14474TIP3    H264914   0.729   6.649  15.799  0.9270 -1.6706  3.3988
14475TIP3   OH264915   5.485   4.254   2.672 -0.1441  0.0492 -0.2447
14475TIP3    H164916   5.410   4.198   2.654  1.0836 -1.7632  0.1294
14475TIP3    H264917   5.550   4.195   2.711  0.6376  2.0392  1.5458
14476TIP3   OH264918   3.953   1.015  13.493 -0.3878 -0.1876 -0.1424
14476TIP3    H164919   3.938   1.110  13.485 -1.7325 -0.2996  0.7134
14476TIP3    H264920   3.941   0.998  13.587  1.1841 -0.9960 -0.0891
14477TIP3   OH264921   1.000   1.722   4.293  0.3731  0.5444 -0.3307
14477TIP3    H164922   0.945   1.767   4.357  1.3935  2.4531 -0.7582
14477TIP3    H264923   1.081   1.703   4.340  0.7278  1.0192 -0.7359
14478TIP3   OH264924   0.537   2.989  15.592  0.1284 -0.2831 -0.4738
14478TIP3    H164925   0.455   3.037  15.587  0.2171 -0.1193 -0.3536
14478TIP3    H264926   0.565   2.998  15.684 -1.2045 -2.7701  0.2165
14479TIP3   OH264927   0.446   1.018  12.655  0.0475 -0.1760  0.2089
14479TIP3    H164928   0.355   0.991  12.645  0.4066 -0.8000 -1.5193
14479TIP3    H264929   0.442   1.113  12.660 -0.8506 -0.2737  2.1376
14480TIP3   OH264930   4.099   4.035  10.832 -0.6471 -0.3638  0.0596
14480TIP3    H164931   4.055   4.079  10.760  0.7614  2.9019  1.0771
14480TIP3    H264932   4.032   4.028  10.900 -1.4501 -1.7192 -0.8528
14481TIP3   OH264933   4.582   1.761  16.696 -0.0807 -0.1079 -0.1894
14481TIP3    H164934   4.593   1.675  16.736  0.7309 -0.5341 -1.2962
14481TIP3    H264935   4.671   1.788  16.673 -0.2855  1.2235  0.5369
14482TIP3   OH264936   5.119   6.064   6.250 -0.3939 -0.2937 -0.7894
14482TIP3    H164937   5.031   6.059   6.286  1.1077 -0.4565  3.1621
14482TIP3    H264938   5.143   5.973   6.230 -0.4028 -0.4690 -0.0006
14483TIP3   OH264939   2.391   0.888   0.663 -0.6137  0.1563  0.0506
14483TIP3    H164940   2.367   0.839   0.742 -0.6093 -0.2628 -0.2051
14483TIP3    H264941   2.326   0.861   0.598 -0.0761 -0.1904 -0.3475
14484TIP3   OH264942   2.122   1.200   3.474  0.6788 -0.1114 -0.2920
14484TIP3    H164943   2.159   1.215   3.561  0.0885 -2.6566  0.4656
14484TIP3    H264944   2.191   1.154   3.426  0.1188 -0.9004 -0.3496
14485TIP3   OH264945   0.776   1.635   0.796 -0.0975  0.2068  0.5029
14485TIP3    H164946   0.818   1.550   0.806 -0.4159  0.0338  0.3681
14485TIP3    H264947   0.845   1.693   0.764 -0.2736 -0.3577 -0.9068
14486TIP3   OH264948   4.030   5.512   2.839 -0.5512 -0.2868  0.0529
14486TIP3    H164949   4.064   5.425   2.818  1.1044 -0.1711  2.0702
14486TIP3    H264950   4.103   5.571   2.817 -0.7841  0.3359  0.9336
14487TIP3   OH264951   3.312   4.004  12.425 -0.0313  0.6622 -0.3891
14487TIP3    H164952   3.339   4.031  12.513  1.1867  2.1326 -1.1824
14487TIP3    H264953   3.352   4.069  12.367  0.1123 -0.9210 -2.1216
14488TIP3   OH264954   3.801   1.879  14.146 -0.5973 -0.0654  0.0214
14488TIP3    H164955   3.867   1.918  14.202 -1.0714  0.7735  0.0034
14488TIP3    H264956   3.820   1.913  14.058 -0.2933 -0.8071 -0.2033
14489TIP3   OH264957   1.862   5.379   5.187  0.2196  0.0218  0.6667
14489TIP3    H164958   1.877   5.386   5.093  1.3818  0.2685  0.8632
14489TIP3    H264959   1.778   5.332   5.194 -1.4026  2.6132 -0.4993
14490TIP3   OH264960   0.457   5.256   3.311 -0.1570  1.2078  0.4472
14490TIP3    H164961   0.398   5.327   3.335 -2.1524 -0.1888 -0.2251
14490TIP3    H264962   0.431   5.183   3.368 -0.9511 -0.2844 -1.7838
14491TIP3   OH264963   0.517   2.427  15.202  0.3794 -0.2908 -0.0890
14491TIP3    H164964   0.513   2.356  15.265 -1.6844 -0.2694 -0.1627
14491TIP3    H264965   0.532   2.384  15.117 -0.1045 -0.5774 -0.0294
14492TIP3   OH264966   0.103   2.724  17.134 -0.3551 -0.1091  0.4898
14492TIP3    H164967   0.078   2.775  17.057  0.6631  1.2479  1.0383
14492TIP3    H264968   0.023   2.717  17.185 -0.8390 -0.2838 -0.2964
14493TIP3   OH264969   6.361   5.060  17.174 -0.1581  0.3085 -0.4644
14493TIP3    H164970   6.382   4.976  17.133 -0.6063 -0.5182  0.9767
14493TIP3    H264971   6.281   5.088  17.129 -1.3948 -1.2386  0.7151
14494TIP3   OH264972   1.334   3.007  14.708  0.5460 -0.6951 -0.1789
14494TIP3    H164973   1.400   2.981  14.643 -0.5741 -0.8286 -1.2694
14494TIP3    H264974   1.370   3.086  14.748  0.3263  0.5836 -2.3979
14495TIP3   OH264975   6.187   4.909   2.164 -0.4592 -0.1936 -1.2434
14495TIP3    H164976   6.093   4.908   2.184 -0.3310 -1.6854 -0.6885
14495TIP3    H264977   6.203   4.826   2.119  0.8935 -0.6298  0.0191
14496TIP3   OH264978   0.929   5.109   0.266  0.1551  0.0684 -0.3277
14496TIP3    H164979   0.967   5.025   0.291 -2.0260 -0.7373  0.4344
14496TIP3    H264980   0.916   5.155   0.349 -3.1345 -0.8563 -0.2748
14497TIP3   OH264981   5.503   1.558   4.859 -0.3403  0.7784 -0.1549
14497TIP3    H164982   5.450   1.483   4.887 -0.6370  1.0788  0.0931
14497TIP3    H264983   5.561   1.575   4.933  0.5810  0.0169 -0.6948
14498TIP3   OH264984   6.558   4.523   4.347 -0.1374 -0.2891 -0.2828
14498TIP3    H164985   6.615   4.470   4.291 -1.0377 -0.3233 -1.1823
14498TIP3    H264986   6.553   4.473   4.429  0.4835 -0.6749 -0.4677
14499TIP3   OH264987   0.525   5.949   5.781 -0.1975 -0.5037  0.4442
14499TIP3    H164988   0.593   5.890   5.749  0.7630  0.9571 -0.2433
14499TIP3    H264989   0.491   5.906   5.860 -0.6882 -2.7813 -0.9595
14500TIP3   OH264990   6.542   1.416  13.006 -0.5307 -0.2858 -0.4679
14500TIP3    H164991   6.611   1.414  13.072 -1.4665  0.6317  0.5402
14500TIP3    H264992   6.589   1.422  12.923  0.7316 -3.2876 -0.0571
14501TIP3   OH264993   5.003   3.450  13.933 -0.6966  0.1134 -0.0726
14501TIP3    H164994   5.029   3.518  13.871 -2.6692  0.1138 -0.9231
14501TIP3    H264995   5.081   3.395  13.942  0.0634  0.9311 -1.4567
14502TIP3   OH264996   1.183   4.259  15.191 -0.4959  0.5815 -0.0867
14502TIP3    H164997   1.263   4.243  15.141 -1.2897  0.3450 -1.3107
14502TIP3    H264998   1.117   4.204  15.148 -1.3565  0.9283  0.7820
14503TIP3   OH264999   5.695   4.330   5.885 -0.1257 -0.1205  0.1819
14503TIP3    H165000   5.780   4.295   5.856  0.2110  0.7216  0.1482
14503TIP3    H265001   5.633   4.304   5.817  0.4047  0.6649 -0.6113
14504TIP3   OH265002   2.382   5.132  10.827 -0.4172 -0.5118 -0.4620
14504TIP3    H165003   2.424   5.140  10.741  2.3963  2.2151  1.0421
14504TIP3    H265004   2.451   5.153  10.889 -2.9312 -0.3657  2.3914
14505TIP3   OH265005   3.619   3.263  13.543 -0.6244  0.0215 -0.2327
14505TIP3    H165006   3.703   3.233  13.509 -0.1635  0.0990  0.8449
14505TIP3    H265007   3.633   3.355  13.564 -0.6039 -0.2903  1.1605
14506TIP3   OH265008   4.043   5.093   5.644 -0.1598 -0.5753 -0.7137
14506TIP3    H165009   3.949   5.104   5.634  0.1108  2.8747  0.0002
14506TIP3    H265010   4.076   5.181   5.662  2.9703 -2.0272  1.0337
14507TIP3   OH265011   2.481   5.612  13.488  0.3678 -0.0289 -0.2496
14507TIP3    H165012   2.458   5.678  13.422 -1.5387 -1.6869 -1.3028
14507TIP3    H265013   2.555   5.566  13.450 -1.3283 -1.6121 -1.7386
14508TIP3   OH265014   5.053   6.310  11.719 -0.0905  0.0067 -0.0410
14508TIP3    H165015   5.120   6.324  11.652 -1.5172 -0.4418 -1.5979
14508TIP3    H265016   5.023   6.220  11.705 -1.5365  0.4427  0.1559
14509TIP3   OH265017   5.313   1.811   4.981  0.8159  0.2743 -0.0354
14509TIP3    H165018   5.276   1.737   5.030 -0.0429 -1.0197 -2.5552
14509TIP3    H265019   5.406   1.808   5.000  0.7223 -1.1492  0.2759
14510TIP3   OH265020   3.747   2.615  11.973  0.2179 -0.2598  0.3470
14510TIP3    H165021   3.840   2.594  11.970  0.4178  0.8356 -1.6169
14510TIP3    H265022   3.732   2.645  12.063  1.9135  0.3026  0.4497
14511TIP3   OH265023   3.083   1.713   4.308 -0.3868 -0.5442 -0.3153
14511TIP3    H165024   3.125   1.751   4.230 -1.2293 -1.2918 -1.1501
14511TIP3    H265025   3.101   1.620   4.301 -2.0165 -0.8565 -0.6006
14512TIP3   OH265026   2.236   0.749   1.802 -0.3654 -0.4848 -0.3500
14512TIP3    H165027   2.184   0.720   1.728 -2.0229 -1.3898  1.1306
14512TIP3    H265028   2.264   0.667   1.844 -0.9978  0.0114  1.0673
14513TIP3   OH265029   2.547   1.925  14.728 -0.0326 -0.0933  0.2568
14513TIP3    H165030   2.538   1.879  14.811 -0.9637 -0.7475 -0.1814
14513TIP3    H265031   2.491   2.002  14.736  2.1311  1.4007  1.2725
14514TIP3   OH265032   2.937   2.539  12.696 -0.4610 -0.0126  0.2730
14514TIP3    H165033   2.947   2.601  12.623 -1.1204 -1.3268 -0.9601
14514TIP3    H265034   2.976   2.584  12.771  1.4313  0.8419 -1.1705
14515TIP3   OH265035   4.006   4.016   3.184 -0.5277  0.3813 -0.4082
14515TIP3    H165036   4.063   4.074   3.133  1.7706 -0.8499  0.6844
14515TIP3    H265037   3.920   4.058   3.181  0.1432  1.6355 -3.1423
14516TIP3   OH265038   4.453   2.292   2.906 -0.1501  0.1714 -0.0193
14516TIP3    H165039   4.529   2.259   2.858  0.0749 -0.1656  0.5631
14516TIP3    H265040   4.440   2.381   2.872  1.0479  0.5607  0.4810
14517TIP3   OH265041   3.728   3.126   2.450 -0.3463  0.2466 -0.2177
14517TIP3    H165042   3.740   3.206   2.502 -0.0357 -0.5717  0.9693
14517TIP3    H265043   3.748   3.153   2.361  1.3472  1.1154  0.4122
14518TIP3   OH265044   3.772   0.985   1.056  0.4211  0.2476  0.0809
14518TIP3    H165045   3.835   1.013   1.123 -0.4220  1.3235  0.4444
14518TIP3    H265046   3.753   0.894   1.077  1.7189 -0.0375  0.0743
14519TIP3   OH265047   3.518   2.108  14.837 -0.2815  0.2094 -0.1830
14519TIP3    H165048   3.481   2.065  14.759  1.1228 -1.4980  0.0719
14519TIP3    H265049   3.548   2.037  14.892  0.3711  1.4781  1.1351
14520TIP3   OH265050   2.698   1.195  11.072  0.0652 -0.2286 -0.3069
14520TIP3    H165051   2.611   1.235  11.069  1.2345  2.5782  1.6492
14520TIP3    H265052   2.749   1.242  11.005  0.2458 -1.5620 -1.1374
14521TIP3   OH265053   5.675   1.320   3.115 -0.3314  0.2103  0.3032
14521TIP3    H165054   5.674   1.226   3.136 -0.0628  0.1551  0.0762
14521TIP3    H265055   5.585   1.341   3.094 -0.0800 -0.4092 -1.4796
14522TIP3   OH265056   2.644   6.588   3.756 -0.2517  0.3101  0.1685
14522TIP3    H165057   2.698   6.511   3.769 -2.3781 -1.1578  0.6149
14522TIP3    H265058   2.560   6.554   3.726 -0.4723  2.6214 -1.9829
14523TIP3   OH265059   2.664   4.768   1.289 -0.1523  0.1136  0.1465
14523TIP3    H165060   2.684   4.675   1.281 -0.3513  0.0591  0.2647
14523TIP3    H265061   2.744   4.808   1.324 -1.3184 -0.6171  3.8846
14524TIP3   OH265062   1.179   1.060   4.289  0.7626  0.2907  0.0291
14524TIP3    H165063   1.250   1.008   4.326 -0.3495 -0.2554  1.4512
14524TIP3    H265064   1.191   1.147   4.326  1.5555  0.5886 -0.9127
14525TIP3   OH265065   2.506   0.199  13.829  0.1182 -0.3655 -0.5498
14525TIP3    H165066   2.523   0.293  13.834 -1.1431 -0.0714 -1.3581
14525TIP3    H265067   2.518   0.167  13.918 -0.8182  0.8244  0.0168
14526TIP3   OH265068   5.515   6.091  14.061 -0.1346  0.0441 -0.0474
14526TIP3    H165069   5.532   6.060  13.972 -1.5228 -0.7719 -0.0492
14526TIP3    H265070   5.525   6.186  14.056 -1.3028  0.1194 -1.3505
14527TIP3   OH265071   6.204   0.089  12.184  0.8827  0.1314 -0.0418
14527TIP3    H165072   6.123   0.064  12.229 -0.1708  1.5606 -1.1087
14527TIP3    H265073   6.268   0.103  12.254  0.2108 -1.0064  0.8027
14528TIP3   OH265074   3.740   2.369   0.671 -0.1529  0.3401 -0.4853
14528TIP3    H165075   3.657   2.321   0.682 -0.4635  1.4234  2.1207
14528TIP3    H265076   3.715   2.461   0.678  1.1677  0.6981 -0.4792
14529TIP3   OH265077   2.479   3.829   2.905 -1.2849 -0.3128 -0.3613
14529TIP3    H165078   2.458   3.833   2.998 -1.1217  1.1588 -0.3881
14529TIP3    H265079   2.570   3.858   2.900 -2.0585  2.0479 -1.2557
14530TIP3   OH265080   4.903   0.657   3.767 -0.2454 -0.0242  0.5739
14530TIP3    H165081   4.915   0.716   3.693 -0.9031  1.7721  1.8672
14530TIP3    H265082   4.978   0.674   3.824 -0.8536  0.1585  1.3314
14531TIP3   OH265083   2.975   2.662  15.790  0.0410  0.0827 -0.2014
14531TIP3    H165084   3.055   2.611  15.778  0.1754 -0.3076  2.0668
14531TIP3    H265085   2.933   2.661  15.705  2.3465  0.1185 -1.3843
14532TIP3   OH265086   1.790   5.216  15.771  0.0183 -0.7091  0.2683
14532TIP3    H165087   1.770   5.309  15.763  0.4483 -0.7108 -0.9399
14532TIP3    H265088   1.710   5.177  15.804  0.2897  0.2921  2.1450
14533TIP3   OH265089   2.405   0.610  12.916 -0.1833 -0.4028 -0.4728
14533TIP3    H165090   2.431   0.702  12.918  2.1746 -0.9880 -1.8331
14533TIP3    H265091   2.433   0.575  13.001  1.0357 -0.3762 -0.8522
14534TIP3   OH265092   5.590   3.231  14.144  0.4830  0.2396  0.6315
14534TIP3    H165093   5.622   3.182  14.220 -0.2837  0.3969  1.0613
14534TIP3    H265094   5.520   3.176  14.108  2.3613 -0.9490 -1.3524
14535TIP3   OH265095   0.646   4.216   1.029  0.9692  0.0522  0.0628
14535TIP3    H165096   0.578   4.252   0.972 -0.8308 -0.5126  1.8203
14535TIP3    H265097   0.651   4.124   1.005  0.4900 -0.0984  0.5357
14536TIP3   OH265098   0.703   6.022  16.762  0.0860  0.2927 -0.8018
14536TIP3    H165099   0.624   6.014  16.817 -1.8800  0.3194 -3.4956
14536TIP3    H265100   0.708   6.115  16.741  1.5250  0.4679  0.2988
14537TIP3   OH265101   4.082   1.324  11.071  0.0299  0.1906  0.3714
14537TIP3    H165102   4.167   1.322  11.028 -1.1391 -0.1708 -2.0187
14537TIP3    H265103   4.081   1.407  11.119  2.3007 -0.5144  1.6537
14538TIP3   OH265104   3.293   1.110  16.319  0.0411 -0.8095  0.3467
14538TIP3    H165105   3.238   1.095  16.395 -1.2498 -0.4067 -0.5019
14538TIP3    H265106   3.307   1.204  16.318  1.3119 -0.9784  0.9379
14539TIP3   OH265107   3.313   0.114   4.415  0.3397  0.7034 -0.2835
14539TIP3    H165108   3.238   0.099   4.358 -0.8337  0.1633  1.3329
14539TIP3    H265109   3.351   0.196   4.386 -0.7894  0.8857 -1.2322
14540TIP3   OH265110   2.951   1.917  14.752  0.0816  0.0670 -0.9534
14540TIP3    H165111   2.983   1.838  14.709  2.0134  0.4928 -0.3169
14540TIP3    H265112   2.913   1.885  14.834 -0.5378 -0.3533 -1.3931
14541TIP3   OH265113   4.199   4.090   2.692  0.4213  0.3080  0.1451
14541TIP3    H165114   4.169   4.015   2.743  1.9832 -0.5379 -0.1450
14541TIP3    H265115   4.217   4.158   2.757 -2.0719  0.8528  0.3259
14542TIP3   OH265116   1.749   3.317   0.533  0.4150 -0.3851  0.3774
14542TIP3    H165117   1.718   3.370   0.606  0.0211 -0.1629  0.0504
14542TIP3    H265118   1.837   3.351   0.514  0.1348  0.2121  0.1184
14543TIP3   OH265119   4.716   2.580   5.293  0.1249 -0.7724 -0.6915
14543TIP3    H165120   4.761   2.598   5.375  0.5826 -0.2055 -1.0619
14543TIP3    H265121   4.645   2.644   5.289  1.0993  0.2815 -1.5011
14544TIP3   OH265122   5.136   4.582  11.321  0.5217  0.5406  0.3071
14544TIP3    H165123   5.195   4.652  11.349  1.2216  0.1720 -0.2248
14544TIP3    H265124   5.055   4.598  11.369  0.2520  2.4240 -0.7131
14545TIP3   OH265125   6.248   5.010  10.404 -0.0666  0.2232 -0.2338
14545TIP3    H165126   6.301   5.090  10.393  0.0444  0.2758  0.6265
14545TIP3    H265127   6.240   5.000  10.499 -2.4076  0.7414 -0.3488
14546TIP3   OH265128   1.759   0.223  17.170  0.0236 -0.0016  0.2320
14546TIP3    H165129   1.728   0.144  17.216 -2.0570 -0.6855 -2.2351
14546TIP3    H265130   1.749   0.202  17.077  3.3045  1.6822 -0.5906
14547TIP3   OH265131   4.195   6.707  14.889  0.7998  0.1623 -0.6743
14547TIP3    H165132   4.252   6.744  14.821 -1.0788  0.5292 -2.0973
14547TIP3    H265133   4.126   6.772  14.901  1.6515  0.5848  2.3929
14548TIP3   OH265134   6.644   5.717  12.940  0.0962  0.4878  0.2156
14548TIP3    H165135   6.718   5.772  12.968  0.4985 -0.2064  0.5353
14548TIP3    H265136   6.618   5.754  12.855  1.7461 -0.1515 -0.5949
14549TIP3   OH265137   1.775   3.079  12.484 -0.0817  0.0458  0.4237
14549TIP3    H165138   1.867   3.104  12.488 -0.3991  1.1960  0.6688
14549TIP3    H265139   1.750   3.063  12.576 -0.2514  0.2237  0.4107
14550TIP3   OH265140   1.655   2.547   3.717  0.2483  0.0328  0.2413
14550TIP3    H165141   1.565   2.578   3.708 -0.0388 -0.8955 -0.1670
14550TIP3    H265142   1.650   2.482   3.787  0.5680 -0.1569  0.0839
14551TIP3   OH265143   4.802   3.077   1.588  0.1313 -0.3159  0.0930
14551TIP3    H165144   4.813   3.126   1.670 -1.2558 -0.4753  0.3852
14551TIP3    H265145   4.743   3.005   1.611 -0.0457 -0.5134 -0.9870
14552TIP3   OH265146   0.228   2.030  15.628 -0.5619  0.3743  0.0973
14552TIP3    H165147   0.179   2.009  15.707  0.8060  0.8297  1.0875
14552TIP3    H265148   0.268   2.115  15.647 -0.1859  0.4661 -1.0642
14553TIP3   OH265149   5.700   4.517  15.369  0.1573 -0.2536 -0.1121
14553TIP3    H165150   5.682   4.611  15.378  2.0573  0.1763 -0.5730
14553TIP3    H265151   5.744   4.509  15.285  3.4902 -1.0053  1.6503
14554TIP3   OH265152   5.162   2.069  11.073 -0.3317  0.2828 -0.5955
14554TIP3    H165153   5.125   2.000  11.128 -0.7381 -0.6528 -2.0213
14554TIP3    H265154   5.120   2.149  11.104 -1.2289 -0.3591 -0.1339
14555TIP3   OH265155   2.086   1.120  16.702  0.2559  0.6024  0.0654
14555TIP3    H165156   2.165   1.170  16.680 -0.6509  1.7231 -0.7166
14555TIP3    H265157   2.017   1.186  16.705 -0.5387 -0.2833  1.3846
14556TIP3   OH265158   2.808   0.794   4.588  0.1476 -0.9766  0.3910
14556TIP3    H165159   2.772   0.717   4.633  0.0329 -0.6764  0.8254
14556TIP3    H265160   2.732   0.836   4.549  0.2562 -1.2691 -0.1375
14557TIP3   OH265161   3.017   2.156  12.313  0.2638  0.2423 -0.9635
14557TIP3    H165162   3.101   2.154  12.358 -0.6666 -0.9579  0.8405
14557TIP3    H265163   2.984   2.245  12.327  0.1469 -0.0082  0.5274
14558TIP3   OH265164   5.750   0.136   1.107 -0.2475  0.0109 -0.2412
14558TIP3    H165165   5.801   0.217   1.097  0.6154 -0.2575  1.6657
14558TIP3    H265166   5.687   0.138   1.035  0.0924  2.1405 -0.5131
14559TIP3   OH265167   0.457   5.464   5.643  0.1853 -0.0675  0.1469
14559TIP3    H165168   0.386   5.526   5.627  1.1209  0.5320 -1.7308
14559TIP3    H265169   0.453   5.447   5.738 -1.8622  0.6655  0.2041
14560TIP3   OH265170   3.912   4.098  13.970 -0.6195 -0.1777 -0.1441
14560TIP3    H165171   4.008   4.102  13.971 -0.5953 -0.7187  0.0090
14560TIP3    H265172   3.889   4.066  14.057 -1.0122  1.3002  0.3146
14561TIP3   OH265173   5.302   0.026  10.949 -0.4139 -0.4094  0.0085
14561TIP3    H165174   5.371   0.021  11.016 -0.4900 -2.0257 -0.0246
14561TIP3    H265175   5.261  -0.060  10.950 -0.6882 -0.3162 -1.8467
14562TIP3   OH265176   5.011   0.317   4.408  0.1140  0.1797  0.1506
14562TIP3    H165177   5.049   0.404   4.417  0.4482  0.3059 -2.2333
14562TIP3    H265178   4.937   0.329   4.348  0.6652 -1.3214 -0.8567
14563TIP3   OH265179   2.545   0.540   2.092 -0.5419 -0.1108  0.0074
14563TIP3    H165180   2.498   0.536   2.009  1.3716  0.5760 -1.1488
14563TIP3    H265181   2.517   0.622   2.132 -0.1849  0.3945 -0.7655
14564TIP3   OH265182   2.596   3.847   5.162 -0.4244 -0.0462 -0.4856
14564TIP3    H165183   2.506   3.852   5.196 -0.4507 -0.0102 -0.5579
14564TIP3    H265184   2.651   3.849   5.240 -0.5309 -1.3787 -0.3751
14565TIP3   OH265185   1.448   1.944   4.315 -0.1807 -0.4725  0.0994
14565TIP3    H165186   1.448   1.860   4.361  2.8772 -0.1187  0.8270
14565TIP3    H265187   1.432   2.009   4.384 -2.4272 -0.3884 -0.4455
14566TIP3   OH265188   5.951   3.635  15.638 -0.0675 -0.1665 -0.1446
14566TIP3    H165189   5.977   3.544  15.627 -3.4815 -1.3228  0.7411
14566TIP3    H265190   6.005   3.684  15.575  2.8979 -2.5437  0.4464
14567TIP3   OH265191   5.914   0.138   3.575 -0.6697  0.3527  0.0665
14567TIP3    H165192   5.998   0.106   3.544 -1.6040 -1.4412 -0.6678
14567TIP3    H265193   5.890   0.078   3.646 -1.1022  1.1704  0.6308
14568TIP3   OH265194   1.390   6.298   2.902 -0.2839  0.0697 -0.6829
14568TIP3    H165195   1.454   6.246   2.950 -0.7001 -0.1148 -0.3254
14568TIP3    H265196   1.356   6.239   2.834  0.3550  0.3525 -1.2569
14569TIP3   OH265197   3.654   4.815  11.972  0.9184  0.3306 -0.2374
14569TIP3    H165198   3.582   4.858  12.017 -0.6568 -0.6508 -1.7419
14569TIP3    H265199   3.612   4.746  11.920  3.0530 -1.0268 -0.2453
14570TIP3   OH265200   0.814   3.093   5.677  0.3194  0.7451 -0.6000
14570TIP3    H165201   0.841   3.070   5.588  0.5810 -0.2309 -0.2753
14570TIP3    H265202   0.728   3.134   5.665 -0.2856 -0.6266 -1.2034
14571TIP3   OH265203   2.704   5.098   1.275 -0.0986  0.4257  0.1310
14571TIP3    H165204   2.688   5.073   1.366 -0.8868  1.3043  0.2493
14571TIP3    H265205   2.617   5.106   1.236  0.2086  0.6986 -0.5171
14572TIP3   OH265206   5.865   2.028  14.680  0.1167 -0.1571  0.7089
14572TIP3    H165207   5.889   2.005  14.590  2.6500 -1.8131  1.7542
14572TIP3    H265208   5.803   2.101  14.670 -0.4509 -0.9901 -2.3799
14573TIP3   OH265209   6.606   1.828  16.203 -0.1099 -0.5859  0.7579
14573TIP3    H165210   6.518   1.845  16.170  0.2157 -1.4235 -0.5808
14573TIP3    H265211   6.592   1.789  16.289 -1.1980 -3.9369 -0.8352
14574TIP3   OH265212   5.080   5.511   0.677  0.5422 -0.4409 -0.2094
14574TIP3    H165213   4.996   5.520   0.722  0.4703 -0.3762 -0.3579
14574TIP3    H265214   5.088   5.417   0.659 -0.0468 -0.2954 -1.2574
14575TIP3   OH265215   1.628   0.636  15.026 -0.0645  0.0658 -0.1982
14575TIP3    H165216   1.604   0.551  15.064 -0.0729  0.9230  1.7598
14575TIP3    H265217   1.721   0.646  15.048  1.3205 -1.5790 -4.5861
14576TIP3   OH265218   2.308   0.896   3.657 -0.1849  0.8103 -0.4117
14576TIP3    H165219   2.237   0.907   3.593 -0.5452  3.0856  0.3279
14576TIP3    H265220   2.283   0.818   3.707 -1.6982  1.0579 -0.7594
14577TIP3   OH265221   0.651   1.106   3.478  0.0012  0.0505  0.3114
14577TIP3    H165222   0.562   1.097   3.445  0.6410 -0.2356 -1.3790
14577TIP3    H265223   0.668   1.201   3.477  1.1275 -0.1315 -3.2843
14578TIP3   OH265224   1.432   5.528   5.677  0.3214 -0.9088  0.0941
14578TIP3    H165225   1.511   5.484   5.644  1.5101  0.5233  0.9525
14578TIP3    H265226   1.431   5.508   5.771 -0.4591 -1.0813  0.0541
14579TIP3   OH265227   5.351   5.439  11.767  0.4373  0.6903  0.6594
14579TIP3    H165228   5.429   5.384  11.759 -0.9320 -1.4270  1.5557
14579TIP3    H265229   5.284   5.392  11.717 -0.7202  1.6460  1.3005
14580TIP3   OH265230   1.865   5.456   2.972  0.0897 -0.3765  0.0359
14580TIP3    H165231   1.813   5.380   2.999 -0.6462  0.4404  0.9334
14580TIP3    H265232   1.923   5.474   3.046  0.2457 -0.0481 -0.1629
14581TIP3   OH265233   2.241   0.395  13.506 -0.2546 -0.0887  0.3841
14581TIP3    H165234   2.183   0.436  13.570 -1.1967 -0.2606 -0.3360
14581TIP3    H265235   2.329   0.420  13.532 -0.8484  3.1565 -0.5437
14582TIP3   OH265236   6.652   5.364   3.072  0.5373 -0.1211 -0.0874
14582TIP3    H165237   6.622   5.353   2.982  2.5660  0.8257 -0.8900
14582TIP3    H265238   6.653   5.458   3.086  0.3269 -0.2590  0.9154
14583TIP3   OH265239   3.661   4.224  11.720  0.1887 -0.2225 -0.4495
14583TIP3    H165240   3.702   4.310  11.712  0.7483 -0.4752 -0.3012
14583TIP3    H265241   3.580   4.240  11.767  0.2704  0.2318 -0.4644
14584TIP3   OH265242   2.341   4.442  15.120 -0.3639 -0.7349 -0.1238
14584TIP3    H165243   2.299   4.421  15.037 -0.2025  0.3371 -0.4848
14584TIP3    H265244   2.425   4.481  15.095 -0.6700  0.3585  0.5172
14585TIP3   OH265245   0.197   4.323   6.014 -0.4317 -0.2567  0.1066
14585TIP3    H165246   0.252   4.399   5.995 -1.3376  0.1083 -1.1367
14585TIP3    H265247   0.251   4.248   5.991 -0.5888  0.1101 -1.5516
14586TIP3   OH265248   5.841   3.535   1.837 -0.3215 -0.1688 -0.2891
14586TIP3    H165249   5.918   3.505   1.885 -1.7052 -0.7737  1.5981
14586TIP3    H265250   5.769   3.531   1.900 -1.8968  0.4822 -1.9738
14587TIP3   OH265251   2.350   2.000  11.960  0.5126  0.1289  0.1029
14587TIP3    H165252   2.366   2.093  11.944 -2.3232  0.5276 -0.6255
14587TIP3    H265253   2.345   1.962  11.872  2.6475 -0.9338  0.4054
14588TIP3   OH265254   2.586   3.295  16.622  0.3571 -0.3200  0.1278
14588TIP3    H165255   2.570   3.303  16.528 -1.2198 -1.0792  0.3014
14588TIP3    H265256   2.598   3.385  16.651 -0.0052 -0.0062 -0.6648
14589TIP3   OH265257   5.261   5.702   0.578 -0.1335 -0.4455 -0.3902
14589TIP3    H165258   5.234   5.793   0.568  0.6199 -0.1431  0.2234
14589TIP3    H265259   5.202   5.667   0.645  2.0012  0.6955  2.2170
14590TIP3   OH265260   1.553   6.014   2.166  0.2008 -0.0167 -0.3378
14590TIP3    H165261   1.627   6.060   2.206  0.8521 -1.0011 -0.4097
14590TIP3    H265262   1.496   5.991   2.240 -0.7087  1.8997 -0.4060
14591TIP3   OH265263   4.047   3.298   2.595 -0.6910  0.0229 -0.2347
14591TIP3    H165264   4.003   3.374   2.558  0.5278  0.4619 -0.8254
14591TIP3    H265265   4.114   3.276   2.531  0.2584 -0.3285  0.8612
14592TIP3   OH265266   4.169   1.191   6.254  0.2041  0.3842  0.0522
14592TIP3    H165267   4.179   1.279   6.217 -0.1809  0.8901  1.1166
14592TIP3    H265268   4.192   1.132   6.183 -3.3365  1.2525 -1.9065
14593TIP3   OH265269   6.413   5.844   3.189 -0.3743  0.0640 -0.3474
14593TIP3    H165270   6.487   5.858   3.248 -2.0731  0.6831  1.7169
14593TIP3    H265271   6.418   5.915   3.126  1.9095 -1.0395 -1.4692
14594TIP3   OH265272   1.236   6.460   2.386  0.2410  0.6327 -0.7492
14594TIP3    H165273   1.195   6.393   2.332 -3.8778  0.9111  1.8236
14594TIP3    H265274   1.231   6.540   2.335 -3.0101  0.7658 -0.2724
14595TIP3   OH265275   4.691   0.070  12.504  0.5777 -0.4993 -0.7045
14595TIP3    H165276   4.785   0.071  12.484  0.9403  1.2588  0.9264
14595TIP3    H265277   4.656   0.149  12.463 -0.0851 -0.8716 -0.8641
14596TIP3   OH265278   2.465   5.247   3.911 -0.1665  0.2126  0.6082
14596TIP3    H165279   2.465   5.231   4.005 -1.1231 -2.5227  0.1951
14596TIP3    H265280   2.377   5.221   3.882  0.2903  0.5295 -1.1166
14597TIP3   OH265281   6.702   4.404   1.419  0.0641  0.0675  0.6573
14597TIP3    H165282   6.678   4.343   1.348 -1.3263 -0.0824  1.2363
14597TIP3    H265283   6.785   4.369   1.453  0.0208 -0.6760  0.0326
14598TIP3   OH265284   1.157   5.324   1.632 -0.4497  0.0008 -0.0013
14598TIP3    H165285   1.191   5.384   1.565  0.2359  3.3538  3.1504
14598TIP3    H265286   1.234   5.300   1.684 -1.1365 -1.6622  0.2814
14599TIP3   OH265287   6.108   3.148  10.890  0.1800 -0.0082 -0.1658
14599TIP3    H165288   6.139   3.066  10.928 -0.1004  0.1672  0.4486
14599TIP3    H265289   6.076   3.199  10.965 -2.1796 -0.4372 -0.8335
14600TIP3   OH265290   6.282   0.614  13.771 -0.1423  0.4188 -0.4638
14600TIP3    H165291   6.211   0.590  13.712 -1.3342  0.1461  1.0506
14600TIP3    H265292   6.239   0.627  13.855  1.8752 -1.6846  0.9457
14601TIP3   OH265293   4.684   0.977  12.735 -0.5290  0.1412  0.0171
14601TIP3    H165294   4.637   0.955  12.655  0.1847  1.3629 -0.7617
14601TIP3    H265295   4.776   0.963  12.713 -0.2394  1.6856  0.2222
14602TIP3   OH265296   2.851   2.102   5.220 -0.1218  0.0701  0.4682
14602TIP3    H165297   2.902   2.034   5.265  0.0756  0.0669  0.2404
14602TIP3    H265298   2.890   2.184   5.249  0.3060  0.0557 -0.0505
14603TIP3   OH265299   5.568   3.784  12.187 -0.1083  0.0183 -0.0543
14603TIP3    H165300   5.538   3.869  12.219  0.8318  0.1766  0.4439
14603TIP3    H265301   5.488   3.732  12.177 -0.5014  0.2334  1.7945
14604TIP3   OH265302   0.253   1.228  14.258  0.2405 -0.3925 -0.2451
14604TIP3    H165303   0.311   1.285  14.309  0.5275 -2.5457  1.9368
14604TIP3    H265304   0.172   1.277  14.249  1.5771  1.6714 -1.2229
14605TIP3   OH265305   5.875   2.076  11.760 -0.4280 -0.3052 -0.7945
14605TIP3    H165306   5.896   2.167  11.742 -2.2512  0.2151 -0.4442
14605TIP3    H265307   5.937   2.049  11.827 -0.0319  0.7597 -0.7326
14606TIP3   OH265308   2.505   1.838   0.513 -0.0115 -0.4572  0.5951
14606TIP3    H165309   2.414   1.819   0.536 -0.1896  0.9350  1.0926
14606TIP3    H265310   2.516   1.800   0.426 -1.6922  1.2179 -0.3720
14607TIP3   OH265311   0.611   3.627  11.780  0.2854 -0.4342  0.0247
14607TIP3    H165312   0.632   3.546  11.827  1.3865  0.0977  0.4682
14607TIP3    H265313   0.663   3.623  11.700 -2.3466 -1.8146 -1.7052
14608TIP3   OH265314   6.513   4.875  17.032  0.3241  0.1110 -0.2843
14608TIP3    H165315   6.594   4.887  17.080 -0.3296  2.9400  0.2111
14608TIP3    H265316   6.487   4.785  17.050  2.6922 -0.4227  0.5673
14609TIP3   OH265317   3.578   5.488  12.986  0.5788 -0.0182 -0.6993
14609TIP3    H165318   3.500   5.514  13.034  1.5754 -0.6689  1.3375
14609TIP3    H265319   3.651   5.525  13.036  1.5617  1.4366 -3.0962
14610TIP3   OH265320   0.156   1.671  16.250 -0.0933  0.8226  0.0565
14610TIP3    H165321   0.118   1.610  16.313  0.8449  0.8106  0.6206
14610TIP3    H265322   0.205   1.733  16.303  0.9359  0.6498 -0.6703
14611TIP3   OH265323   0.986   0.601  13.017  0.3455 -0.3428 -0.1809
14611TIP3    H165324   1.056   0.537  13.009  1.0981  0.4165  0.3053
14611TIP3    H265325   1.002   0.645  13.100  0.0974  0.8008 -0.7224
14612TIP3   OH265326   4.509   5.651  16.394 -0.2707 -0.1245 -0.4727
14612TIP3    H165327   4.420   5.670  16.423 -0.5035 -0.1101 -1.1824
14612TIP3    H265328   4.512   5.681  16.303  0.8929  1.1762 -0.0262
14613TIP3   OH265329   5.188   0.269  15.513  0.0202 -0.2123  0.5060
14613TIP3    H165330   5.267   0.230  15.477 -1.1427 -1.5892 -0.5939
14613TIP3    H265331   5.117   0.233  15.461 -1.4676 -0.1205  2.4172
14614TIP3   OH265332   2.530   3.967  15.303 -0.0691  0.0778 -0.1212
14614TIP3    H165333   2.437   3.947  15.316 -0.4273  0.9202 -1.3531
14614TIP3    H265334   2.562   3.895  15.248  0.2001 -0.6126  0.9104
14615TIP3   OH265335   6.491   4.469   4.609  0.1144  0.3397  0.1291
14615TIP3    H165336   6.412   4.503   4.651 -0.7663 -0.4686 -0.8743
14615TIP3    H265337   6.506   4.384   4.651  0.3439  0.4038  0.1800
14616TIP3   OH265338   0.883   3.256  15.938  0.3871  0.3442  0.2717
14616TIP3    H165339   0.923   3.285  16.021  1.1283  1.2531 -0.3896
14616TIP3    H265340   0.955   3.259  15.875 -0.0333 -0.9353 -0.2761
14617TIP3   OH265341   1.194   5.662   1.547 -0.1439  0.5012  0.1126
14617TIP3    H165342   1.140   5.644   1.470  0.3848 -1.6211  0.2074
14617TIP3    H265343   1.276   5.695   1.511 -0.0138 -0.1906 -0.2477
14618TIP3   OH265344   6.031   0.371  12.886 -0.1545 -0.3593 -0.1492
14618TIP3    H165345   5.978   0.402  12.812 -0.4562 -0.8935 -0.1627
14618TIP3    H265346   5.980   0.395  12.964 -0.5800 -1.1534 -0.1736
14619TIP3   OH265347   5.628   1.214   6.292  0.0959 -0.1983 -0.0231
14619TIP3    H165348   5.612   1.300   6.331  1.4228 -0.5912  1.4202
14619TIP3    H265349   5.721   1.197   6.309 -0.1705 -1.9392 -0.2563
14620TIP3   OH265350   6.197   4.431   2.973  0.2479 -0.1556  0.4328
14620TIP3    H165351   6.137   4.356   2.967  0.7868 -0.5278 -0.2669
14620TIP3    H265352   6.271   4.398   3.024  0.7777 -0.2886 -0.4236
14621TIP3   OH265353   0.178   1.878  12.513 -0.8297 -0.5820  0.1671
14621TIP3    H165354   0.139   1.808  12.461 -3.3557  1.0230 -0.2088
14621TIP3    H265355   0.206   1.944  12.450  1.4493 -1.1678  0.5217
14622TIP3   OH265356   2.438   3.429   2.425 -0.3186  0.5891  0.7600
14622TIP3    H165357   2.440   3.336   2.402 -1.1870  0.7649 -0.0402
14622TIP3    H265358   2.468   3.474   2.346 -0.3357  1.0204  0.9983
14623TIP3   OH265359   3.330   4.519  11.066 -0.0078 -0.2173  0.0472
14623TIP3    H165360   3.384   4.447  11.098 -0.6284 -0.4237  0.6521
14623TIP3    H265361   3.253   4.518  11.123  0.8457  2.1253  1.3221
14624TIP3   OH265362   4.187   4.607  14.202  0.2553  0.0634 -0.0872
14624TIP3    H165363   4.127   4.629  14.130 -3.0439  0.7740  2.7016
14624TIP3    H265364   4.132   4.612  14.281  3.3416 -2.2316  2.3453
14625TIP3   OH265365   5.529   2.719   1.174 -0.4683  0.2649 -0.5108
14625TIP3    H165366   5.513   2.629   1.145  1.9964 -0.5222  0.4574
14625TIP3    H265367   5.550   2.767   1.094  1.9406 -0.9111 -0.6381
14626TIP3   OH265368   3.336   0.371  12.864 -0.1271  0.5588  0.0725
14626TIP3    H165369   3.278   0.301  12.836 -0.5468  1.1561 -0.5658
14626TIP3    H265370   3.372   0.408  12.783 -1.4167  2.3436  0.2783
14627TIP3   OH265371   4.361   3.984  13.482 -0.1876  0.0745 -0.4812
14627TIP3    H165372   4.398   3.899  13.507  0.4158 -0.3660 -2.7900
14627TIP3    H265373   4.268   3.976  13.504  0.1103 -0.6865  0.5615
14628TIP3   OH265374   0.663   0.183  14.227  0.5525 -0.0866 -0.1004
14628TIP3    H165375   0.575   0.147  14.230  0.6284 -0.5198 -2.3804
14628TIP3    H265376   0.693   0.181  14.318 -1.1273 -1.5484  0.4428
14629TIP3   OH265377   3.936   2.446   6.023  0.2297  0.3636  0.1296
14629TIP3    H165378   3.876   2.390   6.073  2.6947 -0.2012  2.5752
14629TIP3    H265379   3.889   2.529   6.014 -1.0773 -0.1736  1.6504
14630TIP3   OH265380   2.424   5.583  13.901 -0.7171  0.2131  0.5805
14630TIP3    H165381   2.406   5.663  13.950 -0.5591  1.4075 -1.2695
14630TIP3    H265382   2.363   5.519  13.937 -1.7463  1.5057  1.1858
14631TIP3   OH265383   6.161   6.187  12.151  0.0218  0.0403  0.0683
14631TIP3    H165384   6.069   6.160  12.153  0.2735 -0.9749 -0.9509
14631TIP3    H265385   6.206   6.125  12.208 -0.0830  1.2370  1.4732
14632TIP3   OH265386   5.249   5.232  15.471 -0.8030  0.3704 -0.0068
14632TIP3    H165387   5.192   5.295  15.425 -0.7624 -0.5240 -1.3081
14632TIP3    H265388   5.337   5.255  15.443 -0.7078  0.3315  0.2604
14633TIP3   OH265389   0.103   5.596  15.336  0.3863 -0.1761  0.1683
14633TIP3    H165390   0.068   5.682  15.311 -1.5715 -0.9795  0.0414
14633TIP3    H265391   0.151   5.612  15.417 -1.1070  0.8303  0.8876
14634TIP3   OH265392   1.945   2.011  11.161  0.0034  0.4612  0.0766
14634TIP3    H165393   1.995   1.953  11.104 -1.3228  0.1789 -0.8167
14634TIP3    H265394   1.966   1.981  11.250  1.8748  0.7401 -0.2511
14635TIP3   OH265395   3.406   6.139  10.985  0.1401 -0.1268  0.3756
14635TIP3    H165396   3.327   6.088  11.004  0.6123 -1.0945 -0.2414
14635TIP3    H265397   3.379   6.202  10.918  0.4963 -2.1145 -1.6846
14636TIP3   OH265398   0.219   1.577  12.053  0.3578  0.1697  0.1796
14636TIP3    H165399   0.164   1.609  12.125  0.3352  1.2142 -0.3072
14636TIP3    H265400   0.294   1.537  12.097  1.6138  3.0735  0.7595
14637TIP3   OH265401   1.300   2.487   3.297  0.4702 -0.2705 -0.3532
14637TIP3    H165402   1.258   2.569   3.324 -1.7871 -1.5066  0.0127
14637TIP3    H265403   1.293   2.430   3.374 -1.4133 -2.0867 -1.8066
14638TIP3   OH265404   4.505   4.350   5.154 -0.4330  0.6378  0.8357
14638TIP3    H165405   4.585   4.401   5.145 -0.3137  0.4202  0.6653
14638TIP3    H265406   4.476   4.335   5.064 -1.2764  1.6724  0.9262
14639TIP3   OH265407   0.320   6.218  14.454 -0.6139  0.2226  0.0327
14639TIP3    H165408   0.289   6.240  14.542 -1.1700  0.1469 -0.1454
14639TIP3    H265409   0.310   6.299  14.404  3.1183  1.3787  0.9539
14640TIP3   OH265410   3.297   2.001   1.960 -0.1780 -0.1726  0.1262
14640TIP3    H165411   3.329   2.020   1.871  0.6451 -2.0314 -0.0167
14640TIP3    H265412   3.259   2.083   1.991  0.2734  0.7207 -1.6400
14641TIP3   OH265413   6.751   0.026   1.493 -0.0262 -0.8780  0.1839
14641TIP3    H165414   6.785  -0.053   1.535 -1.1791 -1.4078  0.1352
14641TIP3    H265415   6.657   0.010   1.485 -0.1320  0.1419 -0.6155
14642TIP3   OH265416   5.306   4.712   5.103  0.2845 -0.4251  0.3340
14642TIP3    H165417   5.267   4.782   5.050  0.7624 -0.6098 -0.2700
14642TIP3    H265418   5.287   4.737   5.193 -0.9976 -0.3729  0.0635
14643TIP3   OH265419   1.193   2.154   4.340  0.1443 -0.1045  0.5917
14643TIP3    H165420   1.190   2.097   4.417  2.7771 -0.4749  0.4672
14643TIP3    H265421   1.277   2.200   4.348  0.4533 -0.1475 -2.0460
14644TIP3   OH265422   4.154   2.477  14.834  0.2544  0.1516  0.1262
14644TIP3    H165423   4.077   2.421  14.829 -0.4996  0.9429  2.3092
14644TIP3    H265424   4.183   2.470  14.926  2.7805 -0.1388 -0.6464
14645TIP3   OH265425   5.266   6.080  11.958  0.4358 -0.6003  0.1077
14645TIP3    H165426   5.209   6.133  12.014 -0.1322 -1.7077  0.6060
14645TIP3    H265427   5.247   6.110  11.869 -0.7908 -0.8171  0.2835
14646TIP3   OH265428   2.734   2.399  11.141  0.0739  0.5551  0.4278
14646TIP3    H165429   2.699   2.460  11.206  0.3357 -1.8782  2.9964
14646TIP3    H265430   2.827   2.393  11.162  0.0082 -0.8630  0.3668
14647TIP3   OH265431   1.412   5.534   2.805 -0.4497  0.0280 -0.0114
14647TIP3    H165432   1.415   5.458   2.862  2.6689 -0.5080 -0.7543
14647TIP3    H265433   1.334   5.522   2.752  0.0504 -2.7494 -0.2045
14648TIP3   OH265434   3.113   4.723  15.049  0.1771 -0.4442  0.4587
14648TIP3    H165435   3.062   4.714  15.130 -0.8669 -1.7371 -0.3211
14648TIP3    H265436   3.170   4.647  15.048  0.1999 -0.4210 -0.0037
14649TIP3   OH265437   4.900   6.274  15.491  0.5693  0.4294 -0.8393
14649TIP3    H165438   4.935   6.191  15.524  0.8752  1.2166  0.8453
14649TIP3    H265439   4.814   6.281  15.532  0.3559  0.7450 -1.3332
14650TIP3   OH265440   2.128   1.408  15.049  0.4482  0.3001 -0.6360
14650TIP3    H165441   2.115   1.329  15.102  1.7545 -0.5184 -1.4849
14650TIP3    H265442   2.111   1.480  15.108  2.4708 -0.5910  1.0869
14651TIP3   OH265443   5.132   5.375   2.086  0.7370  0.2290  0.2048
14651TIP3    H165444   5.178   5.323   2.152 -0.6271 -1.4623 -0.1316
14651TIP3    H265445   5.106   5.311   2.020 -1.7762  1.1921  0.2280
14652TIP3   OH265446   0.695   0.898  12.029 -0.1534 -0.3024  0.0014
14652TIP3    H165447   0.701   0.847  11.948 -0.9802 -0.7626  0.2186
14652TIP3    H265448   0.784   0.930  12.044  0.1622 -0.8392 -0.6811
14653TIP3   OH265449   5.923   1.401  16.905 -0.0485  0.2435  0.1505
14653TIP3    H165450   5.994   1.382  16.967  0.3697 -0.3712 -0.4993
14653TIP3    H265451   5.968   1.435  16.828 -0.7352  3.2893  1.0198
14654TIP3   OH265452   5.547   1.086  16.868 -0.2353 -0.1064  0.3705
14654TIP3    H165453   5.472   1.121  16.821 -0.6126 -3.1896 -1.4282
14654TIP3    H265454   5.510   1.037  16.942 -0.1459 -2.7743 -1.2867
14655TIP3   OH265455   2.565   2.820  17.238  0.3007 -0.1870  0.0241
14655TIP3    H165456   2.512   2.850  17.164  2.5519  1.7264 -0.8539
14655TIP3    H265457   2.639   2.774  17.198  0.3397 -1.1684  1.1770
14656TIP3   OH265458   3.463   4.794  15.102  0.1089 -0.5684 -0.0092
14656TIP3    H165459   3.403   4.720  15.116  1.8473 -1.8418  1.0110
14656TIP3    H265460   3.409   4.872  15.115 -1.7124 -1.6653 -0.8870
14657TIP3   OH265461   1.560   0.178  12.745  0.9253  0.0968  0.3781
14657TIP3    H165462   1.516   0.234  12.809 -1.3092 -1.0869 -0.0647
14657TIP3    H265463   1.571   0.234  12.668 -3.3035 -0.5521 -0.8625
14658TIP3   OH265464   1.640   4.028   4.889  0.2938 -0.4190  0.0893
14658TIP3    H165465   1.725   4.002   4.926 -0.3905  0.0006  2.0007
14658TIP3    H265466   1.575   3.981   4.941 -0.7283  0.7033 -0.1454
14659TIP3   OH265467   2.653   0.624  15.037  0.3868 -0.2057 -0.1800
14659TIP3    H165468   2.696   0.544  15.067 -1.5778 -1.2819 -0.1504
14659TIP3    H265469   2.567   0.623  15.080 -1.3410 -0.2908 -3.4664
14660TIP3   OH265470   3.450   6.548   4.825 -0.0218 -0.3544  0.2143
14660TIP3    H165471   3.422   6.469   4.778 -0.4741  0.9219 -1.6941
14660TIP3    H265472   3.369   6.593   4.848  0.2828  0.2090  0.1923
14661TIP3   OH265473   5.780   5.861   3.630 -0.1603 -0.7624 -0.0610
14661TIP3    H165474   5.850   5.874   3.565 -0.8947 -0.6561 -0.8422
14661TIP3    H265475   5.744   5.949   3.643 -2.1729 -1.2588 -1.9834
14662TIP3   OH265476   0.220   4.362  11.759  0.3727 -0.4229 -0.5775
14662TIP3    H165477   0.298   4.314  11.732 -0.6568 -2.1098 -0.6845
14662TIP3    H265478   0.180   4.307  11.827 -1.2561 -0.0954 -1.2410
14663TIP3   OH265479   0.775   2.405   4.411 -0.3943 -0.5786 -0.3028
14663TIP3    H165480   0.824   2.324   4.396 -0.6846 -0.6836 -0.6635
14663TIP3    H265481   0.695   2.395   4.361 -1.7598 -1.2965  1.9579
14664TIP3   OH265482   6.695   1.221  12.831  0.1725 -0.2416  0.2825
14664TIP3    H165483   6.760   1.258  12.890  2.0985 -0.6768 -1.4848
14664TIP3    H265484   6.710   1.126  12.835 -1.0318 -0.4223  0.6188
14665TIP3   OH265485   5.637   1.271  17.127  0.4452  0.0310  0.5034
14665TIP3    H165486   5.663   1.206  17.062 -2.2609 -1.1041  0.4701
14665TIP3    H265487   5.698   1.344  17.115  0.5791 -0.5431 -2.6402
14666TIP3   OH265488   4.043   1.027   3.547  0.2017  0.0001  0.1341
14666TIP3    H165489   4.037   1.030   3.452  0.8232  3.6841  0.1693
14666TIP3    H265490   3.959   1.062   3.578  0.2895 -0.4788  0.9479
14667TIP3   OH265491   0.165   4.947   4.046 -0.6319  0.0897 -0.1641
14667TIP3    H165492   0.082   4.992   4.062 -0.2616  0.5051  0.6177
14667TIP3    H265493   0.219   5.012   4.002 -0.6261 -0.0827 -0.4074
14668TIP3   OH265494   3.432   5.189  13.583 -0.0251  0.1464 -0.1001
14668TIP3    H165495   3.450   5.096  13.570 -0.1406 -0.3035  2.5931
14668TIP3    H265496   3.508   5.234  13.545  0.7025 -1.1307 -0.1895
14669TIP3   OH265497   6.021   6.114  11.257 -0.4996  0.4268 -0.3785
14669TIP3    H165498   5.967   6.193  11.268 -3.6302 -1.7549  0.6065
14669TIP3    H265499   6.033   6.106  11.163 -3.3162  0.0918 -0.7488
14670TIP3   OH265500   2.642   0.080  12.163  0.1318 -0.2872 -0.0718
14670TIP3    H165501   2.584   0.031  12.221 -0.9018 -0.9623 -1.6539
14670TIP3    H265502   2.688   0.013  12.113  0.0179  0.3307 -1.0061
14671TIP3   OH265503   4.273   0.095   5.171  0.2801  0.1842  0.3290
14671TIP3    H165504   4.210   0.147   5.121  0.1557 -0.3244 -0.0402
14671TIP3    H265505   4.336   0.064   5.106 -0.0460 -0.7234  0.4467
14672TIP3   OH265506   1.606   5.832   5.726 -0.2838 -1.1647  0.3850
14672TIP3    H165507   1.651   5.748   5.739  1.8904  0.3295  2.9439
14672TIP3    H265508   1.656   5.875   5.656  1.0177 -0.4021  1.7580
14673TIP3   OH265509   2.180   1.880   0.996 -0.0700  0.2950 -0.2049
14673TIP3    H165510   2.129   1.806   0.963 -1.5234  1.7397 -1.3519
14673TIP3    H265511   2.210   1.853   1.082  0.0075 -1.8764 -0.8834
14674TIP3   OH265512   3.637   3.795  16.143  0.4733 -0.5048 -0.3596
14674TIP3    H165513   3.696   3.721  16.126  2.0241  0.4890  0.6249
14674TIP3    H265514   3.680   3.870  16.102  0.1305  0.3304  0.8002
14675TIP3   OH265515   5.556   2.111   0.591  0.1844 -0.5558  0.3312
14675TIP3    H165516   5.567   2.166   0.669  1.2416 -0.5512  0.1812
14675TIP3    H265517   5.474   2.142   0.552  1.5008  1.9649 -0.5703
14676TIP3   OH265518   5.480   0.681   1.763  0.2669 -0.2749 -0.2584
14676TIP3    H165519   5.482   0.630   1.682 -1.3255  1.1969 -1.2648
14676TIP3    H265520   5.558   0.653   1.811  1.4852 -0.8442 -2.4997
14677TIP3   OH265521   3.514   2.499  11.605  0.2315  0.0525 -0.0992
14677TIP3    H165522   3.560   2.545  11.535  1.4756  0.1724  0.7704
14677TIP3    H265523   3.480   2.420  11.564  1.9725 -0.4836 -0.5859
14678TIP3   OH265524   5.429   5.828   2.976  0.0635 -0.1562 -0.1174
14678TIP3    H165525   5.417   5.877   3.057 -0.2594 -0.3349 -0.0601
14678TIP3    H265526   5.500   5.874   2.931  1.2146 -0.8970  0.9101
14679TIP3   OH265527   2.434   5.921  14.889 -0.0684  0.1115  0.4041
14679TIP3    H165528   2.377   5.995  14.868 -0.5723 -0.4597 -0.2688
14679TIP3    H265529   2.479   5.947  14.970  0.2308  1.4125 -0.1644
14680TIP3   OH265530   3.876   1.904  15.024  0.4786  0.5753  0.6205
14680TIP3    H165531   3.783   1.919  15.006  0.2207 -0.4467  1.0497
14680TIP3    H265532   3.890   1.941  15.110  0.2424 -0.0953  0.9521
14681TIP3   OH265533   2.749   4.998   2.551 -0.7733  0.1787 -0.2391
14681TIP3    H165534   2.657   5.023   2.542 -0.7763  0.3037  0.1234
14681TIP3    H265535   2.794   5.049   2.483 -1.0436 -0.3117 -0.7964
14682TIP3   OH265536   1.744   0.809  11.127  0.0528  0.0316 -0.1252
14682TIP3    H165537   1.659   0.804  11.172 -1.1014 -2.7410 -2.3811
14682TIP3    H265538   1.723   0.848  11.042  1.1284 -0.1234 -0.4661
14683TIP3   OH265539   4.862   5.791   1.833  0.1445 -0.0087 -0.5693
14683TIP3    H165540   4.933   5.847   1.803  0.3162 -0.7197 -1.4810
14683TIP3    H265541   4.893   5.702   1.819 -0.8283 -0.3307 -0.7353
14684TIP3   OH265542   0.824   0.687  16.493  0.0586  0.4526  0.7771
14684TIP3    H165543   0.875   0.658  16.417 -1.0990  2.1788 -0.6799
14684TIP3    H265544   0.859   0.635  16.566  1.3153 -1.0970 -0.8819
14685TIP3   OH265545   4.323   3.156  10.553  0.1970  0.1131  0.1853
14685TIP3    H165546   4.294   3.102  10.627 -1.2148 -1.0422 -1.1860
14685TIP3    H265547   4.245   3.204  10.526  0.3528 -0.5023 -1.4117
14686TIP3   OH265548   2.932   4.761   4.289 -0.2579  0.3329 -0.0840
14686TIP3    H165549   2.836   4.755   4.291 -0.3682  0.9593 -2.3947
14686TIP3    H265550   2.950   4.855   4.293  0.2572  0.2363 -0.1161
14687TIP3   OH265551   5.792   0.686  15.672  0.1390 -0.4193  0.5054
14687TIP3    H165552   5.841   0.755  15.717  0.0504 -0.5029  0.7317
14687TIP3    H265553   5.720   0.665  15.731 -0.5181  0.1276 -0.1035
14688TIP3   OH265554   1.486   4.628   0.056  0.3966  0.1607 -0.1820
14688TIP3    H165555   1.409   4.685   0.053 -0.5003 -0.9245  1.4272
14688TIP3    H265556   1.540   4.663   0.126 -0.1176 -0.8761  0.7563
14689TIP3   OH265557   3.639   6.098   1.641 -0.8444 -0.3639 -0.0764
14689TIP3    H165558   3.710   6.084   1.577 -0.9499  0.8543 -0.4597
14689TIP3    H265559   3.607   6.009   1.659  1.1384 -0.9988  0.5349
14690TIP3   OH265560   2.166   0.495   6.548  0.0578  0.2096  0.1835
14690TIP3    H165561   2.211   0.511   6.465 -0.6849  1.4258  0.0011
14690TIP3    H265562   2.110   0.572   6.559 -0.8854 -0.6103  1.1168
14691TIP3   OH265563   4.252   5.119  13.144  0.4396 -0.0334  0.7200
14691TIP3    H165564   4.257   5.024  13.148  0.8662 -0.1132 -1.1965
14691TIP3    H265565   4.343   5.148  13.157  0.1887  0.1438  2.0702
14692TIP3   OH265566   6.662   5.382   0.452  0.0011  0.1908  0.5215
14692TIP3    H165567   6.724   5.420   0.515 -1.1046  0.9334  1.1635
14692TIP3    H265568   6.682   5.289   0.453  2.2097  0.6199 -0.4824
14693TIP3   OH265569   2.178   5.626  16.618 -0.6617 -0.0062  0.5594
14693TIP3    H165570   2.132   5.543  16.629 -0.0652 -0.5786 -1.1875
14693TIP3    H265571   2.207   5.648  16.707 -1.6321 -1.1795  1.1883
14694TIP3   OH265572   3.265   3.518   3.986  1.1374 -0.2527  0.2744
14694TIP3    H165573   3.223   3.601   3.962 -0.9313 -0.8533  1.7396
14694TIP3    H265574   3.345   3.545   4.031  1.9169  0.9116 -1.7361
14695TIP3   OH265575   3.708   2.409  14.368 -0.3933  0.2017  0.0508
14695TIP3    H165576   3.693   2.494  14.411 -1.2436  0.4667 -0.7530
14695TIP3    H265577   3.655   2.347  14.418  0.3402  0.1046  0.7287
14696TIP3   OH265578   2.675   2.825   2.567 -0.4113  0.1996 -0.1552
14696TIP3    H165579   2.687   2.739   2.607  0.0608 -0.2981 -1.3242
14696TIP3    H265580   2.699   2.887   2.635  0.6177 -0.6264  0.2499
14697TIP3   OH265581   1.438   4.985   4.374  0.3742 -0.7744  0.5293
14697TIP3    H165582   1.454   4.998   4.281 -1.2792 -0.7390  0.2340
14697TIP3    H265583   1.404   4.896   4.381 -2.1235  0.1373  0.7236
14698TIP3   OH265584   5.999   3.490  16.714 -0.2923  0.0295  0.5443
14698TIP3    H165585   6.043   3.576  16.708  1.9658 -0.9468  2.3654
14698TIP3    H265586   6.063   3.434  16.756 -1.0593 -3.0759 -2.2529
14699TIP3   OH265587   0.493   1.997   3.102  0.0962  1.3180 -0.4631
14699TIP3    H165588   0.468   1.955   3.184 -1.2770  1.2813 -0.8852
14699TIP3    H265589   0.588   1.987   3.098 -0.0925 -0.8720 -0.0622
14700TIP3   OH265590   3.040   1.956  13.913 -0.0570 -0.3472  0.2896
14700TIP3    H165591   2.981   2.031  13.926 -0.7587 -1.2980  2.9130
14700TIP3    H265592   3.106   1.966  13.982  1.1546 -0.9226 -0.7755
14701TIP3   OH265593   4.660   4.681  12.973  0.2162  0.1321 -0.0772
14701TIP3    H165594   4.617   4.630  12.905  1.4519 -0.2240 -0.6032
14701TIP3    H265595   4.722   4.736  12.926  1.7297 -0.7703  0.8219
14702TIP3   OH265596   2.693   2.266  11.523 -0.0064  0.4536  0.7196
14702TIP3    H165597   2.661   2.176  11.535  0.9502  0.0371  0.1806
14702TIP3    H265598   2.661   2.313  11.600 -0.1643 -0.4436  1.2076
14703TIP3   OH265599   1.804   2.132   0.133 -0.6590 -0.7920  0.5550
14703TIP3    H165600   1.825   2.069   0.202  0.6228 -0.1219  0.8067
14703TIP3    H265601   1.709   2.129   0.126 -1.0632  0.7681  3.9633
14704TIP3   OH265602   5.043   3.915  15.405 -0.6063 -0.2025 -0.0297
14704TIP3    H165603   4.953   3.907  15.373 -0.8589  1.7687  0.1521
14704TIP3    H265604   5.046   4.001  15.446  0.6377 -1.3466  2.3375
14705TIP3   OH265605   0.157   3.625  14.728  0.3799 -0.3784  0.3058
14705TIP3    H165606   0.167   3.713  14.692  0.8670 -0.3318  0.5575
14705TIP3    H265607   0.202   3.628  14.812  0.8157 -1.0101  0.0938
14706TIP3   OH265608   5.592   1.536   4.207  0.0734 -0.1108  0.0624
14706TIP3    H165609   5.538   1.525   4.129  0.7563 -0.9428 -0.3010
14706TIP3    H265610   5.577   1.456   4.258  1.2565 -0.5291 -0.2270
14707TIP3   OH265611   2.372   5.435   4.800  0.2476  0.5014  0.3651
14707TIP3    H165612   2.464   5.441   4.826  0.4376 -1.0941  0.1219
14707TIP3    H265613   2.324   5.475   4.873  1.0637  0.2787  1.0394
14708TIP3   OH265614   5.416   1.357   0.857  0.4346  0.1488  0.2303
14708TIP3    H165615   5.424   1.452   0.865 -1.6101  0.3922 -0.3472
14708TIP3    H265616   5.426   1.341   0.763 -0.0045 -0.1094  0.2260
14709TIP3   OH265617   4.083   2.695  14.679 -0.1719 -0.1419  0.6425
14709TIP3    H165618   4.099   2.617  14.626  0.1421  0.0383  0.4701
14709TIP3    H265619   4.136   2.682  14.757  1.8985  1.0509 -0.4966
14710TIP3   OH265620   6.673   3.527   4.606  0.1321  0.2289 -0.3389
14710TIP3    H165621   6.577   3.528   4.598  0.0953  0.4918  0.1360
14710TIP3    H265622   6.704   3.537   4.516 -0.2852 -1.8383 -0.7532
14711TIP3   OH265623   1.459   2.312  13.076  0.0390  0.2275 -0.1720
14711TIP3    H165624   1.398   2.315  13.150  2.3169  0.9650  1.7410
14711TIP3    H265625   1.543   2.290  13.116  1.4859  1.4738 -2.4582
14712TIP3   OH265626   3.241   2.319  16.910 -0.4065  0.1198  0.5683
14712TIP3    H165627   3.208   2.395  16.959 -0.1955  0.6025 -0.0288
14712TIP3    H265628   3.235   2.346  16.818  3.1891  0.8749  0.4779
14713TIP3   OH265629   2.246   1.171   4.813 -0.0716 -0.6307  0.4492
14713TIP3    H165630   2.301   1.205   4.743 -1.1282  1.1025  0.4488
14713TIP3    H265631   2.236   1.078   4.792 -1.4171  0.0990 -2.4215
14714TIP3   OH265632   4.915   0.026  14.047 -0.2189 -0.6018  0.7844
14714TIP3    H165633   4.909   0.121  14.048  3.1172 -0.3345  1.2185
14714TIP3    H265634   4.917   0.003  13.954 -0.9268 -0.2665  0.6810
14715TIP3   OH265635   3.747   3.103   4.372 -0.6763 -0.0150 -0.2827
14715TIP3    H165636   3.756   3.140   4.460 -1.2738 -1.4809  0.4014
14715TIP3    H265637   3.653   3.092   4.360 -0.6353  0.6203 -1.3107
14716TIP3   OH265638   0.271   2.497   3.922 -0.0289  0.2287 -0.0876
14716TIP3    H165639   0.176   2.487   3.914  0.0336  0.7219 -1.5464
14716TIP3    H265640   0.307   2.451   3.847  0.9000  0.0653  0.4505
14717TIP3   OH265641   1.981   0.755  16.374  0.0273  0.1305 -0.7199
14717TIP3    H165642   2.056   0.731  16.429 -0.4403  0.3249  0.0028
14717TIP3    H265643   1.993   0.703  16.294 -0.2521 -1.5076  0.2773
14718TIP3   OH265644   1.392   2.726   3.089 -0.3203  0.1090  0.0464
14718TIP3    H165645   1.320   2.725   3.152  1.4431  1.2178  2.1572
14718TIP3    H265646   1.415   2.634   3.077 -1.0154 -0.1373  0.5886
14719TIP3   OH265647   5.503   0.044   1.510 -0.3958  0.0513  0.0211
14719TIP3    H165648   5.487   0.125   1.462  1.2297  0.5709  0.3377
14719TIP3    H265649   5.565  -0.005   1.454  1.0361  0.3952  1.2654
14720TIP3   OH265650   2.001   3.384  14.915  0.0630 -0.0400  0.0014
14720TIP3    H165651   1.951   3.312  14.876 -2.1062 -0.4468  3.3720
14720TIP3    H265652   2.009   3.449  14.844  0.1595 -2.6042 -2.4195
14721TIP3   OH265653   6.586   4.163   0.909 -0.0249  0.1169 -0.3214
14721TIP3    H165654   6.629   4.080   0.929 -0.7436 -0.4328 -0.9854
14721TIP3    H265655   6.514   4.138   0.850 -0.7352  1.1129  0.1218
14722TIP3   OH265656   3.099   2.664  14.031  0.1735 -0.1854 -0.8077
14722TIP3    H165657   3.119   2.603  14.102 -0.4482  0.2704 -0.2352
14722TIP3    H265658   3.054   2.610  13.965  1.0902 -0.6879 -1.0270
14723TIP3   OH265659   5.031   2.191  12.239 -0.2430  0.0050  0.0625
14723TIP3    H165660   5.024   2.101  12.270 -3.0885 -0.1324 -0.8001
14723TIP3    H265661   5.038   2.183  12.144  1.4784  0.6520  0.1200
14724TIP3   OH265662   4.178   4.447  12.113  0.1029 -0.0907  0.2841
14724TIP3    H165663   4.119   4.499  12.059  0.0770  0.6284  0.9971
14724TIP3    H265664   4.151   4.357  12.097  0.8555  0.0203 -1.7897
14725TIP3   OH265665   4.029   3.055  11.261  0.3435 -0.1255 -0.6948
14725TIP3    H165666   4.060   2.975  11.304 -2.4954 -0.8430  0.1063
14725TIP3    H265667   4.109   3.098  11.231  2.1524 -1.6181  1.7543
14726TIP3   OH265668   6.167   5.001   4.960  0.2237  0.2357 -0.1326
14726TIP3    H165669   6.188   5.094   4.951  1.6931 -0.0578  0.1958
14726TIP3    H265670   6.071   4.998   4.955  0.2024  1.6812 -0.8759
14727TIP3   OH265671   1.009   1.221  15.214 -0.2006  0.5393 -0.1326
14727TIP3    H165672   0.962   1.139  15.203 -0.3045  0.6413 -0.4864
14727TIP3    H265673   1.083   1.200  15.272 -0.8328  0.4406  0.6344
14728TIP3   OH265674   4.777   4.942  12.879 -0.5556 -0.1251 -0.1163
14728TIP3    H165675   4.686   4.932  12.851 -0.6418  0.2440  0.0343
14728TIP3    H265676   4.779   5.025  12.927 -0.6766 -1.3564  2.0494
14729TIP3   OH265677   2.318   3.250  11.747  0.4004  0.2452  0.2597
14729TIP3    H165678   2.380   3.177  11.747 -0.4049 -0.4640 -1.1641
14729TIP3    H265679   2.232   3.208  11.756  0.0349  1.1300  0.9470
14730TIP3   OH265680   0.512   3.645   4.273  0.7043  0.6436  0.1079
14730TIP3    H165681   0.495   3.725   4.223 -2.3444  0.2697  0.4614
14730TIP3    H265682   0.496   3.669   4.364  0.8614 -0.1000  0.3372
14731TIP3   OH265683   6.186   3.349  13.536  0.1117 -0.2133 -0.3937
14731TIP3    H165684   6.135   3.302  13.470  2.1972 -2.1556 -0.6892
14731TIP3    H265685   6.270   3.303  13.539  1.3401  2.0019  1.1084
14732TIP3   OH265686   3.684   6.753  13.687  0.3205  0.2010 -0.0950
14732TIP3    H165687   3.718   6.721  13.771  0.7870  0.0790 -0.3328
14732TIP3    H265688   3.677   6.847  13.699 -0.0937  0.1327  0.2552
14733TIP3   OH265689   4.883   1.977  14.224 -0.0610  0.1284  0.0000
14733TIP3    H165690   4.917   1.897  14.264 -1.4776 -0.2564  0.4489
14733TIP3    H265691   4.791   1.980  14.249 -0.5800  0.7457 -1.8458
14734TIP3   OH265692   6.673   0.664  14.670  0.0726 -0.0628 -0.3386
14734TIP3    H165693   6.593   0.628  14.709 -0.2098  0.9934  0.0610
14734TIP3    H265694   6.682   0.751  14.709  2.1738 -0.7097  0.6586
14735TIP3   OH265695   0.358   3.824   5.499  0.0424 -0.0359 -0.5556
14735TIP3    H165696   0.327   3.786   5.582 -0.5386  0.3723 -0.5837
14735TIP3    H265697   0.298   3.789   5.433  1.2256 -1.3114 -0.9780
14736TIP3   OH265698   2.098   5.003   1.738  0.2643 -0.0632  0.0868
14736TIP3    H165699   2.141   5.089   1.742 -0.2017  0.1583  0.3930
14736TIP3    H265700   2.143   4.952   1.806  2.3411 -0.9060 -1.8630
14737TIP3   OH265701   5.784   3.258   4.276 -0.0402  0.4201  0.9100
14737TIP3    H165702   5.708   3.277   4.332 -0.0712  1.5445  0.4907
14737TIP3    H265703   5.856   3.246   4.337 -0.5692 -0.7689  1.3220
14738TIP3   OH265704   4.145   5.310   2.708 -0.8572  0.3381 -0.6912
14738TIP3    H165705   4.236   5.333   2.687 -0.3757 -0.1252  0.7679
14738TIP3    H265706   4.116   5.255   2.635  0.2114  0.0798 -0.9268
14739TIP3   OH265707   0.028   6.296   0.975  0.0794 -0.2438  0.0470
14739TIP3    H165708  -0.016   6.239   1.039 -0.9766  1.9721  1.3326
14739TIP3    H265709   0.114   6.313   1.014 -0.4063  0.7696  0.6643
14740TIP3   OH265710   5.735   0.659  11.963  0.2091 -0.5720  0.4494
14740TIP3    H165711   5.694   0.687  11.881 -0.8073 -1.5966  0.6039
14740TIP3    H265712   5.808   0.603  11.936  0.4351 -0.1816  0.2318
14741TIP3   OH265713   2.035   1.533  16.789  0.3280  0.3182 -0.1799
14741TIP3    H165714   2.041   1.442  16.760  0.3760  0.9165 -2.1565
14741TIP3    H265715   1.979   1.575  16.723 -0.0343  1.6270  0.9335
14742TIP3   OH265716   5.714   0.887   1.102  0.4432  0.3311 -0.1419
14742TIP3    H165717   5.696   0.795   1.119 -1.0087  0.7000  0.3902
14742TIP3    H265718   5.629   0.924   1.077  0.7906  1.7588  0.7124
14743TIP3   OH265719   1.687   4.033   2.193 -0.0309 -0.2938  0.2592
14743TIP3    H165720   1.743   4.091   2.245 -2.3513  1.4627  0.8710
14743TIP3    H265721   1.747   3.990   2.132  2.1860  0.4312  1.8627
14744TIP3   OH265722   2.881   3.102  14.519  0.7984 -0.0459  0.8163
14744TIP3    H165723   2.876   3.176  14.579  0.7184  0.9005 -0.3557
14744TIP3    H265724   2.970   3.069  14.528  0.5177 -0.4738  2.1133
14745TIP3   OH265725   5.334   5.831   2.152 -0.3589  0.4059  0.2682
14745TIP3    H165726   5.420   5.837   2.111 -0.8302  1.8356 -0.5515
14745TIP3    H265727   5.280   5.893   2.103 -1.6124  0.1981  1.3675
14746TIP3   OH265728   2.207   1.198  16.959 -0.0463  0.1872 -0.8140
14746TIP3    H165729   2.289   1.227  16.917  1.6657 -2.2755  0.6793
14746TIP3    H265730   2.159   1.153  16.889 -0.7389  2.7047 -2.0202
14747TIP3   OH265731   2.229   4.042   1.435 -0.4000 -0.0996 -0.1086
14747TIP3    H165732   2.217   4.136   1.419  0.9129  0.5080  2.2587
14747TIP3    H265733   2.147   4.015   1.477 -0.6309  0.0694 -0.4495
14748TIP3   OH265734   6.519   3.009  13.627 -0.0183 -0.3261 -0.0754
14748TIP3    H165735   6.550   3.015  13.718 -1.7365  1.6912  0.3996
14748TIP3    H265736   6.423   3.010  13.634 -0.2209 -2.6494 -1.7764
14749TIP3   OH265737   1.468   6.321  12.439 -0.1945 -0.7482 -0.6317
14749TIP3    H165738   1.485   6.386  12.371 -0.1410  0.7203  0.7561
14749TIP3    H265739   1.500   6.239  12.403  2.1522  0.4599 -1.4006
14750TIP3   OH265740   3.171   0.157  13.257 -0.0633  0.0944 -0.2789
14750TIP3    H165741   3.162   0.108  13.338  0.1332 -2.1027 -1.5530
14750TIP3    H265742   3.260   0.138  13.226  0.5632  2.4527 -0.0533
14751TIP3   OH265743   1.196   4.495   1.098 -0.2674 -0.3175 -0.1622
14751TIP3    H165744   1.145   4.429   1.050 -1.3392  0.9345 -0.7760
14751TIP3    H265745   1.284   4.488   1.062 -0.4511 -1.1608 -0.4779
14752TIP3   OH265746   5.721   6.056   5.625  0.1081  0.2764 -0.0081
14752TIP3    H165747   5.790   6.109   5.585 -1.8899  3.4862  0.5703
14752TIP3    H265748   5.702   5.989   5.560  1.8857  1.0034 -1.3350
14753TIP3   OH265749   1.633   6.204   2.489 -0.3669 -0.1933 -1.0277
14753TIP3    H165750   1.681   6.185   2.409  1.2467 -0.0940 -0.1173
14753TIP3    H265751   1.686   6.163   2.558 -1.7533 -0.3127 -0.0301
14754TIP3   OH265752   5.456   5.859   2.585 -0.3902  0.1301  1.1362
14754TIP3    H165753   5.423   5.936   2.631 -1.0017 -0.1674  1.1879
14754TIP3    H265754   5.530   5.829   2.639  1.3512  2.0560 -0.1051
14755TIP3   OH265755   1.358   3.775   0.252 -0.2184  0.1487  0.4175
14755TIP3    H165756   1.433   3.717   0.267 -0.0900  0.4350  0.9111
14755TIP3    H265757   1.306   3.731   0.185  0.6838  0.2173 -0.3428
14756TIP3   OH265758   3.658   5.529   2.682  0.2337  0.2590 -0.1609
14756TIP3    H165759   3.578   5.479   2.666  0.2835  0.0211  0.3389
14756TIP3    H265760   3.728   5.471   2.652  0.1803  0.8038 -1.4124
14757TIP3   OH265761   2.789   1.312   1.797 -0.2086 -0.7167  0.5069
14757TIP3    H165762   2.855   1.330   1.731 -0.2149 -0.0224  0.6931
14757TIP3    H265763   2.806   1.376   1.866 -0.7396 -0.8826  0.7907
14758TIP3   OH265764   3.267   1.567  13.024  0.1590 -0.2588  0.5191
14758TIP3    H165765   3.284   1.630  13.094  0.3557 -0.7342  0.9003
14758TIP3    H265766   3.261   1.483  13.068 -0.3530 -0.4800  0.0401
14759TIP3   OH265767   1.051   3.904   0.194 -0.0905  0.5061  0.1520
14759TIP3    H165768   0.957   3.908   0.210  0.4172  0.1082  3.6315
14759TIP3    H265769   1.076   3.814   0.217  0.9511  0.2258 -1.9927
14760TIP3   OH265770   4.903   4.332   3.150  0.2635  0.2674 -0.7418
14760TIP3    H165771   4.979   4.298   3.197  0.2188 -1.0767 -1.6376
14760TIP3    H265772   4.900   4.425   3.174  1.7743  0.1798 -0.1604
14761TIP3   OH265773   5.882   1.882   2.761  0.2823 -0.5811 -0.0052
14761TIP3    H165774   5.815   1.895   2.694 -0.1671  2.3030  0.9208
14761TIP3    H265775   5.963   1.867   2.712 -0.5281 -1.2311 -1.1542
14762TIP3   OH265776   4.888   4.138  11.813  0.0016 -0.3412 -0.6417
14762TIP3    H165777   4.929   4.193  11.745 -0.9557  0.9004 -0.2426
14762TIP3    H265778   4.922   4.173  11.895 -2.2112  1.0511 -0.2779
14763TIP3   OH265779   2.109   3.300   5.858 -0.5673 -0.4160  0.0505
14763TIP3    H165780   2.147   3.378   5.899 -0.8665 -0.5308  0.5483
14763TIP3    H265781   2.016   3.321   5.848 -0.6881 -0.7998  0.3860
14764TIP3   OH265782   6.585   4.141  13.535 -0.4539  0.5359 -0.1915
14764TIP3    H165783   6.498   4.178  13.522 -0.3151  0.8507 -0.2396
14764TIP3    H265784   6.607   4.163  13.626 -1.2600 -1.3123  0.4638
14765TIP3   OH265785   2.645   0.361  11.718 -0.4434 -0.0063 -0.2808
14765TIP3    H165786   2.590   0.423  11.671 -0.1730 -0.7910 -1.6431
14765TIP3    H265787   2.661   0.403  11.803 -3.5307 -0.0009  0.3485
14766TIP3   OH265788   4.782   2.299   0.811  0.0901 -0.3231 -0.4664
14766TIP3    H165789   4.774   2.386   0.773  2.7772 -0.1027 -0.6534
14766TIP3    H265790   4.772   2.313   0.906 -2.3510 -0.2638 -0.7034
14767TIP3   OH265791   2.399   4.791   2.368 -0.1163 -0.1630 -0.2922
14767TIP3    H165792   2.372   4.699   2.371  2.6103 -0.9777  1.8436
14767TIP3    H265793   2.494   4.787   2.353  0.1564  2.2870  0.6275
14768TIP3   OH265794   1.561   3.468   1.301  0.4955  0.7980  0.0331
14768TIP3    H165795   1.500   3.482   1.229  0.1074  2.2828  0.6251
14768TIP3    H265796   1.585   3.376   1.296 -0.6911  0.5488 -1.0732
14769TIP3   OH265797   5.352   4.923   4.424  0.0576  0.2055 -0.0107
14769TIP3    H165798   5.423   4.858   4.420  0.8477  0.8630  2.5928
14769TIP3    H265799   5.357   4.969   4.340  2.3104 -0.1841 -0.1169
14770TIP3   OH265800   5.124   1.060  13.100  0.5990  0.7045 -0.2083
14770TIP3    H165801   5.139   1.098  13.187  0.9973 -0.7058  0.3566
14770TIP3    H265802   5.212   1.040  13.067  0.3449 -1.1692  0.1802
14771TIP3   OH265803   6.569   0.487   5.118  0.9956 -0.0979 -0.5066
14771TIP3    H165804   6.475   0.476   5.132  0.8609  1.1325 -0.4224
14771TIP3    H265805   6.609   0.457   5.199  0.5769  1.0437  0.1272
14772TIP3   OH265806   6.052   2.791   2.602  0.1946 -0.1921  0.2707
14772TIP3    H165807   6.096   2.819   2.683  0.7057 -1.5949  0.4927
14772TIP3    H265808   6.123   2.766   2.544 -0.2249 -0.4527 -0.1332
14773TIP3   OH265809   0.202   6.605  13.362  0.1714 -0.4725  0.0336
14773TIP3    H165810   0.291   6.623  13.393 -0.4573 -1.0067  2.3006
14773TIP3    H265811   0.165   6.548  13.429 -1.9636 -0.0656 -0.7504
14774TIP3   OH265812   1.151   1.197   0.074  0.1435  0.2359 -0.9466
14774TIP3    H165813   1.231   1.149   0.093  0.1739  0.1435 -1.2977
14774TIP3    H265814   1.141   1.258   0.147 -0.0486 -0.5083 -0.3435
14775TIP3   OH265815   1.737   1.235   2.805  0.2947  0.4939 -0.0063
14775TIP3    H165816   1.734   1.140   2.818  1.1449  0.4244 -0.3030
14775TIP3    H265817   1.808   1.265   2.861  0.9227  0.7840 -0.9446
14776TIP3   OH265818   0.306   5.065  14.544 -0.3189 -0.0867  0.8697
14776TIP3    H165819   0.297   5.103  14.457 -0.6343  0.5187  1.1655
14776TIP3    H265820   0.274   4.975  14.534  2.8241 -1.1387 -0.4281
14777TIP3   OH265821   0.080   0.135  11.578 -0.7857 -0.0118 -0.4436
14777TIP3    H165822   0.071   0.054  11.628  1.6009 -0.0356  0.0198
14777TIP3    H265823   0.109   0.107  11.491 -1.4196  0.2646 -0.7488
14778TIP3   OH265824   3.201   1.452  12.768 -0.2792 -0.3908  0.6494
14778TIP3    H165825   3.238   1.489  12.848  0.8106 -0.7959  0.3364
14778TIP3    H265826   3.191   1.527  12.709 -1.6720  0.0140  1.3672
14779TIP3   OH265827   0.253   1.182   1.821 -0.4392  0.0356  0.0732
14779TIP3    H165828   0.322   1.207   1.882 -2.9670  1.8878  2.3316
14779TIP3    H265829   0.250   1.253   1.757 -0.0157 -0.2296 -0.2417
14780TIP3   OH265830   4.644   0.353   4.084  0.0695 -0.1685 -0.0009
14780TIP3    H165831   4.549   0.366   4.094  0.3315  2.3114 -0.3595
14780TIP3    H265832   4.651   0.277   4.025 -1.6661 -0.9280  0.7163
14781TIP3   OH265833   2.674   0.371  14.463  0.0380 -0.4320 -0.1486
14781TIP3    H165834   2.650   0.290  14.417 -1.0072  0.3346 -0.9731
14781TIP3    H265835   2.591   0.407  14.493  0.5605  0.0056  0.7875
14782TIP3   OH265836   1.954   1.680  12.313  0.3420 -0.1287 -0.4107
14782TIP3    H165837   1.955   1.611  12.246 -0.9554  1.2415 -1.9181
14782TIP3    H265838   1.907   1.753  12.270  0.1454  1.0426  1.7479
14783TIP3   OH265839   0.256   6.300   4.153  0.8647 -0.3186  0.2967
14783TIP3    H165840   0.328   6.300   4.090  0.0221  0.4302 -0.6965
14783TIP3    H265841   0.234   6.393   4.164 -1.4451 -0.6413 -1.1912
14784TIP3   OH265842   2.797   6.401   3.864 -0.1146  0.0572  0.0607
14784TIP3    H165843   2.864   6.459   3.900 -1.1759  1.3777 -0.0551
14784TIP3    H265844   2.827   6.312   3.886  1.3391  0.6626  0.5535
14785TIP3   OH265845   4.461   6.273   6.238  0.3542  0.5776  0.6069
14785TIP3    H165846   4.431   6.328   6.311  0.8724  0.2155  1.1027
14785TIP3    H265847   4.382   6.228   6.208 -0.0549  1.5361  0.2505
14786TIP3   OH265848   5.876   0.008  16.076  0.1895  0.4254  0.6824
14786TIP3    H165849   5.913   0.093  16.053  1.3870  0.3379  2.2250
14786TIP3    H265850   5.941  -0.056  16.048 -0.6513  0.0037 -0.3584
14787TIP3   OH265851   5.008   6.407   1.044 -0.4966  1.0259 -0.1484
14787TIP3    H165852   5.019   6.319   1.010  0.0786  0.7220  0.8056
14787TIP3    H265853   4.994   6.462   0.966 -0.5226  0.1525 -0.7613
14788TIP3   OH265854   5.794   2.912  13.729 -0.0543  0.4456 -0.7019
14788TIP3    H165855   5.749   2.993  13.749 -1.8488 -0.3540 -1.3753
14788TIP3    H265856   5.851   2.896  13.805 -1.8406  0.8365  0.7427
14789TIP3   OH265857   0.014   4.123  14.765 -0.3370 -0.3260  0.0867
14789TIP3    H165858   0.023   4.127  14.861  1.9551 -1.7965 -0.0203
14789TIP3    H265859  -0.031   4.204  14.742 -2.6241 -0.8259  2.5843
14790TIP3   OH265860   4.861   1.196  12.370 -0.1802 -0.3057  0.1551
14790TIP3    H165861   4.855   1.154  12.284  0.6526  1.1999 -0.6590
14790TIP3    H265862   4.771   1.194  12.404 -0.5978 -0.5488 -0.9414
14791TIP3   OH265863   1.296   6.365   5.894 -0.2856 -0.2258  0.5022
14791TIP3    H165864   1.340   6.443   5.926  1.8173 -1.1944  0.0051
14791TIP3    H265865   1.333   6.349   5.808  1.0770 -3.1116  1.5496
14792TIP3   OH265866   5.806   3.367  11.356 -0.3810 -0.1200 -0.1163
14792TIP3    H165867   5.766   3.450  11.381  1.1985  0.7339 -0.3773
14792TIP3    H265868   5.792   3.310  11.432 -1.9982  0.1821 -0.1727
14793TIP3   OH265869   5.890   1.210   0.352  0.1645  0.2037  0.1647
14793TIP3    H165870   5.806   1.204   0.399  0.7593 -0.3770  1.1732
14793TIP3    H265871   5.939   1.278   0.399 -0.4239  1.8295 -1.5311
14794TIP3   OH265872   5.595   0.202   3.162  0.4581  0.1184 -0.3833
14794TIP3    H165873   5.674   0.244   3.127  1.1463  0.0265  1.0050
14794TIP3    H265874   5.587   0.236   3.251 -0.0066 -1.2724  0.1314
14795TIP3   OH265875   0.464   1.328   0.680  0.3910 -0.1905 -0.4581
14795TIP3    H165876   0.553   1.353   0.703  0.4946 -0.5286 -0.4938
14795TIP3    H265877   0.422   1.308   0.764  0.7654 -1.4129 -0.5608
14796TIP3   OH265878   3.045   2.474   4.330 -0.7930  0.0083  0.4656
14796TIP3    H165879   3.067   2.436   4.415  1.1583 -0.2482 -0.1255
14796TIP3    H265880   3.078   2.410   4.267  0.2513  1.4726 -0.5090
14797TIP3   OH265881   2.412   0.043   3.366 -0.3805  0.5131 -0.1475
14797TIP3    H165882   2.477  -0.024   3.388  0.7634  1.4538 -0.5898
14797TIP3    H265883   2.337  -0.007   3.334 -0.4112 -0.6598  1.6462
14798TIP3   OH265884   1.374   3.672  16.682  0.1436  0.1326  0.2549
14798TIP3    H165885   1.297   3.689  16.627  0.9409  0.8064 -0.6786
14798TIP3    H265886   1.384   3.751  16.734  0.5860  0.3109 -0.0985
14799TIP3   OH265887   2.769   1.253   5.789  0.0399  0.2127 -0.0768
14799TIP3    H165888   2.842   1.272   5.730 -0.1157  0.1712 -0.2841
14799TIP3    H265889   2.721   1.183   5.745 -0.8431  1.1186 -0.5483
14800TIP3   OH265890   4.945   4.644  16.703  0.3892 -0.3416  0.1938
14800TIP3    H165891   4.978   4.681  16.621  0.0915  0.6349  0.5072
14800TIP3    H265892   4.994   4.563  16.714  0.6773 -0.3088 -0.7754
14801TIP3   OH265893   4.526   3.599   5.186  0.1125 -0.1964 -0.0241
14801TIP3    H165894   4.607   3.588   5.136  0.1801  1.6907 -0.3975
14801TIP3    H265895   4.552   3.652   5.262 -0.9232  1.2455 -0.6476
14802TIP3   OH265896   4.552   3.599  16.291  0.4417 -0.9082  0.3614
14802TIP3    H165897   4.581   3.575  16.379 -0.5192  1.8095  1.4786
14802TIP3    H265898   4.462   3.627  16.302  0.4607 -0.0426 -1.4238
14803TIP3   OH265899   0.374   0.679  11.807  0.6058 -0.9074  0.1351
14803TIP3    H165900   0.288   0.708  11.776  0.6380 -0.1878  0.7136
14803TIP3    H265901   0.386   0.725  11.890  1.7744 -0.5958 -0.2054
14804TIP3   OH265902   0.463   4.270  13.170  0.0784  0.2204  0.0440
14804TIP3    H165903   0.483   4.234  13.257 -1.6323  2.8096  1.5900
14804TIP3    H265904   0.388   4.219  13.140 -1.3879  1.4131  1.5577
14805TIP3   OH265905   0.481   4.058  13.688 -0.1187  0.0730 -0.3505
14805TIP3    H165906   0.521   3.972  13.699  0.0247  0.0565 -0.9904
14805TIP3    H265907   0.387   4.039  13.680 -0.0593 -0.0485 -0.7699
14806TIP3   OH265908   4.011   1.863   5.168 -0.2132  0.1531 -0.2227
14806TIP3    H165909   3.925   1.903   5.182  0.3317  1.2244  0.0828
14806TIP3    H265910   4.018   1.855   5.072 -0.5328  0.3092 -0.2603
14807TIP3   OH265911   6.687   6.316   5.997  0.4868 -0.1002  0.1593
14807TIP3    H165912   6.767   6.304   6.049  1.7463 -0.2340 -1.7672
14807TIP3    H265913   6.657   6.404   6.019  1.4775  0.1627  0.4944
14808TIP3   OH265914   4.825   4.599  12.202 -0.1797 -0.3043  0.0152
14808TIP3    H165915   4.868   4.534  12.258  0.6997  1.9113  1.9995
14808TIP3    H265916   4.875   4.680  12.216 -2.0458  1.1441 -1.3810
14809TIP3   OH265917   4.058   6.357   0.392 -0.2109  0.2086  0.8809
14809TIP3    H165918   4.053   6.266   0.420  0.3824  0.2906  1.2512
14809TIP3    H265919   4.091   6.405   0.468  2.4707  0.2572 -0.2406
14810TIP3   OH265920   3.679   6.714  12.263  0.7430  0.8698  0.3014
14810TIP3    H165921   3.687   6.748  12.174 -2.6024  1.2781  0.0746
14810TIP3    H265922   3.645   6.626  12.252 -1.4602  1.5758  1.1848
14811TIP3   OH265923   2.958   2.865  15.186  0.3740  0.1549  0.1310
14811TIP3    H165924   2.878   2.816  15.165 -1.3455  2.2617  1.5950
14811TIP3    H265925   3.014   2.801  15.229 -1.8530 -0.5778  2.0676
14812TIP3   OH265926   2.708   0.410   0.804  0.1758 -0.1473 -0.3309
14812TIP3    H165927   2.752   0.342   0.754  1.8156  1.9597 -1.8784
14812TIP3    H265928   2.657   0.459   0.739  2.0006  2.3657  0.0347
14813TIP3   OH265929   6.710   3.816   0.324  0.2671  0.6118 -0.0766
14813TIP3    H165930   6.722   3.810   0.229  0.1021 -0.4014 -0.0417
14813TIP3    H265931   6.616   3.825   0.336  0.3871  1.8759 -0.0551
14814TIP3   OH265932   0.721   1.760  13.138 -0.1064 -0.4850  0.2490
14814TIP3    H165933   0.631   1.738  13.164 -0.8175  1.8718 -0.0302
14814TIP3    H265934   0.763   1.790  13.219 -0.0275 -0.2015  0.1032
14815TIP3   OH265935   3.410   4.885  12.427  0.7999 -0.5209 -0.2200
14815TIP3    H165936   3.494   4.911  12.467 -0.0753  1.1327  0.6076
14815TIP3    H265937   3.373   4.967  12.395 -0.7573 -1.1694 -0.1095
14816TIP3   OH265938   3.926   0.872   2.468 -0.5205  0.1544  0.5511
14816TIP3    H165939   3.859   0.816   2.509  0.2098 -0.3009  1.1336
14816TIP3    H265940   3.880   0.954   2.450 -1.2356 -0.1447  0.9592
14817TIP3   OH265941   0.988   5.824   1.368  0.0187  0.1348 -1.0782
14817TIP3    H165942   1.050   5.861   1.431 -0.5323 -1.0897  0.1841
14817TIP3    H265943   1.041   5.762   1.317  0.2898  0.5883 -1.3591
14818TIP3   OH265944   6.627   5.361   1.738  0.1494  0.5779 -0.3814
14818TIP3    H165945   6.638   5.283   1.684 -0.6625  1.2428 -1.5507
14818TIP3    H265946   6.562   5.413   1.691 -0.1203  1.4562  0.9457
14819TIP3   OH265947   1.872   2.967  11.298  0.0863  0.8799 -0.2008
14819TIP3    H165948   1.811   3.022  11.348 -0.2623  0.0646  0.2831
14819TIP3    H265949   1.857   2.878  11.332  0.1219  0.3758 -1.4907
14820TIP3   OH265950   4.792   2.291   4.278 -0.0313 -0.0141 -0.1144
14820TIP3    H165951   4.798   2.299   4.373  2.2010 -1.5675 -0.0785
14820TIP3    H265952   4.717   2.233   4.264  0.1159 -0.4323  0.7520
14821TIP3   OH265953   1.215   3.518  12.435 -0.0656  0.1130 -0.0843
14821TIP3    H165954   1.280   3.587  12.441 -0.1639  0.1351  0.8067
14821TIP3    H265955   1.217   3.490  12.343  0.8829  0.4080 -0.1551
14822TIP3   OH265956   3.212   5.976   3.412  0.5674  0.2227 -0.4051
14822TIP3    H165957   3.291   6.010   3.453  0.2537  1.0253 -0.4644
14822TIP3    H265958   3.152   5.960   3.486  0.0673  1.4992 -0.5225
14823TIP3   OH265959   0.612   4.001  12.068  0.4977 -0.6885  0.3722
14823TIP3    H165960   0.643   4.004  11.978 -2.3425  1.3693 -0.5892
14823TIP3    H265961   0.532   3.949  12.065  0.9720 -1.5599  1.9240
14824TIP3   OH265962   2.490   5.601   4.088  0.0619  0.0632 -0.7807
14824TIP3    H165963   2.535   5.516   4.093 -0.5685 -0.3256 -1.5968
14824TIP3    H265964   2.397   5.578   4.088 -0.1107  0.7570 -1.0734
14825TIP3   OH265965   4.686   3.281   1.422 -0.3934  0.2894  0.2389
14825TIP3    H165966   4.743   3.218   1.467  0.6025  1.0123 -0.0040
14825TIP3    H265967   4.608   3.287   1.478 -1.9864 -3.6271 -1.3422
14826TIP3   OH265968   1.263   2.275   2.271  0.3373  0.6880  0.5649
14826TIP3    H165969   1.185   2.327   2.251 -0.1452  1.1227  3.2797
14826TIP3    H265970   1.335   2.338   2.273  0.5413  0.4971 -0.6665
14827TIP3   OH265971   6.234   2.788  13.821  0.4464 -0.3854 -0.2019
14827TIP3    H165972   6.166   2.731  13.855 -1.3671  0.9792 -1.4448
14827TIP3    H265973   6.265   2.837  13.898 -1.1654  0.1825  0.1058
14828TIP3   OH265974   3.219   0.221  15.462 -0.4110  0.2229 -0.4549
14828TIP3    H165975   3.219   0.129  15.435  0.6141  0.5059 -1.4758
14828TIP3    H265976   3.222   0.218  15.558  1.3199 -0.8249 -0.5228
14829TIP3   OH265977   2.281   1.357  16.210 -0.1201 -0.2400  0.2535
14829TIP3    H165978   2.262   1.376  16.118  0.0084 -1.1863  0.0279
14829TIP3    H265979   2.371   1.323  16.209 -0.2993 -0.7266  0.6611
14830TIP3   OH265980   4.036   0.496  12.492 -0.0664  0.0146  0.1505
14830TIP3    H165981   3.972   0.495  12.563 -0.8369 -0.8352 -0.5478
14830TIP3    H265982   3.991   0.455  12.418  1.3228 -0.7191 -0.3024
14831TIP3   OH265983   4.904   2.004  17.171  0.2447 -0.0830 -0.9642
14831TIP3    H165984   4.829   1.949  17.192 -0.5227  1.3056 -0.0161
14831TIP3    H265985   4.872   2.064  17.103  0.6090  0.2337 -0.8599
14832TIP3   OH265986   6.283   1.310   4.886  0.5525 -0.3316  0.0434
14832TIP3    H165987   6.331   1.390   4.910  2.1701 -1.4624  0.7269
14832TIP3    H265988   6.201   1.315   4.936  0.9054  0.6310  0.5381
14833TIP3   OH265989   2.993   3.016   6.337 -0.1973 -0.5923 -0.5295
14833TIP3    H165990   2.970   2.935   6.382  0.2204  0.0374  0.8326
14833TIP3    H265991   2.948   3.085   6.387 -0.0571  0.0782 -1.3134
14834TIP3   OH265992   0.762   3.957   5.452  0.0204 -0.0946 -0.1131
14834TIP3    H165993   0.777   3.947   5.358  0.8270  0.6839 -0.0678
14834TIP3    H265994   0.760   4.051   5.467  1.6404 -0.1901  0.9112
14835TIP3   OH265995   1.062   6.537   0.478 -0.2075  0.0250 -0.6034
14835TIP3    H165996   1.138   6.509   0.428 -0.0321  0.5918 -0.6612
14835TIP3    H265997   0.994   6.474   0.456  0.0002  0.0083 -1.2140
14836TIP3   OH265998   2.172   3.893  14.049  0.3480  0.3134  0.5915
14836TIP3    H165999   2.099   3.848  14.093  0.1061 -0.1098 -0.2294
14836TIP3    H266000   2.171   3.857  13.960 -0.3383  2.5000 -0.3097
14837TIP3   OH266001   6.675   2.979   6.030 -0.4641  0.3709  0.5006
14837TIP3    H166002   6.710   2.998   6.117 -0.5157 -0.4999  0.7064
14837TIP3    H266003   6.721   3.041   5.973  0.3367  0.2275  0.9869
14838TIP3   OH266004   0.063   6.303   2.090 -0.1577 -0.4947  0.6508
14838TIP3    H166005   0.035   6.215   2.115 -1.8066 -0.1887 -0.0415
14838TIP3    H266006  -0.006   6.361   2.124  0.2176  0.3871 -0.0540
14839TIP3   OH266007   6.192   6.470  12.753  0.0288 -0.4962 -0.1019
14839TIP3    H166008   6.162   6.384  12.724 -0.1601 -0.2742 -0.5680
14839TIP3    H266009   6.199   6.521  12.673 -0.1564  0.0161  0.2034
14840TIP3   OH266010   5.063   5.272  13.884 -0.2009 -0.4130  0.2747
14840TIP3    H166011   5.050   5.357  13.926  0.7793 -0.3073  0.3741
14840TIP3    H266012   5.013   5.211  13.937 -1.7912  0.2719 -0.4196
14841TIP3   OH266013   4.915   6.275  13.440  0.2172 -0.1632 -0.0207
14841TIP3    H166014   4.926   6.335  13.514 -2.2212 -0.1511  0.3755
14841TIP3    H266015   4.822   6.278  13.420  0.8277 -0.2191 -3.0846
14842TIP3   OH266016   3.853   4.561  14.790  0.2613 -0.0047 -0.7423
14842TIP3    H166017   3.852   4.466  14.783  1.7162 -0.0168 -1.0326
14842TIP3    H266018   3.783   4.582  14.851 -1.1785 -1.1395 -1.9754
14843TIP3   OH266019   0.616   2.476   5.154  0.3949  0.5769 -0.2593
14843TIP3    H166020   0.592   2.476   5.247  1.9660 -0.0363  0.1630
14843TIP3    H266021   0.538   2.444   5.109  0.0427 -0.3139  0.9664
14844TIP3   OH266022   3.262   6.275  17.238 -0.1402 -0.2375 -0.8364
14844TIP3    H166023   3.292   6.228  17.316 -0.6448 -0.2317 -0.6331
14844TIP3    H266024   3.339   6.281  17.182  0.9505  2.2445  0.8649
14845TIP3   OH266025   6.172   3.364   0.381 -0.1722 -0.0655  0.0890
14845TIP3    H166026   6.191   3.432   0.447 -1.8886  0.0968  0.4342
14845TIP3    H266027   6.120   3.409   0.315  1.0339 -0.3856 -1.1009
14846TIP3   OH266028   5.747   2.033  15.300  0.0782  0.4251 -0.1570
14846TIP3    H166029   5.811   2.092  15.340 -0.3249 -1.0459  2.8296
14846TIP3    H266030   5.664   2.081  15.306  0.1881  0.6053 -0.0775
14847TIP3   OH266031   0.762   0.373   4.729 -0.1701 -0.9092 -0.2756
14847TIP3    H166032   0.714   0.454   4.711  0.4053 -1.3723 -4.5728
14847TIP3    H266033   0.699   0.316   4.773 -1.3963  0.9133  0.3600
14848TIP3   OH266034   5.868   3.726  14.437 -0.5051  0.0056 -0.1165
14848TIP3    H166035   5.903   3.775  14.363 -1.2845 -0.1901 -0.6161
14848TIP3    H266036   5.925   3.650  14.446 -0.4664 -0.0163 -0.5675
14849TIP3   OH266037   4.541   2.437   1.523  0.0446  0.5728 -0.2927
14849TIP3    H166038   4.491   2.491   1.463 -0.8440 -0.4956 -0.5444
14849TIP3    H266039   4.633   2.453   1.500 -0.1795  2.3302 -0.0215
14850TIP3   OH266040   3.433   1.743   4.216 -0.4974 -0.9556 -0.2862
14850TIP3    H166041   3.449   1.807   4.286 -0.2839 -0.2291 -0.9955
14850TIP3    H266042   3.471   1.782   4.138 -2.9904 -0.5707 -1.3726
14851TIP3   OH266043   1.023   0.791   4.569  0.3565  0.3785  0.3500
14851TIP3    H166044   1.114   0.775   4.591  0.4608  0.6504  0.1237
14851TIP3    H266045   1.000   0.720   4.509  0.3524  0.1810  0.5869
14852TIP3   OH266046   2.426   1.102   1.454 -0.1515  0.2563 -0.1260
14852TIP3    H166047   2.381   1.079   1.535 -1.6827  2.7774 -0.2043
14852TIP3    H266048   2.518   1.113   1.479 -0.6153  1.0316  1.2617
14853TIP3   OH266049   1.687   3.500  14.060 -0.3234 -0.4091  0.0507
14853TIP3    H166050   1.763   3.460  14.016  1.3403  0.3826  2.1073
14853TIP3    H266051   1.694   3.593  14.038  0.4316 -0.0350  1.8258
14854TIP3   OH266052   3.823   2.829  16.539  0.2178 -0.0878  0.0218
14854TIP3    H166053   3.767   2.828  16.616  0.6740  0.8298  0.3677
14854TIP3    H266054   3.811   2.742  16.500 -2.7012  0.6400 -0.8218
14855TIP3   OH266055   1.584   6.786  14.700 -0.3615  0.3824  0.1538
14855TIP3    H166056   1.542   6.830  14.626 -2.4809  0.4727  1.3781
14855TIP3    H266057   1.551   6.697  14.697 -1.8260  0.8539  2.0181
14856TIP3   OH266058   0.984   1.723  12.246 -0.1510 -0.2880 -0.3455
14856TIP3    H166059   0.915   1.766  12.298  0.3722 -0.7548  0.7394
14856TIP3    H266060   1.031   1.796  12.205 -1.1761  0.0462 -0.9640
14857TIP3   OH266061   0.443   3.697   0.931  0.3858 -0.0012  0.1106
14857TIP3    H166062   0.534   3.672   0.948  0.3722 -0.8328 -0.9508
14857TIP3    H266063   0.399   3.614   0.911 -0.2313  0.5738 -0.9789
14858TIP3   OH266064   0.504   2.237  16.985  0.1161  0.1256 -0.5093
14858TIP3    H166065   0.482   2.216  16.894 -1.3887 -1.3388  0.1783
14858TIP3    H266066   0.435   2.296  17.014  0.3476  0.2292 -0.1651
14859TIP3   OH266067   0.896   6.330   1.094  0.1597 -0.3412 -0.0873
14859TIP3    H166068   0.870   6.407   1.145  0.1683 -0.9875  0.9206
14859TIP3    H266069   0.937   6.272   1.159  1.3817 -0.6175 -1.0837
14860TIP3   OH266070   6.629   2.789  15.806  0.3727  0.0123  0.4776
14860TIP3    H166071   6.606   2.764  15.896  1.9595 -1.3267  0.5191
14860TIP3    H266072   6.712   2.835  15.814 -0.6310  1.9957 -0.0629
14861TIP3   OH266073   6.763   6.749  16.547 -0.1420 -0.3555 -0.0972
14861TIP3    H166074   6.818   6.790  16.613 -0.0463 -1.5580  0.5956
14861TIP3    H266075   6.819   6.740  16.470  0.2446 -0.4353  0.1937
14862TIP3   OH266076   4.079   1.851  12.413 -0.4843 -0.3019 -0.3559
14862TIP3    H166077   4.112   1.810  12.493  2.1773  1.0050 -0.7355
14862TIP3    H266078   4.016   1.788  12.379 -0.2901 -1.7202  1.7890
14863TIP3   OH266079   3.116   0.083  16.878  0.0059  0.3328  0.0450
14863TIP3    H166080   3.121   0.121  16.791 -1.4188  0.3653 -0.0445
14863TIP3    H266081   3.080   0.152  16.933  0.6366  0.2223  0.6012
14864TIP3   OH266082   2.832   2.918  16.266 -0.3789  0.4021  0.7615
14864TIP3    H166083   2.755   2.931  16.210 -1.0258 -3.4608  0.6088
14864TIP3    H266084   2.901   2.892  16.206 -0.0585 -0.0585  1.3206
14865TIP3   OH266085   5.219   2.804   3.971  0.3461 -0.2178  0.0396
14865TIP3    H166086   5.299   2.778   4.018  2.0609 -0.1566 -2.7243
14865TIP3    H266087   5.247   2.876   3.914 -1.0824 -1.8276 -2.7972
14866TIP3   OH266088   6.495   1.712  11.408 -0.2381 -0.2165 -0.5140
14866TIP3    H166089   6.526   1.717  11.498  0.3857  1.4538 -0.7983
14866TIP3    H266090   6.446   1.793  11.394 -2.2969 -1.4977 -0.9894
14867TIP3   OH266091   3.272   2.712  15.867 -0.2725 -0.2825 -0.2966
14867TIP3    H166092   3.340   2.665  15.819  0.0991  0.9147 -0.9699
14867TIP3    H266093   3.245   2.652  15.937  2.5424 -0.1715  0.9262
14868TIP3   OH266094   0.655   0.915   5.762 -0.7369 -0.2409 -0.8127
14868TIP3    H166095   0.616   0.989   5.808  0.6627 -0.4075  0.6973
14868TIP3    H266096   0.653   0.843   5.826 -0.4672 -0.9994 -1.6494
14869TIP3   OH266097   0.065   4.646   5.883  0.0584 -0.6509 -0.2998
14869TIP3    H166098   0.056   4.667   5.976  1.6850  0.6141 -0.3995
14869TIP3    H266099   0.150   4.683   5.858 -0.7654 -0.1526 -2.5134
14870TIP3   OH266100   5.550   4.168  15.812 -0.4306  0.2339 -0.2849
14870TIP3    H166101   5.524   4.148  15.722  0.3505  1.8766 -0.8757
14870TIP3    H266102   5.488   4.118  15.866 -1.5695  0.0845 -1.7147
14871TIP3   OH266103   2.937   0.683  14.240  0.7809  0.9045  0.6475
14871TIP3    H166104   2.876   0.707  14.170 -0.1021 -1.0991  0.6800
14871TIP3    H266105   3.018   0.661  14.195 -0.1758 -1.6758  0.0536
14872TIP3   OH266106   1.849   6.057  17.094 -0.4896  0.1992 -0.0936
14872TIP3    H166107   1.813   6.006  17.167 -2.0535  1.6745  0.2040
14872TIP3    H266108   1.895   6.130  17.137  2.0825 -1.1300 -0.4987
14873TIP3   OH266109   6.272   0.582  17.136  0.1690 -0.0052  0.1508
14873TIP3    H166110   6.208   0.527  17.181 -1.0224  0.1782 -1.2742
14873TIP3    H266111   6.285   0.538  17.051  0.8030  0.7654 -0.1512
14874TIP3   OH266112   6.318   0.904  11.326  0.1772  0.3310  0.1156
14874TIP3    H166113   6.378   0.927  11.397 -2.1087  0.7242  1.9857
14874TIP3    H266114   6.231   0.904  11.367 -0.8104 -3.4843 -1.6854
14875TIP3   OH266115   3.818   3.168  16.206 -0.1952  0.1780  0.4246
14875TIP3    H166116   3.759   3.241  16.220 -0.0800  0.3206  0.1689
14875TIP3    H266117   3.795   3.105  16.274  1.0717  1.2977  1.9272
14876TIP3   OH266118   2.175   6.021  14.919  0.4408  0.5384 -0.3673
14876TIP3    H166119   2.163   5.929  14.941 -1.3693  0.9303  0.3343
14876TIP3    H266120   2.101   6.042  14.862 -0.1492  2.0314  0.9412
14877TIP3   OH266121   3.394   3.648   2.420 -0.9636  0.6201 -0.1155
14877TIP3    H166122   3.345   3.657   2.338 -0.6182 -0.8498 -0.4995
14877TIP3    H266123   3.367   3.563   2.455 -0.2399  0.7252  0.7223
14878TIP3   OH266124   6.656   5.790   3.648 -0.2478  0.1059  0.1742
14878TIP3    H166125   6.717   5.830   3.710 -0.6324 -0.9441  1.2565
14878TIP3    H266126   6.708   5.776   3.569 -0.0184  2.3818 -0.1155
14879TIP3   OH266127   6.484   6.669   3.751  0.1212 -0.3376  0.3068
14879TIP3    H166128   6.529   6.659   3.667  0.0492 -1.0035  0.3471
14879TIP3    H266129   6.512   6.593   3.802 -1.7625 -1.2419  0.0227
14880TIP3   OH266130   0.155   2.939   1.140  0.6991 -0.2180 -0.0592
14880TIP3    H166131   0.235   2.977   1.177  0.0720  0.8690  0.1862
14880TIP3    H266132   0.095   2.933   1.214  0.8707 -1.9324 -0.0398
14881TIP3   OH266133   5.124   4.108   0.080  0.0492 -0.1951  0.6660
14881TIP3    H166134   5.060   4.108   0.152 -0.2842  1.3135  0.3973
14881TIP3    H266135   5.161   4.020   0.080 -2.6474 -1.3507  0.2790
14882TIP3   OH266136   6.736   6.195  16.287  0.0364 -0.1642  0.0270
14882TIP3    H166137   6.827   6.189  16.256 -0.2875  0.6235 -1.1191
14882TIP3    H266138   6.687   6.137  16.229 -0.1450 -0.8002  0.8254
14883TIP3   OH266139   1.342   0.642  16.696  0.4544 -0.3391 -0.3150
14883TIP3    H166140   1.390   0.704  16.750  0.0710 -0.8950  0.6843
14883TIP3    H266141   1.406   0.574  16.674  0.5782 -0.1723 -0.4763
14884TIP3   OH266142   4.080   0.464  11.534 -0.3437  0.2156  0.0187
14884TIP3    H166143   4.027   0.543  11.543  0.9890  1.4193 -2.2140
14884TIP3    H266144   4.078   0.444  11.440  3.3034  0.4387 -0.1801
14885TIP3   OH266145   0.586   3.261  16.623  0.5662  0.1064 -0.0324
14885TIP3    H166146   0.576   3.356  16.621  1.0650  0.1470 -0.6367
14885TIP3    H266147   0.680   3.246  16.611  0.6540 -0.4272  1.2482
14886TIP3   OH266148   6.606   6.664  14.126  0.9569 -0.3984 -0.1999
14886TIP3    H166149   6.612   6.744  14.075  0.6668 -0.9959 -1.1734
14886TIP3    H266150   6.597   6.594  14.062  0.0324 -1.1059  0.6773
14887TIP3   OH266151   4.305   4.034   4.360  0.1326  0.2981  0.1069
14887TIP3    H166152   4.264   3.957   4.323  0.1034  0.3507  0.0276
14887TIP3    H266153   4.324   4.090   4.284  1.0043 -0.0436  0.0680
14888TIP3   OH266154   2.945   3.332   5.191 -0.3517  0.3332  0.3601
14888TIP3    H166155   3.020   3.299   5.142 -1.2650 -0.1158 -0.7482
14888TIP3    H266156   2.939   3.275   5.267 -0.8792 -0.9807 -0.6633
14889TIP3   OH266157   6.783   2.927   3.715 -0.0550  0.0984  0.2707
14889TIP3    H166158   6.716   2.932   3.784  1.3730 -0.2992  1.7165
14889TIP3    H266159   6.866   2.942   3.761  0.9908 -0.8519 -1.2559
14890TIP3   OH266160   6.464   3.791  16.884  0.2888  0.2594 -0.1358
14890TIP3    H166161   6.464   3.724  16.952 -2.8785  1.0666  0.7233
14890TIP3    H266162   6.451   3.873  16.930 -0.2646  0.9990 -1.5814
14891TIP3   OH266163   2.901   1.914  11.252  0.1222 -0.3000  0.4366
14891TIP3    H166164   2.840   1.854  11.296 -1.0546  0.3965 -0.2183
14891TIP3    H266165   2.850   1.950  11.180  1.5829 -0.3212 -0.6204
14892TIP3   OH266166   4.050   2.280  14.608 -0.0677  0.0182 -0.0816
14892TIP3    H166167   4.063   2.207  14.547 -1.3370  0.3013 -0.7148
14892TIP3    H266168   3.973   2.256  14.659 -0.6237  0.9926 -0.4384
14893TIP3   OH266169   3.580   0.775   2.260  0.5549 -0.3922 -0.3195
14893TIP3    H166170   3.591   0.788   2.166 -1.1096  1.0477 -0.3417
14893TIP3    H266171   3.648   0.830   2.300 -1.2223  2.0659 -0.6119
14894TIP3   OH266172   0.615   1.537  15.574  0.0064  0.0204  0.3443
14894TIP3    H166173   0.547   1.471  15.583  0.0269 -0.3414 -1.8748
14894TIP3    H266174   0.568   1.620  15.564 -0.1102 -0.1615 -0.6575
14895TIP3   OH266175   6.360   6.295  17.109 -0.7254 -0.1917 -0.0074
14895TIP3    H166176   6.397   6.226  17.164 -2.6076 -2.0826 -1.0471
14895TIP3    H266177   6.412   6.291  17.028  0.9886  1.5200  0.9638
14896TIP3   OH266178   6.399   2.320  14.523 -0.0897 -0.5536  0.0634
14896TIP3    H166179   6.391   2.230  14.557  1.9031 -0.4941  0.7628
14896TIP3    H266180   6.474   2.356  14.571 -0.6541  1.3652 -0.4912
14897TIP3   OH266181   0.849   5.339  14.947  0.0480  0.4400  0.2667
14897TIP3    H166182   0.862   5.345  15.042  0.3498 -1.8830  0.3898
14897TIP3    H266183   0.757   5.317  14.937  0.2357 -0.2781  0.0753
14898TIP3   OH266184   0.441   3.167   5.341 -0.0583  0.4987 -0.4175
14898TIP3    H166185   0.434   3.158   5.436  0.7217  1.6100 -0.2346
14898TIP3    H266186   0.460   3.260   5.328  0.2786  0.2657 -1.6291
14899TIP3   OH266187   0.468   6.425  14.025  0.6027  0.3199  0.1294
14899TIP3    H166188   0.550   6.417  13.977  0.1429  2.5791 -1.0912
14899TIP3    H266189   0.410   6.472  13.965 -0.1225  2.8550  2.7198
14900TIP3   OH266190   3.106   1.662   2.336  0.4382 -0.3492  0.0645
14900TIP3    H166191   3.171   1.702   2.278  1.5402  1.7272  2.6454
14900TIP3    H266192   3.131   1.569   2.339  0.3771 -0.4942 -2.6912
14901TIP3   OH266193   4.267   4.120   3.918  0.0072  0.3413  0.3569
14901TIP3    H166194   4.285   4.132   4.011  2.3049  1.5134 -0.2272
14901TIP3    H266195   4.289   4.204   3.878 -1.7197  0.0985 -1.1640
14902TIP3   OH266196   2.779   6.757   2.726  0.2541  0.1455 -0.6113
14902TIP3    H166197   2.805   6.771   2.817 -0.2163  2.4965 -0.8103
14902TIP3    H266198   2.801   6.666   2.709  0.7746 -0.2007  1.7164
14903TIP3   OH266199   5.100   6.194  15.245 -0.2412  0.2617  0.3948
14903TIP3    H166200   5.102   6.227  15.156  0.6186  0.0181  0.3165
14903TIP3    H266201   5.033   6.126  15.245 -0.7409  0.7558  0.1133
14904TIP3   OH266202   6.546   2.440  14.257  0.3663 -1.0552 -0.5180
14904TIP3    H166203   6.506   2.519  14.293  0.5212 -1.8021  1.3835
14904TIP3    H266204   6.565   2.461  14.166  0.3871  1.0885 -0.0394
14905TIP3   OH266205   5.332   2.988  14.534 -0.5847  0.6544 -0.0206
14905TIP3    H166206   5.416   2.973  14.577 -0.9454 -2.0289 -0.1637
14905TIP3    H266207   5.277   3.029  14.601  0.9065  2.7125 -0.0259
14906TIP3   OH266208   4.533   1.241   3.112  0.0804 -0.1990 -0.1718
14906TIP3    H166209   4.503   1.205   3.195 -2.1679  2.8147  0.4420
14906TIP3    H266210   4.476   1.201   3.046 -0.0463 -0.4391  0.0848
14907TIP3   OH266211   5.448   3.559   4.306 -0.3346  0.2484  0.0130
14907TIP3    H166212   5.374   3.617   4.292 -1.2349 -0.8185  0.2720
14907TIP3    H266213   5.494   3.558   4.222 -0.5105  1.0587 -0.0918
14908TIP3   OH266214   5.811   1.998   4.837  0.4601 -0.3392 -0.3920
14908TIP3    H166215   5.755   1.956   4.773 -1.8458  1.3370  0.4785
14908TIP3    H266216   5.805   2.092   4.818  0.0208  0.1611  1.9886
14909TIP3   OH266217   2.235   4.000  12.439  0.0180 -0.4262 -0.0689
14909TIP3    H166218   2.177   4.030  12.369  1.7042  2.6430 -0.2319
14909TIP3    H266219   2.302   3.949  12.394  1.1186  1.5673 -0.7244
14910TIP3   OH266220   2.021   4.381   3.112  0.1915  0.4104  0.0059
14910TIP3    H166221   1.981   4.461   3.080  0.0773 -0.1059 -1.1934
14910TIP3    H266222   1.973   4.311   3.068 -0.0396 -0.3353  1.4202
14911TIP3   OH266223   2.678   2.916  16.850  0.1106 -0.3167  0.0687
14911TIP3    H166224   2.605   2.917  16.913  0.0629  1.0333  0.0000
14911TIP3    H266225   2.673   2.829  16.809 -2.6007  0.4241 -1.2702
14912TIP3   OH266226   6.496   2.315  11.207 -0.1654 -0.0030 -0.0911
14912TIP3    H166227   6.536   2.260  11.275 -0.0258  0.6650  0.3787
14912TIP3    H266228   6.526   2.404  11.229 -1.1509  0.3747 -0.2845
14913TIP3   OH266229   1.043   5.634   0.180 -0.1601  0.1374  0.3249
14913TIP3    H166230   1.119   5.663   0.230 -0.1781 -0.4817  0.7068
14913TIP3    H266231   1.046   5.686   0.100  0.5421  0.2661  0.4329
14914TIP3   OH266232   6.727   4.936  17.206  0.0200  0.4418 -0.1244
14914TIP3    H166233   6.818   4.915  17.228 -0.2636 -2.1916 -1.2789
14914TIP3    H266234   6.680   4.927  17.289  0.5219 -0.0607  0.1110
14915TIP3   OH266235   1.151   0.174   1.265  0.6284 -0.5334 -0.5120
14915TIP3    H166236   1.225   0.235   1.271  1.8490 -2.0338 -0.0062
14915TIP3    H266237   1.076   0.230   1.242  1.4484  1.3511  1.2058
14916TIP3   OH266238   0.132   3.269  11.350 -0.1192  0.2726  0.4752
14916TIP3    H166239   0.136   3.278  11.445  1.6632 -0.5140  0.4964
14916TIP3    H266240   0.148   3.357  11.316 -2.9955  1.0122  0.9011
14917TIP3   OH266241   5.074   3.412  11.493  0.3098  0.2148  0.1135
14917TIP3    H166242   5.168   3.410  11.510  0.9303  1.9607 -2.8200
14917TIP3    H266243   5.047   3.499  11.520 -0.1172  0.3475 -0.7336
14918TIP3   OH266244   5.560   2.272  11.653 -0.0128  0.0414  0.6159
14918TIP3    H166245   5.624   2.262  11.723  0.0493  1.0277  0.7151
14918TIP3    H266246   5.586   2.353  11.608  0.1560 -0.7754 -0.7715
14919TIP3   OH266247   6.795   4.147  13.352 -0.4476 -0.3082  0.2442
14919TIP3    H166248   6.702   4.126  13.363 -0.5862 -0.6729 -1.4678
14919TIP3    H266249   6.840   4.097  13.421 -1.6062  0.7806  1.8393
14920TIP3   OH266250   5.469   6.200   3.188  0.0356  0.0390  0.3657
14920TIP3    H166251   5.557   6.229   3.211  0.0842  0.3237 -0.1741
14920TIP3    H266252   5.412   6.272   3.214  0.1906  0.7725 -1.2816
14921TIP3   OH266253   1.915   5.167   5.875 -0.9631  0.0748 -0.0405
14921TIP3    H166254   1.966   5.146   5.953 -5.1967 -1.1159  2.5600
14921TIP3    H266255   1.895   5.083   5.835 -1.8235  0.4488 -0.4074
14922TIP3   OH266256   4.214   2.433   1.853  0.5310 -0.1750  0.4432
14922TIP3    H166257   4.167   2.402   1.776  0.6027  0.0704  0.3007
14922TIP3    H266258   4.290   2.375   1.859  0.4557 -0.2792  0.4082
14923TIP3   OH266259   4.198   0.406  16.986 -0.2746  0.1972 -0.4127
14923TIP3    H166260   4.188   0.317  16.952 -1.9370  0.3697 -0.4357
14923TIP3    H266261   4.162   0.462  16.917 -0.6255  0.7848  0.2418
14924TIP3   OH266262   5.855   1.801  13.833  0.1858  0.2003 -0.2265
14924TIP3    H166263   5.788   1.750  13.788  1.0320  0.1378 -1.4513
14924TIP3    H266264   5.808   1.875  13.872 -0.8810 -0.9151  0.6466
14925TIP3   OH266265   6.432   4.858  15.079  0.7589 -0.4510  0.1485
14925TIP3    H166266   6.393   4.771  15.068 -1.5052  0.6352 -0.7117
14925TIP3    H266267   6.463   4.859  15.170  1.3773 -2.3494 -0.0083
14926TIP3   OH266268   0.820   2.701  15.908 -0.1345 -0.0054 -0.2747
14926TIP3    H166269   0.874   2.774  15.878 -2.3200  1.5595 -0.5584
14926TIP3    H266270   0.756   2.688  15.838 -1.0740 -0.8226  0.7175
14927TIP3   OH266271   3.065   4.310   1.031 -0.2833  0.1875 -0.8165
14927TIP3    H166272   3.123   4.345   0.963 -2.6036 -1.5029 -3.7619
14927TIP3    H266273   2.978   4.340   1.007 -1.0677  0.2297  1.9057
14928TIP3   OH266274   2.163   0.226  15.599  0.4834  0.0277  0.4033
14928TIP3    H166275   2.225   0.296  15.621 -0.6192  0.8173  1.1090
14928TIP3    H266276   2.209   0.172  15.535  2.6968 -0.6175  2.4238
14929TIP3   OH266277   1.059   1.939   3.199 -0.2060  0.2729 -0.1581
14929TIP3    H166278   1.007   1.859   3.193  0.5449 -0.2041 -0.3203
14929TIP3    H266279   1.139   1.912   3.244  0.2947  0.8067 -0.7211
14930TIP3   OH266280   3.680   4.395  15.046  0.1481  0.4091 -0.2575
14930TIP3    H166281   3.649   4.473  14.999  2.1077  0.1185 -2.0953
14930TIP3    H266282   3.692   4.425  15.136 -2.1589  1.3828 -0.2297
14931TIP3   OH266283   5.433   6.752  12.778 -0.1585 -0.3788 -0.0816
14931TIP3    H166284   5.475   6.830  12.814 -0.6237  0.0134 -0.3824
14931TIP3    H266285   5.490   6.725  12.706 -0.3689  0.1064 -0.4379
14932TIP3   OH266286   2.356   2.747  16.113  0.2410 -0.3165 -0.7082
14932TIP3    H166287   2.322   2.666  16.074  0.0153  0.0331 -1.2375
14932TIP3    H266288   2.371   2.724  16.204 -2.4712 -0.1847 -0.1660
14933TIP3   OH266289   5.290   4.899  13.501  0.0024 -0.6356 -0.0222
14933TIP3    H166290   5.195   4.903  13.486 -0.2357  1.4313  1.7887
14933TIP3    H266291   5.321   4.832  13.440 -2.5931 -1.2037 -0.7842
14934TIP3   OH266292   6.547   4.747  14.858 -0.3217 -0.2179 -0.0172
14934TIP3    H166293   6.531   4.801  14.780  0.8665  0.1395 -0.0123
14934TIP3    H266294   6.527   4.805  14.932  0.8639  0.1974 -0.0137
14935TIP3   OH266295   3.773   3.136  11.049  1.2759 -0.6656  0.4142
14935TIP3    H166296   3.714   3.192  10.999  1.7823 -0.7616 -0.2979
14935TIP3    H266297   3.719   3.102  11.120  0.1458 -1.7494 -0.9351
14936TIP3   OH266298   4.637   1.831  11.116 -0.3577 -0.1198  0.2982
14936TIP3    H166299   4.665   1.768  11.182  0.9392 -0.6585 -0.7450
14936TIP3    H266300   4.718   1.868  11.082 -1.0573  1.0003 -0.1832
14937TIP3   OH266301   1.210   4.087  15.435 -0.5412  0.2213  0.2730
14937TIP3    H166302   1.163   4.129  15.364 -1.7512  0.4427  1.1978
14937TIP3    H266303   1.243   4.005  15.397 -1.6278  0.0833 -0.3913
14938TIP3   OH266304   0.580   4.140  12.370 -0.0654  0.1730  0.1309
14938TIP3    H166305   0.603   4.186  12.451  1.0371  0.3053 -0.2360
14938TIP3    H266306   0.660   4.092  12.347  0.3045  1.6930 -1.9094
14939TIP3   OH266307   3.833   4.520  16.226  0.2786 -0.1468 -0.6566
14939TIP3    H166308   3.926   4.499  16.236  0.2910 -0.4314 -1.3598
14939TIP3    H266309   3.816   4.586  16.293  0.8074 -0.6544 -0.0249
14940TIP3   OH266310   3.639   0.051  14.663  0.1516 -0.4079  0.7876
14940TIP3    H166311   3.577   0.124  14.668  0.4294 -0.2362  1.8441
14940TIP3    H266312   3.644   0.018  14.752  0.3105 -1.4917  0.3801
14941TIP3   OH266313   5.420   3.708  10.935 -0.1682  0.4164  0.2561
14941TIP3    H166314   5.337   3.706  10.982 -0.1150  1.9209  0.4264
14941TIP3    H266315   5.404   3.765  10.860  0.4272 -0.0802 -0.2541
14942TIP3   OH266316   3.681   6.766   5.571  0.0713  0.2283  0.1643
14942TIP3    H166317   3.659   6.849   5.531  2.7984  0.4904 -0.9158
14942TIP3    H266318   3.621   6.703   5.531 -0.6130  1.3206 -0.5532
14943TIP3   OH266319   6.505   4.103  12.827  0.6848  0.1625 -0.3223
14943TIP3    H166320   6.553   4.094  12.909  0.3358 -2.9270 -0.3811
14943TIP3    H266321   6.554   4.051  12.764 -0.5170  0.2908 -1.3979
14944TIP3   OH266322   5.638   3.486   4.487 -0.7384  0.1531  0.7386
14944TIP3    H166323   5.575   3.509   4.418  0.6532  2.0663  0.0575
14944TIP3    H266324   5.630   3.557   4.551  0.0977 -0.0331  1.0554
14945TIP3   OH266325   4.164   1.507   3.632  0.4864  0.2884  0.0089
14945TIP3    H166326   4.073   1.480   3.621  0.1647  1.8160 -1.1744
14945TIP3    H266327   4.215   1.428   3.614 -0.5622 -0.3680 -0.1080
14946TIP3   OH266328   2.549   6.815  16.452 -0.1313  0.8472 -0.1722
14946TIP3    H166329   2.529   6.907  16.471 -1.5221  0.7452 -1.0738
14946TIP3    H266330   2.616   6.819  16.384  0.4479  1.1794  0.4028
14947TIP3   OH266331   1.887   4.471   3.379  0.3483  0.6119 -0.1654
14947TIP3    H166332   1.811   4.416   3.360 -0.3697  1.0159  1.4844
14947TIP3    H266333   1.876   4.548   3.322 -0.6738  0.8320  0.3194
14948TIP3   OH266334   5.704   5.562  12.768 -0.5542 -0.4690  0.0618
14948TIP3    H166335   5.759   5.520  12.702 -0.2381 -0.3034  0.2223
14948TIP3    H266336   5.640   5.495  12.792  0.4318 -1.1155  0.8929
14949TIP3   OH266337   1.919   0.871  16.616 -0.2901  0.0104 -0.0476
14949TIP3    H166338   1.983   0.940  16.634  1.2210 -1.6983  1.3617
14949TIP3    H266339   1.940   0.842  16.527  0.1952  0.1777  0.0109
14950TIP3   OH266340   4.345   6.275   0.596 -0.1649  0.1378  0.3301
14950TIP3    H166341   4.375   6.184   0.601 -0.3622  0.1408  2.0635
14950TIP3    H266342   4.354   6.298   0.504 -2.5427 -2.4928 -0.6515
14951TIP3   OH266343   4.912   5.373  15.622 -0.1099 -0.0018 -0.4794
14951TIP3    H166344   4.825   5.350  15.590 -0.1016  0.3780 -0.7741
14951TIP3    H266345   4.958   5.408  15.546  0.7598 -1.4615 -0.6557
14952TIP3   OH266346   6.060   4.578   1.553  0.4815  0.3285  0.3902
14952TIP3    H166347   5.982   4.548   1.600  0.1830  0.7829  0.1800
14952TIP3    H266348   6.037   4.570   1.461  1.0346 -0.4694  0.3167
14953TIP3   OH266349   5.582   6.019  15.002 -0.2044 -0.0712  0.0790
14953TIP3    H166350   5.590   6.050  14.912  0.4225 -2.4126 -0.7084
14953TIP3    H266351   5.502   6.061  15.035 -1.6466 -0.8629 -2.2744
14954TIP3   OH266352   3.942   3.342   3.115  0.5968 -0.1400 -0.3942
14954TIP3    H166353   3.929   3.434   3.093 -1.5933 -0.3388 -0.0651
14954TIP3    H266354   3.911   3.335   3.205  1.3002 -1.0997 -0.2201
14955TIP3   OH266355   3.809   4.977   2.947 -0.1970  0.0825  0.4909
14955TIP3    H166356   3.797   5.024   3.030  0.6281  0.4366  0.4172
14955TIP3    H266357   3.866   4.904   2.969 -0.7909 -0.3945  0.4348
14956TIP3   OH266358   1.805   2.537   6.214 -0.0133 -0.0911 -0.3213
14956TIP3    H166359   1.811   2.455   6.263  0.6737 -0.1936 -0.5767
14956TIP3    H266360   1.864   2.597   6.260  1.8098 -0.6302 -1.8879
14957TIP3   OH266361   1.726   3.058  16.496 -0.6009  0.2137 -0.1989
14957TIP3    H166362   1.772   3.043  16.413  0.8424  0.4338  0.5364
14957TIP3    H266363   1.739   3.151  16.513 -1.5137  0.3222 -0.0762
14958TIP3   OH266364   5.649   6.652  12.973 -0.0199  0.3305 -0.2072
14958TIP3    H166365   5.555   6.669  12.971 -0.7016 -2.7833  1.8159
14958TIP3    H266366   5.673   6.636  12.881 -2.2804 -2.7865 -0.3031
14959TIP3   OH266367   1.409   3.491  14.996 -0.0125  0.2102  0.3502
14959TIP3    H166368   1.494   3.490  14.952 -0.1721 -1.1464  0.0433
14959TIP3    H266369   1.348   3.525  14.930  0.2281  0.8500  0.4556
14960TIP3   OH266370   4.055   4.265   0.537  0.2475 -0.4023  0.7255
14960TIP3    H166371   4.143   4.231   0.553  0.6698  0.6127  0.5690
14960TIP3    H266372   4.062   4.359   0.551 -0.2734  0.0000 -1.5009
14961TIP3   OH266373   6.400   0.523   1.629 -0.4346 -0.4596 -0.0279
14961TIP3    H166374   6.377   0.529   1.537 -0.4122 -1.5053 -0.1096
14961TIP3    H266375   6.433   0.434   1.640  1.1694  0.2091  0.6377
14962TIP3   OH266376   2.152   2.738   6.591  0.2170  0.0390  0.0337
14962TIP3    H166377   2.212   2.693   6.651 -0.9827 -0.2405  1.0512
14962TIP3    H266378   2.201   2.814   6.561  0.8348  0.1997  1.3974
14963TIP3   OH266379   5.424   1.573   1.412 -0.1680 -0.2436 -0.2063
14963TIP3    H166380   5.362   1.514   1.456 -1.6564  1.2567 -0.2354
14963TIP3    H266381   5.495   1.584   1.475 -1.3615  0.3443  1.0682
14964TIP3   OH266382   3.867   1.270  14.254  0.7433  0.1140 -0.8690
14964TIP3    H166383   3.920   1.322  14.193  0.6452 -0.1918 -1.2118
14964TIP3    H266384   3.931   1.225  14.309  0.8316  1.1795 -0.0732
14965TIP3   OH266385   1.351   5.345  15.835  0.6267 -0.4029 -0.1698
14965TIP3    H166386   1.312   5.332  15.748  0.6557  0.1356 -0.2681
14965TIP3    H266387   1.393   5.431  15.829  2.8636 -1.5043 -0.4291
14966TIP3   OH266388   0.744   2.878   4.726 -0.4538  0.5409  0.5538
14966TIP3    H166389   0.810   2.820   4.687 -1.2548 -1.8018  2.5413
14966TIP3    H266390   0.780   2.901   4.812 -0.9843  1.4489  0.5334
14967TIP3   OH266391   2.432   2.981  11.858 -0.1492 -0.0454  0.2092
14967TIP3    H166392   2.509   2.931  11.885 -0.1619 -0.4357 -0.4619
14967TIP3    H266393   2.434   2.978  11.762  0.3815  2.0593  0.1339
14968TIP3   OH266394   6.346   3.073   2.340 -0.3837 -0.4070 -0.0583
14968TIP3    H166395   6.278   3.032   2.394 -0.6602  1.0065  0.6907
14968TIP3    H266396   6.342   3.026   2.257  0.8930 -3.4611  1.5406
14969TIP3   OH266397   2.929   3.294  16.498  0.1554 -0.4228  0.5277
14969TIP3    H166398   2.837   3.274  16.478 -0.1844  0.2722  1.3697
14969TIP3    H266399   2.964   3.329  16.416  0.5546 -3.6284 -0.7696
14970TIP3   OH266400   0.486   2.777  11.342  0.0715  0.3176 -0.3704
14970TIP3    H166401   0.560   2.789  11.282  1.3502 -1.3781  0.8331
14970TIP3    H266402   0.416   2.741  11.287  1.3747 -1.6419 -0.8010
14971TIP3   OH266403   5.458   2.091   3.790  0.0781 -0.3092 -0.2363
14971TIP3    H166404   5.455   2.108   3.696 -0.9081  2.9942  0.3498
14971TIP3    H266405   5.371   2.113   3.822  0.8754  0.1483  1.6942
14972TIP3   OH266406   5.312   3.125   3.404 -0.2747 -0.4383  0.1275
14972TIP3    H166407   5.317   3.199   3.465 -1.3662 -0.9173  0.8027
14972TIP3    H266408   5.398   3.124   3.362 -0.0523  0.8688  0.5182
14973TIP3   OH266409   0.438   5.763   3.503 -0.5128  0.0181 -0.7597
14973TIP3    H166410   0.431   5.712   3.422  0.1165 -0.1910 -0.6851
14973TIP3    H266411   0.517   5.815   3.492 -1.9120  2.0504 -1.4254
14974TIP3   OH266412   5.895   5.021  13.775  0.5678  0.2105 -0.3601
14974TIP3    H166413   5.931   5.095  13.824  1.0674 -0.2781  0.0271
14974TIP3    H266414   5.834   4.980  13.836 -0.6718  1.0487 -1.0262
14975TIP3   OH266415   3.915   4.362   5.931  0.1623  0.6396  0.4852
14975TIP3    H166416   3.978   4.421   5.973  0.7685  0.3360  0.0046
14975TIP3    H266417   3.963   4.324   5.857 -0.6151  0.4815  0.0572
14976TIP3   OH266418   3.068   5.825  17.203  0.3236  0.2059 -0.0944
14976TIP3    H166419   3.130   5.829  17.277 -0.7299  1.4457  0.7461
14976TIP3    H266420   3.078   5.910  17.159  0.2416 -0.1520 -0.8043
14977TIP3   OH266421   4.030   5.031   0.227 -0.3440  0.1978  1.7086
14977TIP3    H166422   4.048   4.961   0.289  2.0216  0.3331  1.2297
14977TIP3    H266423   3.996   5.103   0.281 -0.8209 -0.5939  2.4699
14978TIP3   OH266424   3.781   4.440   0.620 -0.5680  0.4192  0.3553
14978TIP3    H166425   3.720   4.489   0.565  0.6450  0.7236 -0.7317
14978TIP3    H266426   3.730   4.417   0.698 -2.7738 -1.3397 -1.5339
14979TIP3   OH266427   2.129   3.352   0.204  0.3327  0.1326  0.1359
14979TIP3    H166428   2.153   3.341   0.296 -1.3144  0.0761  0.5798
14979TIP3    H266429   2.067   3.282   0.187 -0.2933  0.8735 -0.6769
14980TIP3   OH266430   1.861   0.333   5.793  0.0144  0.0603 -0.0680
14980TIP3    H166431   1.824   0.323   5.881 -3.1974 -1.9414 -1.5595
14980TIP3    H266432   1.888   0.425   5.789 -0.8507  0.4711  2.6130
14981TIP3   OH266433   5.353   6.603   5.387  0.7513  0.1426 -0.2916
14981TIP3    H166434   5.366   6.598   5.481  2.1553 -2.4425 -0.5574
14981TIP3    H266435   5.375   6.515   5.355  1.0750  1.1764 -3.1080
14982TIP3   OH266436   4.353   3.936   0.509  0.3672  0.1912 -0.1383
14982TIP3    H166437   4.427   3.929   0.569  0.2760 -0.9436 -0.1480
14982TIP3    H266438   4.283   3.886   0.551 -1.2669  3.4514  1.1516
14983TIP3   OH266439   4.585   5.333   6.503  0.6131 -0.0376 -0.2814
14983TIP3    H166440   4.542   5.300   6.424  0.8823 -0.2706 -0.3321
14983TIP3    H266441   4.656   5.388   6.470 -1.0624  2.2525 -0.2048
14984TIP3   OH266442   1.739   3.853   4.066 -0.1830  0.6114 -0.0492
14984TIP3    H166443   1.779   3.867   4.152 -0.5496  0.6988  0.1072
14984TIP3    H266444   1.664   3.912   4.065 -0.3640  0.3769 -0.3063
14985TIP3   OH266445   6.137   1.449   1.245 -0.1336  0.3173 -0.0619
14985TIP3    H166446   6.230   1.431   1.258 -0.3039 -0.0823  0.6113
14985TIP3    H266447   6.129   1.543   1.260 -0.0073  0.1836  0.8758
14986TIP3   OH266448   1.259   1.231  12.012 -0.2590  0.0413 -0.2115
14986TIP3    H166449   1.292   1.301  11.955 -0.7576  0.0896 -0.4442
14986TIP3    H266450   1.321   1.228  12.084  0.5905 -0.2626 -0.9365
14987TIP3   OH266451   3.875   2.983  17.183 -0.5913  0.2256  0.2901
14987TIP3    H166452   3.970   2.976  17.193 -0.5356  0.3390 -0.1577
14987TIP3    H266453   3.848   2.899  17.147 -0.1891  1.4666 -3.0608
14988TIP3   OH266454   2.738   0.828   1.115  0.4963  0.6740 -0.3023
14988TIP3    H166455   2.796   0.777   1.172 -0.4733 -0.3846 -0.2552
14988TIP3    H266456   2.790   0.905   1.091  1.4849  0.3347  0.7180
14989TIP3   OH266457   5.219   1.764   3.998  0.0479 -0.2194 -0.4255
14989TIP3    H166458   5.206   1.825   4.071  0.6098 -1.5520  0.8121
14989TIP3    H266459   5.263   1.816   3.931 -1.0684  1.1980 -0.0853
14990TIP3   OH266460   6.196   1.372   1.978 -0.8543  0.0592  0.1372
14990TIP3    H166461   6.181   1.308   1.908 -2.2939 -0.0097  0.5029
14990TIP3    H266462   6.287   1.399   1.966  0.1148 -2.8470  0.6095
14991TIP3   OH266463   6.801   2.989  15.254 -0.4434  0.5523  0.4920
14991TIP3    H166464   6.878   2.941  15.285 -0.9700  0.4160  1.6174
14991TIP3    H266465   6.770   2.938  15.180 -0.4397 -0.3370  1.0867
14992TIP3   OH266466   0.513   2.365  12.208  0.2329  0.5940  0.2003
14992TIP3    H166467   0.596   2.410  12.195  1.2806 -1.3179  0.1190
14992TIP3    H266468   0.530   2.303  12.280 -0.4295 -1.4283 -1.3418
14993TIP3   OH266469   6.575   2.008   3.940  0.5592 -0.1054  0.4123
14993TIP3    H166470   6.500   2.068   3.946  0.5296 -0.0217 -0.7068
14993TIP3    H266471   6.559   1.958   3.860  0.9102 -1.1743  1.0063
14994TIP3   OH266472   2.730   2.446   0.987  0.4718  0.5485  0.2714
14994TIP3    H166473   2.758   2.450   0.895 -1.4564  0.2702 -0.3430
14994TIP3    H266474   2.652   2.500   0.991  0.2721  0.1772  1.6605
14995TIP3   OH266475   0.116   3.739   4.303 -0.4692  0.1094  0.4140
14995TIP3    H166476   0.205   3.767   4.281 -0.5084 -0.8130 -0.9862
14995TIP3    H266477   0.122   3.714   4.395  1.3043 -2.0687 -0.2369
14996TIP3   OH266478   3.120   2.982   5.018 -0.1352 -0.1955 -0.1453
14996TIP3    H166479   3.152   2.969   4.929 -0.6655 -2.9591  0.0196
14996TIP3    H266480   3.028   2.954   5.016  0.3598 -2.1254  1.6510
14997TIP3   OH266481   5.551   2.446   3.627  0.1912  0.6464  0.1755
14997TIP3    H166482   5.614   2.473   3.560 -0.6155 -1.0259 -1.2881
14997TIP3    H266483   5.601   2.388   3.684  0.7415  1.6531  0.7330
14998TIP3   OH266484   6.142   4.099   4.182  1.4459  0.0051  0.0014
14998TIP3    H166485   6.119   4.093   4.089  1.1623  0.6841  0.0260
14998TIP3    H266486   6.090   4.031   4.224  0.6945  0.4760 -0.1693
14999TIP3   OH266487   0.545   3.123   0.280  0.5562  0.0073  0.3284
14999TIP3    H166488   0.519   3.159   0.365 -0.7825  2.5820 -1.1181
14999TIP3    H266489   0.477   3.058   0.260 -0.1634  0.7398  0.3740
15000TIP3   OH266490   4.807   0.546   1.130 -0.3401  0.2019 -0.2551
15000TIP3    H166491   4.836   0.459   1.102  0.3391  0.8719 -1.6417
15000TIP3    H266492   4.775   0.532   1.219  0.8546 -1.2567 -0.0232
15001TIP3   OH266493   4.415   5.868   2.538 -0.1572 -0.7509 -0.3745
15001TIP3    H166494   4.422   5.962   2.549  0.3433 -0.9545  1.0782
15001TIP3    H266495   4.462   5.831   2.612 -0.4373 -2.1468 -0.8727
15002TIP3   OH266496   1.184   0.600  17.190 -0.5105 -0.5114 -0.3351
15002TIP3    H166497   1.174   0.506  17.207  1.3736 -0.4984  1.0331
15002TIP3    H266498   1.114   0.641  17.240 -0.4442 -1.1075  0.2505
15003TIP3   OH266499   6.578   5.135   5.135 -0.4556  0.4093 -0.1767
15003TIP3    H166500   6.583   5.067   5.067 -0.4157  1.0856 -0.8487
15003TIP3    H266501   6.508   5.105   5.194 -0.7598  0.0283 -0.7341
15004TIP3   OH266502   3.845   2.533  10.743 -0.1516 -0.1374  0.1381
15004TIP3    H166503   3.765   2.518  10.693 -0.0494 -0.1811 -0.0160
15004TIP3    H266504   3.873   2.445  10.769 -0.1232 -0.1277  0.1409
15005TIP3   OH266505   3.104   1.781   1.612  0.0254 -0.0940 -0.4310
15005TIP3    H166506   3.112   1.855   1.551 -0.8638 -0.6463 -1.2275
15005TIP3    H266507   3.180   1.791   1.670  0.8082  0.5395 -1.5151
15006TIP3   OH266508   5.903   0.029  12.773  0.6039 -0.7360 -0.0006
15006TIP3    H166509   5.890   0.085  12.696  1.8895 -1.4961 -0.7961
15006TIP3    H266510   5.992  -0.005  12.762  0.5272 -1.4177  1.4632
15007TIP3   OH266511   5.833   5.511   0.442  0.6532  0.2904 -0.3696
15007TIP3    H166512   5.798   5.561   0.515  1.1574 -0.5174  0.4413
15007TIP3    H266513   5.859   5.577   0.377  1.1433  1.0646  0.6047
15008TIP3   OH266514   4.675   3.859   2.180 -0.0878 -0.2209  0.4276
15008TIP3    H166515   4.582   3.844   2.162 -0.0334 -0.5860  0.4411
15008TIP3    H266516   4.720   3.824   2.103  0.0083  0.4021  0.2056
15009TIP3   OH266517   4.927   5.001   1.944 -0.8246  0.0169 -0.4894
15009TIP3    H166518   4.964   5.039   2.023 -0.3175 -1.2228 -0.1116
15009TIP3    H266519   4.876   4.926   1.975 -1.3490  0.0589 -1.2489
15010TIP3   OH266520   2.081   3.152  11.443  1.0154 -0.0781  0.1373
15010TIP3    H166521   2.019   3.199  11.387  0.0305  0.1429  1.3838
15010TIP3    H266522   2.153   3.127  11.384 -0.1004 -0.0597 -1.2589
15011TIP3   OH266523   3.910   1.245   4.869  0.7134 -0.1805  0.2530
15011TIP3    H166524   3.891   1.333   4.836  2.1086  0.0199 -0.0395
15011TIP3    H266525   3.933   1.258   4.961  1.8760 -0.1024 -0.0357
15012TIP3   OH266526   2.641   4.749   6.295  0.4656  0.4537 -0.3827
15012TIP3    H166527   2.556   4.790   6.311  1.5617  2.3155  0.8937
15012TIP3    H266528   2.629   4.697   6.215 -1.4627  1.8263 -0.9999
15013TIP3   OH266529   6.757   4.028  11.606  0.2839 -0.0582  0.0041
15013TIP3    H166530   6.756   3.943  11.562  0.6212 -0.1507  0.1667
15013TIP3    H266531   6.671   4.036  11.646 -0.1210  0.1461 -0.8943
15014TIP3   OH266532   4.598   5.142   6.245 -0.6994  0.1111  0.0141
15014TIP3    H166533   4.692   5.148   6.258 -0.6755 -0.3118  0.0521
15014TIP3    H266534   4.576   5.214   6.187 -0.3906  0.3705  0.2192
15015TIP3   OH266535   5.976   2.537  17.270 -0.2741  0.2100  0.1997
15015TIP3    H166536   5.939   2.456  17.235 -0.2779  0.1537  0.3316
15015TIP3    H266537   5.930   2.551  17.353 -0.9025  0.8276 -0.2480
15016TIP3   OH266538   5.081   3.275   2.043 -0.5938  0.1504 -0.7626
15016TIP3    H166539   4.985   3.276   2.049 -0.8497  1.8063 -3.8648
15016TIP3    H266540   5.104   3.182   2.041 -1.8898 -0.2950  2.3674
15017TIP3   OH266541   6.293   5.503  15.595  0.0430  0.2324  0.0190
15017TIP3    H166542   6.295   5.491  15.500 -1.3261 -0.5272  0.0755
15017TIP3    H266543   6.212   5.461  15.623  1.7139 -1.8614  1.8577
15018TIP3   OH266544   0.416   1.571   5.744  0.4980  0.0743 -0.5078
15018TIP3    H166545   0.424   1.555   5.838 -3.0992 -1.4115 -0.3876
15018TIP3    H266546   0.473   1.505   5.704  0.6819 -0.4446  0.5839
15019TIP3   OH266547   3.387   1.322  12.008 -0.0435  0.4341 -0.0121
15019TIP3    H166548   3.463   1.379  12.003  0.7289 -0.4519  1.2050
15019TIP3    H266549   3.372   1.293  11.918  1.5597 -0.0286 -0.1468
15020TIP3   OH266550   2.878   1.284  16.938 -0.1299 -0.0856 -0.0746
15020TIP3    H166551   2.909   1.194  16.948 -0.2479 -0.1000  0.1599
15020TIP3    H266552   2.792   1.285  16.980 -0.0327  0.1931  0.1178
15021TIP3   OH266553   3.229   6.450   0.585 -0.0005  0.7829  0.2004
15021TIP3    H166554   3.308   6.482   0.543  0.4512 -0.6740 -0.1018
15021TIP3    H266555   3.161   6.460   0.518  0.7175 -1.5518 -0.9606
15022TIP3   OH266556   2.362   4.559  13.150  0.2096 -0.7632  0.4940
15022TIP3    H166557   2.413   4.535  13.072  0.1301 -0.6708  0.4126
15022TIP3    H266558   2.291   4.495  13.152 -0.1525 -0.3767  0.1275
15023TIP3   OH266559   2.367   3.843   0.973  0.1725 -0.4634  0.0285
15023TIP3    H166560   2.286   3.874   1.012 -0.5148 -1.6015 -0.4753
15023TIP3    H266561   2.395   3.771   1.030  0.4022 -0.6081 -0.2654
15024TIP3   OH266562   2.758   1.186  15.875  0.0294 -0.4091 -0.5863
15024TIP3    H166563   2.712   1.109  15.840  0.6611 -0.4023 -1.4669
15024TIP3    H266564   2.815   1.151  15.943  0.2720 -0.7161 -0.9430
15025TIP3   OH266565   4.075   3.054  16.401  0.4223 -0.0248 -0.2899
15025TIP3    H166566   4.002   2.992  16.408  1.7489 -1.5077  0.6414
15025TIP3    H266567   4.130   3.019  16.331  1.2150  0.0625  0.2842
15026TIP3   OH266568   0.691   2.066   4.733 -0.2525  0.0037 -0.5376
15026TIP3    H166569   0.623   2.113   4.684 -1.0537 -1.2644 -0.6468
15026TIP3    H266570   0.773   2.105   4.703 -0.7838 -0.1332 -2.2236
15027TIP3   OH266571   4.491   6.746   2.059  0.2159 -0.5106 -0.5237
15027TIP3    H166572   4.438   6.689   2.003 -1.4824 -0.0976  0.6313
15027TIP3    H266573   4.582   6.719   2.041 -0.4385 -2.1774 -1.4943
15028TIP3   OH266574   1.682   1.781   3.365 -0.5827 -0.3217 -0.1822
15028TIP3    H166575   1.757   1.723   3.377  0.5806  1.3527  0.8945
15028TIP3    H266576   1.671   1.787   3.270 -0.5325 -2.0466 -0.3039
15029TIP3   OH266577   6.062   2.308  14.679  0.4516  0.1084 -0.2178
15029TIP3    H166578   6.032   2.396  14.655  0.0105 -0.1662 -0.6894
15029TIP3    H266579   6.152   2.321  14.708  0.1917  0.8043  0.3040
15030TIP3   OH266580   5.475   2.764   4.070  0.3719 -0.2506  0.4232
15030TIP3    H166581   5.554   2.738   4.024  0.5260 -0.4773  0.8146
15030TIP3    H266582   5.503   2.835   4.128  0.3719 -0.5913  0.8451
15031TIP3   OH266583   5.514   6.357  14.540  0.0421  0.3093 -0.0059
15031TIP3    H166584   5.572   6.305  14.596 -1.4163 -1.6761 -0.2492
15031TIP3    H266585   5.485   6.429  14.595  0.3007 -0.4335  1.1114
15032TIP3   OH266586   4.097   3.844   6.407 -0.5564  0.1177 -1.1133
15032TIP3    H166587   4.143   3.879   6.331 -1.7756 -0.8747 -2.3281
15032TIP3    H266588   4.019   3.803   6.371 -0.4485 -1.5985  0.5455
15033TIP3   OH266589   0.111   6.066   3.807 -0.2712  0.2902 -0.4087
15033TIP3    H166590   0.130   5.972   3.813 -0.6695  0.2162 -0.3457
15033TIP3    H266591   0.195   6.105   3.783 -0.4331 -0.2275 -1.8227
15034TIP3   OH266592   3.679   3.031   2.762 -0.5320  0.1655  0.0173
15034TIP3    H166593   3.599   2.977   2.758  0.1260 -0.8246  0.0701
15034TIP3    H266594   3.671   3.090   2.687 -1.0206 -0.3432 -0.3415
15035TIP3   OH266595   1.746   1.219  12.561 -0.4403 -0.2125  0.2518
15035TIP3    H166596   1.837   1.248  12.574  0.3566 -2.9258  1.1177
15035TIP3    H266597   1.736   1.216  12.466  0.4114  0.0759  0.1428
15036TIP3   OH266598   5.749   1.436  14.168 -0.7504  0.8434 -0.3673
15036TIP3    H166599   5.787   1.417  14.082  1.6724 -0.4428  0.9303
15036TIP3    H266600   5.809   1.500  14.206 -2.5742  2.4629 -0.1520
15037TIP3   OH266601   2.207   0.419  16.706  0.1973 -0.4079 -0.0020
15037TIP3    H166602   2.182   0.329  16.685 -0.5419  0.1384 -1.5354
15037TIP3    H266603   2.150   0.443  16.780 -0.0275 -0.9849  0.0121
15038TIP3   OH266604   5.441   1.686   3.181  0.0009  0.5340 -0.0728
15038TIP3    H166605   5.373   1.627   3.214  1.1783 -2.2750 -2.4204
15038TIP3    H266606   5.522   1.636   3.190  1.0462  1.7534 -2.1887
15039TIP3   OH266607   4.271   5.347  14.922  0.4852  0.2034 -0.5309
15039TIP3    H166608   4.256   5.381  14.834  2.3800  0.3235 -0.8273
15039TIP3    H266609   4.208   5.276  14.932 -1.3563  1.7167 -1.0904
15040TIP3   OH266610   4.367   1.970   5.381 -0.4324 -0.6402 -0.9516
15040TIP3    H166611   4.349   2.044   5.323 -0.0743 -1.5632 -2.2803
15040TIP3    H266612   4.316   1.898   5.344  0.2992 -1.4015 -0.5052
15041TIP3   OH266613   2.982   1.265   5.624  0.4489 -0.1673  0.0372
15041TIP3    H166614   2.981   1.188   5.567 -0.8125 -0.9358  1.0890
15041TIP3    H266615   3.074   1.291   5.626  0.4746  0.1819 -2.7392
15042TIP3   OH266616   2.399   4.070  15.072  0.2782 -0.2645  0.2940
15042TIP3    H166617   2.319   4.018  15.079  0.7348 -1.0837 -0.3820
15042TIP3    H266618   2.408   4.113  15.157  0.8062 -2.6693  1.5126
15043TIP3   OH266619   2.379   2.963  14.841  0.5871  0.8144 -0.5543
15043TIP3    H166620   2.454   2.914  14.808 -1.2889 -3.0967  0.8048
15043TIP3    H266621   2.382   2.952  14.936 -1.7785  0.4822 -0.4805
15044TIP3   OH266622   3.704   3.641  12.330  0.1945 -0.4355  0.6662
15044TIP3    H166623   3.622   3.692  12.331  0.1676 -0.4415 -0.2027
15044TIP3    H266624   3.736   3.645  12.419  0.4281  1.5113  0.5165
15045TIP3   OH266625   5.446   6.063  17.287  0.8177  0.3093  0.4767
15045TIP3    H166626   5.523   6.012  17.312  0.5323 -0.1263  0.4823
15045TIP3    H266627   5.372   6.013  17.322  0.1952 -1.8963 -3.6081
15046TIP3   OH266628   6.166   5.200  15.241 -0.3901 -0.1996  0.0546
15046TIP3    H166629   6.082   5.188  15.286 -1.2459 -0.3147 -1.5406
15046TIP3    H266630   6.166   5.135  15.172  2.1561 -1.9280  1.5937
15047TIP3   OH266631   5.218   1.784   5.918  0.0557  0.2768  0.0377
15047TIP3    H166632   5.191   1.857   5.862 -1.9168 -0.6276 -0.2048
15047TIP3    H266633   5.258   1.721   5.857  0.2492  0.4217  0.0144
15048TIP3   OH266634   5.670   0.266   2.037 -0.5940  0.3235 -0.0970
15048TIP3    H166635   5.713   0.347   2.064 -0.8608  0.8723 -1.2671
15048TIP3    H266636   5.598   0.295   1.981  1.3864 -0.7912 -3.4378
15049TIP3   OH266637   6.075   0.544   1.693 -0.2429 -0.2230  0.3971
15049TIP3    H166638   6.170   0.547   1.710 -0.4951 -0.2471  1.9059
15049TIP3    H266639   6.041   0.622   1.737 -0.8847 -0.0621 -0.3964
15050TIP3   OH266640   3.104   0.743   4.320 -0.2294  0.3886  0.4870
15050TIP3    H166641   3.171   0.810   4.311 -3.0302  3.7393  3.0898
15050TIP3    H266642   3.127   0.697   4.401 -1.6386  2.3238  2.0276
15051TIP3   OH266643   1.254   2.569  16.149 -0.3684 -0.6588  0.1300
15051TIP3    H166644   1.270   2.475  16.152  0.4611 -0.4865  1.7950
15051TIP3    H266645   1.194   2.581  16.075  0.0605 -2.4003 -0.5209
15052TIP3   OH266646   0.853   2.382  12.486 -0.2137  0.3012  0.2586
15052TIP3    H166647   0.795   2.427  12.547  2.1672  0.1818  2.7215
15052TIP3    H266648   0.828   2.290  12.491  0.9466  0.0712  2.2553
15053TIP3   OH266649   2.501   1.627  13.393  0.0547 -0.6560 -0.3711
15053TIP3    H166650   2.570   1.683  13.358 -0.2888 -0.0249 -0.0603
15053TIP3    H266651   2.421   1.680  13.385 -0.0807 -0.6124  1.0601
15054TIP3   OH266652   3.020   0.625   3.760  0.0140  0.2063 -0.3467
15054TIP3    H166653   3.083   0.693   3.781  0.4623 -0.2219 -0.2995
15054TIP3    H266654   2.936   0.670   3.756  0.2290  0.6593  0.2400
15055TIP3   OH266655   1.424   6.262  16.385 -0.5054 -0.5992  0.5046
15055TIP3    H166656   1.399   6.177  16.348  0.0855 -0.5015 -0.1338
15055TIP3    H266657   1.519   6.264  16.378 -0.5333  0.2272  0.2615
15056TIP3   OH266658   6.256   4.658  15.170 -0.0939  0.1062 -0.3550
15056TIP3    H166659   6.165   4.649  15.139 -0.2275 -1.3564  0.4191
15056TIP3    H266660   6.249   4.647  15.265  0.9595 -0.5215 -0.3499
15057TIP3   OH266661   5.407   3.984  12.314  0.5574  0.2212 -0.0866
15057TIP3    H166662   5.485   3.987  12.370 -0.2095  0.5188  0.9740
15057TIP3    H266663   5.342   3.937  12.366  0.3054 -0.8392 -1.3312
15058TIP3   OH266664   5.485   3.395  15.964  0.0994  0.1152  0.1143
15058TIP3    H166665   5.429   3.412  15.889  0.3239  1.7984  0.3141
15058TIP3    H266666   5.453   3.312  16.000 -0.5395 -0.2734 -1.3401
15059TIP3   OH266667   6.310   2.625   2.914 -0.2551 -0.2923 -0.9095
15059TIP3    H166668   6.260   2.543   2.914 -1.3742  0.3438  1.1076
15059TIP3    H266669   6.308   2.654   3.005  1.8009  0.9939 -1.2326
15060TIP3   OH266670   2.584   5.556   6.053 -0.0696  0.0877 -0.2705
15060TIP3    H166671   2.596   5.541   5.960 -2.5537 -1.2223 -0.4310
15060TIP3    H266672   2.505   5.610   6.058  0.3393  0.5855  1.0598
15061TIP3   OH266673   0.020   3.967   3.613 -0.4672  0.0062 -0.4039
15061TIP3    H166674  -0.052   3.980   3.550 -0.1868 -1.5367 -1.0535
15061TIP3    H266675   0.075   3.901   3.572 -0.5023 -1.3271  1.6890
15062TIP3   OH266676   2.680   3.765   1.560 -0.0462 -0.6710  0.7905
15062TIP3    H166677   2.748   3.795   1.499  1.7255 -1.1712  2.4480
15062TIP3    H266678   2.607   3.825   1.546  1.5867  1.3536  0.5625
15063TIP3   OH266679   1.039   5.860  13.895  0.0280 -0.2204  0.0697
15063TIP3    H166680   1.109   5.911  13.934 -0.0762 -0.9645  1.2506
15063TIP3    H266681   1.081   5.810  13.825  0.8282 -1.2755  1.3077
15064TIP3   OH266682   0.690   2.211   3.662  0.2274 -0.1188  0.0395
15064TIP3    H166683   0.747   2.145   3.701  1.0046 -0.7633 -2.1351
15064TIP3    H266684   0.689   2.283   3.725 -0.5299 -2.1189  2.3855
15065TIP3   OH266685   2.231   4.502  16.138  0.0577 -0.0062  1.1319
15065TIP3    H166686   2.302   4.542  16.088 -1.5712 -0.1289 -1.4008
15065TIP3    H266687   2.204   4.569  16.200  1.0106  0.7955  0.6847
15066TIP3   OH266688   6.135   5.027  12.251 -0.1597 -0.3901 -0.2634
15066TIP3    H166689   6.040   5.038  12.257 -0.0206 -0.6161  2.8383
15066TIP3    H266690   6.171   5.101  12.300  1.3487  0.8609 -3.1552
15067TIP3   OH266691   1.800   0.232  11.488  0.2947 -0.5166  0.3747
15067TIP3    H166692   1.726   0.175  11.509  0.0871  0.3083  1.9726
15067TIP3    H266693   1.783   0.313  11.537  0.8230  0.7465 -1.4749
15068TIP3   OH266694   4.143   5.904  12.242 -0.2101  0.7802 -0.4279
15068TIP3    H166695   4.142   5.972  12.309  0.7782 -0.5528  0.9883
15068TIP3    H266696   4.201   5.937  12.175 -0.2178  1.6040 -0.0317
15069TIP3   OH266697   0.491   6.490  15.014 -0.0602  0.3785 -0.1760
15069TIP3    H166698   0.464   6.399  15.008 -1.3438  0.7934 -1.0544
15069TIP3    H266699   0.410   6.540  14.999  0.8911  1.6681 -1.1768
15070TIP3   OH266700   6.022   4.883   3.534  0.1025  0.6919  0.2708
15070TIP3    H166701   6.109   4.869   3.571  0.7594 -0.5677 -1.6442
15070TIP3    H266702   5.988   4.795   3.517 -1.0764  1.1941 -0.0551
15071TIP3   OH266703   3.701   5.138   4.980 -0.2004 -0.6988  0.1646
15071TIP3    H166704   3.611   5.172   4.974  0.3081  0.6686  0.0970
15071TIP3    H266705   3.690   5.046   5.004 -1.5927  0.0632  2.7132
15072TIP3   OH266706   4.492   6.650  13.515  0.3089  0.1288 -0.5593
15072TIP3    H166707   4.556   6.720  13.515  0.3177  0.1230 -0.8170
15072TIP3    H266708   4.478   6.629  13.607 -0.0542  0.7970 -0.4572
15073TIP3   OH266709   6.362   2.366  12.368 -0.2346  0.4978 -0.4173
15073TIP3    H166710   6.290   2.325  12.416 -1.4499  2.2515 -0.6831
15073TIP3    H266711   6.378   2.309  12.293  0.6602 -1.4719  1.2255
15074TIP3   OH266712   3.837   5.837  14.663  0.3988  0.0321  0.3680
15074TIP3    H166713   3.831   5.751  14.621 -0.3897 -0.3712  1.3208
15074TIP3    H266714   3.928   5.841  14.695  0.3662 -0.5427  0.5390
15075TIP3   OH266715   5.099   1.867   4.478 -0.0935  0.0460  0.4005
15075TIP3    H166716   5.012   1.828   4.466  0.7072 -2.0505  1.1626
15075TIP3    H266717   5.089   1.923   4.555 -1.0963  0.8907 -0.3214
15076TIP3   OH266718   0.408   3.717   2.780 -0.1443 -0.1936  0.4201
15076TIP3    H166719   0.443   3.628   2.774  0.7780  0.1884  0.0624
15076TIP3    H266720   0.426   3.755   2.694 -3.1478 -0.5991 -0.4487
15077TIP3   OH266721   0.112   1.912   3.099 -0.1455  0.2799  0.1678
15077TIP3    H166722   0.150   1.958   3.024  1.2950  1.7359  1.7471
15077TIP3    H266723   0.062   1.979   3.144  1.1436  0.0844  1.9350
15078TIP3   OH266724   4.154   0.534   1.336  0.0237 -0.5328 -0.2333
15078TIP3    H166725   4.171   0.574   1.251  0.8096 -2.2923 -0.9206
15078TIP3    H266726   4.217   0.576   1.395 -0.9202  1.1220 -0.3503
15079TIP3   OH266727   6.302   5.331  16.128 -0.1890  0.2580  0.3348
15079TIP3    H166728   6.371   5.286  16.176 -0.3140 -1.3975 -1.0062
15079TIP3    H266729   6.343   5.411  16.095  1.5609 -1.4448 -1.7537
15080TIP3   OH266730   2.975   6.216   5.675 -0.0942  0.1015  0.4549
15080TIP3    H166731   2.888   6.216   5.715 -0.3916  0.9409 -0.1663
15080TIP3    H266732   2.959   6.203   5.582  0.4977 -0.4845  0.4347
15081TIP3   OH266733   2.246   2.058  11.444 -0.3856 -0.4839  0.2175
15081TIP3    H166734   2.210   2.132  11.394  1.2827  0.8696  0.9781
15081TIP3    H266735   2.266   1.992  11.377  0.1159  0.6004 -0.7358
15082TIP3   OH266736   5.274   1.529   3.333 -0.0236  0.3533 -0.6607
15082TIP3    H166737   5.221   1.560   3.406  1.4581 -0.7657  0.9417
15082TIP3    H266738   5.237   1.444   3.310 -0.5075  0.7175 -1.2576
15083TIP3   OH266739   1.971   3.691  16.465  0.2408  0.1305 -0.7126
15083TIP3    H166740   2.016   3.721  16.386 -0.8120  1.2045 -0.9070
15083TIP3    H266741   1.965   3.768  16.521  1.9349 -0.8596  0.8972
15084TIP3   OH266742   0.910   6.628   0.978 -0.0059  0.0343  0.3988
15084TIP3    H166743   0.981   6.633   1.043  0.7951 -2.1868 -0.2503
15084TIP3    H266744   0.840   6.581   1.024  0.8812 -2.3007 -0.5768
15085TIP3   OH266745   0.120   4.370  13.188  0.5982  0.5198  0.1167
15085TIP3    H166746   0.119   4.411  13.102  2.8020  1.0270  0.3069
15085TIP3    H266747   0.143   4.278  13.170 -0.6137  0.2292  0.0250
15086TIP3   OH266748   4.514   5.609   2.101  0.3446 -0.4896  0.1142
15086TIP3    H166749   4.486   5.693   2.136  1.8220  0.5779 -1.1806
15086TIP3    H266750   4.433   5.562   2.082 -0.4827  0.1709  1.9148
15087TIP3   OH266751   4.336   0.442  15.295  0.0185  0.7999  0.0214
15087TIP3    H166752   4.253   0.484  15.275  0.3320  1.3866 -0.0315
15087TIP3    H266753   4.326   0.411  15.385  0.3946  2.4473  0.6343
15088TIP3   OH266754   6.037   5.768   1.503  0.1877 -0.4213 -0.3177
15088TIP3    H166755   6.054   5.862   1.498 -0.2090 -0.3097  0.4727
15088TIP3    H266756   5.957   5.760   1.554 -0.0417 -1.1643 -0.7811
15089TIP3   OH266757   2.893   6.721  16.530  0.4261 -0.3693 -0.7318
15089TIP3    H166758   2.834   6.659  16.573  0.4794  0.7693  0.9970
15089TIP3    H266759   2.888   6.800  16.583  3.3627 -0.1845 -0.6760
15090TIP3   OH266760   5.186   5.003   5.180 -0.2157  0.3545  0.2562
15090TIP3    H166761   5.198   5.041   5.267 -0.6784  0.7162  0.1637
15090TIP3    H266762   5.118   4.937   5.192 -1.8547  1.8908 -0.2468
15091TIP3   OH266763   0.215   3.337   2.521 -0.1093  0.3613 -0.3077
15091TIP3    H166764   0.199   3.425   2.488  0.6361  0.7289  0.2959
15091TIP3    H266765   0.139   3.287   2.492  0.7819  0.5134 -3.0860
15092TIP3   OH266766   6.602   1.976   2.043  0.3261  0.0955  0.7951
15092TIP3    H166767   6.615   1.907   2.108  0.2591 -0.9408 -0.2734
15092TIP3    H266768   6.509   1.970   2.020  0.5668 -0.1621 -0.0952
15093TIP3   OH266769   1.141   5.227   2.110  0.3670 -0.2628 -0.3011
15093TIP3    H166770   1.159   5.163   2.179 -0.7616 -0.1066  0.1532
15093TIP3    H266771   1.225   5.240   2.066  1.5530  1.1001  2.2817
15094TIP3   OH266772   0.797   1.536   4.944  0.3342  0.1761 -0.0251
15094TIP3    H166773   0.753   1.554   5.027  2.4334  0.0242  1.1385
15094TIP3    H266774   0.842   1.617   4.922  1.1741 -0.3099 -0.1318
15095TIP3   OH266775   5.232   2.286   5.002  0.1212 -0.0135 -0.1821
15095TIP3    H166776   5.159   2.230   5.027 -0.0231  0.5261  0.6180
15095TIP3    H266777   5.292   2.282   5.076  0.9516 -0.5213 -0.8714
15096TIP3   OH266778   0.163   4.112  12.006 -0.1110  0.4489  0.7778
15096TIP3    H166779   0.071   4.088  11.992  0.2012 -0.3054 -0.0767
15096TIP3    H266780   0.209   4.071  11.932  0.5084  3.4129 -0.5629
15097TIP3   OH266781   1.474   0.473   5.103  1.0067  0.1156  0.2793
15097TIP3    H166782   1.505   0.382   5.109  1.2063  0.3088  2.2494
15097TIP3    H266783   1.477   0.506   5.192 -2.3275  1.0179  0.1163
15098TIP3   OH266784   0.297   1.906   1.030 -0.0205  0.4594  0.5524
15098TIP3    H166785   0.373   1.964   1.025  1.7073 -1.5712  2.0476
15098TIP3    H266786   0.309   1.843   0.959 -1.0240  0.9209 -0.0422
15099TIP3   OH266787   3.279   6.743   0.407  0.5300 -0.4527 -0.4289
15099TIP3    H166788   3.287   6.780   0.495 -0.9593  0.1751 -0.5398
15099TIP3    H266789   3.185   6.740   0.391  0.7418 -1.7968 -1.4948
15100TIP3   OH266790   2.507   2.486   1.394  0.1754  0.4432  0.4682
15100TIP3    H166791   2.540   2.574   1.381 -0.3590  0.6716  0.6358
15100TIP3    H266792   2.584   2.433   1.412  0.5991  0.6967 -0.5818
15101TIP3   OH266793   6.595   5.392  11.056  0.1668 -0.2481  0.0977
15101TIP3    H166794   6.666   5.337  11.024 -0.2003 -0.1201 -0.9479
15101TIP3    H266795   6.611   5.477  11.017 -0.5816 -0.2277 -0.1639
15102TIP3   OH266796   0.057   2.321  12.685  0.5932  0.4000  0.8680
15102TIP3    H166797   0.100   2.385  12.742  1.5460  0.6099 -0.0852
15102TIP3    H266798   0.043   2.367  12.602  0.6117 -0.3911  0.4200
15103TIP3   OH266799   5.633   2.265  11.054 -0.0096  0.0928 -0.1824
15103TIP3    H166800   5.651   2.339  10.995 -1.3707  0.9741  0.4761
15103TIP3    H266801   5.542   2.241  11.035 -0.4310  0.3260  1.4907
15104TIP3   OH266802   3.191   3.696  11.544  0.1653 -0.1496 -0.0741
15104TIP3    H166803   3.111   3.647  11.526  0.4623 -0.8839  0.6098
15104TIP3    H266804   3.175   3.739  11.628  0.5493 -0.4233  0.1382
15105TIP3   OH266805   3.711   3.477  14.159  0.1749 -0.3500  0.5300
15105TIP3    H166806   3.690   3.389  14.129  0.2410  0.0514 -0.7429
15105TIP3    H266807   3.739   3.466  14.250 -1.2675 -1.4409  0.8476
15106TIP3   OH266808   3.931   5.634   4.316  0.2277 -0.1749 -0.5919
15106TIP3    H166809   3.867   5.685   4.366  1.7692 -1.5724  2.9440
15106TIP3    H266810   3.878   5.571   4.267 -1.2253  0.1364  0.5446
15107TIP3   OH266811   6.438   1.614   6.099  0.0270  0.0358 -0.0284
15107TIP3    H166812   6.368   1.549   6.098 -1.1430  1.2812 -0.3153
15107TIP3    H266813   6.482   1.601   6.183 -1.3421  0.0630  0.6987
15108TIP3   OH266814   0.876   1.981   1.318 -0.2045 -1.1919 -0.0658
15108TIP3    H166815   0.797   2.023   1.354 -1.0236 -0.3057 -2.7941
15108TIP3    H266816   0.947   2.043   1.339 -0.3848 -1.4362  1.3616
15109TIP3   OH266817   6.177   6.060  14.974  0.1211 -0.3280 -0.1881
15109TIP3    H166818   6.164   5.994  15.043  1.8109 -1.9870 -1.4168
15109TIP3    H266819   6.250   6.114  15.005 -0.5279  0.2839  0.2955
15110TIP3   OH266820   6.344   1.662  12.654  0.1190  0.4159  0.1677
15110TIP3    H166821   6.417   1.608  12.685  0.2803  0.5550  0.0329
15110TIP3    H266822   6.282   1.662  12.727  0.1427  0.0920  0.1880
15111TIP3   OH266823   5.774   2.638   1.769 -0.4199 -0.5860  0.2128
15111TIP3    H166824   5.703   2.594   1.815 -1.0855 -0.1026 -0.3333
15111TIP3    H266825   5.815   2.570   1.716 -0.4187 -0.8866  0.6034
15112TIP3   OH266826   6.391   6.140   4.866  0.0973  0.0132 -0.0426
15112TIP3    H166827   6.427   6.118   4.779 -0.1879 -0.3332 -0.0730
15112TIP3    H266828   6.299   6.115   4.861 -0.0067  0.3343  0.2429
15113TIP3   OH266829   0.772   3.860  13.624 -0.3598  0.0862 -0.0395
15113TIP3    H166830   0.760   3.949  13.657 -0.7476  0.3641 -0.9355
15113TIP3    H266831   0.713   3.854  13.549  1.5099 -0.0852 -1.5460
15114TIP3   OH266832   6.261   4.166   3.247  0.2384  0.2257  0.3730
15114TIP3    H166833   6.246   4.260   3.258  1.1700  0.3428  0.7128
15114TIP3    H266834   6.291   4.136   3.333  0.0684 -0.3615  0.2323
15115TIP3   OH266835   2.472   0.652  14.651 -0.1840  0.5578  0.0894
15115TIP3    H166836   2.428   0.653  14.735  0.4538  0.3017  0.4311
15115TIP3    H266837   2.449   0.567  14.612  1.2046 -0.2244  0.9218
15116TIP3   OH266838   6.773   3.218   2.506 -0.1300  0.0635 -0.3031
15116TIP3    H166839   6.742   3.138   2.547  1.9452 -0.6296 -0.0515
15116TIP3    H266840   6.717   3.229   2.429 -0.6703 -1.4086 -0.1281
15117TIP3   OH266841   4.705   3.882   5.419  0.0057  0.2469 -0.0517
15117TIP3    H166842   4.754   3.859   5.499 -0.3303 -3.0270 -0.6935
15117TIP3    H266843   4.772   3.909   5.357  0.5735  0.0439  0.4628
15118TIP3   OH266844   1.082   5.789  16.619 -0.0876 -0.6102 -0.4469
15118TIP3    H166845   1.108   5.881  16.631  1.3943 -0.7111 -2.7351
15118TIP3    H266846   1.004   5.780  16.674 -1.6119  2.6464 -1.8768
15119TIP3   OH266847   0.044   2.755  16.003  0.3566 -0.1638 -0.3563
15119TIP3    H166848   0.075   2.818  15.937  1.9273  0.4259  0.9209
15119TIP3    H266849  -0.007   2.808  16.064 -0.9635 -0.6865 -0.9740
15120TIP3   OH266850   6.234   0.573  14.051 -0.5812  0.3285 -0.0461
15120TIP3    H166851   6.202   0.570  14.141  0.1257  2.1624  0.2785
15120TIP3    H266852   6.289   0.495  14.042 -0.0583  0.5297  1.3407
15121TIP3   OH266853   0.234   0.880   3.097  0.1236  0.5645  0.0314
15121TIP3    H166854   0.275   0.851   3.179 -0.7543 -1.3157 -0.1780
15121TIP3    H266855   0.307   0.892   3.036  0.3948 -3.2176 -0.4831
15122TIP3   OH266856   2.301   5.220  12.060  0.4821 -0.6327 -0.2562
15122TIP3    H166857   2.247   5.185  12.131  0.3241 -1.1001 -0.6053
15122TIP3    H266858   2.290   5.158  11.988  0.0232  0.2599 -0.9577
15123TIP3   OH266859   5.406   6.373   0.985 -0.5125 -0.0641  0.5541
15123TIP3    H166860   5.417   6.368   1.080  1.7066 -0.1372  0.3227
15123TIP3    H266861   5.415   6.466   0.965  1.8214 -0.3243  0.1595
15124TIP3   OH266862   1.246   2.191   3.795  0.3970 -0.7681 -0.4877
15124TIP3    H166863   1.284   2.266   3.841  2.4302 -2.2014  0.2190
15124TIP3    H266864   1.152   2.200   3.808  0.7852  0.2444  1.7832
15125TIP3   OH266865   3.020   0.393   5.414 -0.6105  0.3423 -0.5071
15125TIP3    H166866   3.006   0.298   5.406 -1.6373  0.2349  1.8853
15125TIP3    H266867   2.941   0.432   5.377 -0.4146  0.2374 -1.0319
15126TIP3   OH266868   2.064   3.210   2.780 -0.2404 -0.5955 -0.2232
15126TIP3    H166869   2.062   3.115   2.778  1.7033 -0.6701  0.5486
15126TIP3    H266870   2.040   3.232   2.870 -1.5374 -0.3097 -0.6262
15127TIP3   OH266871   2.019   6.566   1.565  0.2675 -0.5927 -0.2331
15127TIP3    H166872   1.925   6.585   1.567  0.1413 -0.8128 -2.4880
15127TIP3    H266873   2.025   6.471   1.562  0.6649 -0.6913  2.6967
15128TIP3   OH266874   1.673   1.263   3.460 -0.0664  0.3395 -0.3180
15128TIP3    H166875   1.580   1.241   3.472  0.0137 -0.2454 -0.7577
15128TIP3    H266876   1.719   1.181   3.476  0.4805  0.9217  1.1669
15129TIP3   OH266877   2.720   0.331  12.464  0.3431 -0.2991  0.5384
15129TIP3    H166878   2.733   0.239  12.440 -1.0832 -0.6051  0.9396
15129TIP3    H266879   2.681   0.328  12.552  0.0219  0.6829  0.4369
15130TIP3   OH266880   4.109   3.996  13.138 -0.2072  0.1786 -0.5760
15130TIP3    H166881   4.184   3.974  13.195 -0.5609 -1.2619 -0.6603
15130TIP3    H266882   4.149   4.017  13.054  0.0240 -1.8710 -0.9945
15131TIP3   OH266883   3.571   3.594  11.279  0.1116  0.4306  0.1643
15131TIP3    H166884   3.488   3.642  11.280  0.6338  1.3519 -0.0010
15131TIP3    H266885   3.553   3.516  11.227 -1.2017 -0.4039  1.7895
15132TIP3   OH266886   0.141   4.731   0.503  0.4542  0.4531  0.4496
15132TIP3    H166887   0.115   4.709   0.592  1.5899  0.5754  0.8249
15132TIP3    H266888   0.109   4.658   0.450  0.3981  0.0300  1.0640
15133TIP3   OH266889   1.381   5.994  16.483 -0.0787  0.3989 -0.1277
15133TIP3    H166890   1.438   6.054  16.530 -1.1601  0.5282  1.0573
15133TIP3    H266891   1.431   5.913  16.477 -0.0190  0.2872  1.5139
15134TIP3   OH266892   3.924   4.944  14.144 -0.2715  0.5665  0.0031
15134TIP3    H166893   3.946   4.931  14.052  0.6087 -0.0744  0.2976
15134TIP3    H266894   3.951   4.863  14.188 -0.6049  0.8917  0.8347
15135TIP3   OH266895   6.670   3.146   2.080 -0.3282 -0.3739 -0.4203
15135TIP3    H166896   6.694   3.114   1.993  0.7285 -1.0354  0.0951
15135TIP3    H266897   6.641   3.068   2.127 -0.0268 -0.1767  0.0961
15136TIP3   OH266898   1.211   6.479   0.728 -0.4477  0.0377 -0.4825
15136TIP3    H166899   1.144   6.412   0.746 -0.0525 -0.2162  0.0598
15136TIP3    H266900   1.164   6.546   0.679 -0.9458 -0.4534 -0.6930
15137TIP3   OH266901   4.679   3.979  14.071 -0.0861  0.6093 -0.5162
15137TIP3    H166902   4.770   3.949  14.070 -0.5486 -0.8615 -0.7835
15137TIP3    H266903   4.675   4.042  14.143  1.4009  1.5608 -1.2300
15138TIP3   OH266904   2.398   6.044  12.254 -0.3103  0.7026 -0.1405
15138TIP3    H166905   2.372   6.068  12.343  0.3837  2.3164 -0.3383
15138TIP3    H266906   2.353   6.108  12.199 -0.7722 -0.3219 -0.9495
15139TIP3   OH266907   1.928   0.058   1.059 -0.5935  0.6430  0.1503
15139TIP3    H166908   1.971  -0.021   1.090 -0.2752  0.3710 -0.9469
15139TIP3    H266909   2.000   0.119   1.041 -0.8112  1.0293  0.5758
15140TIP3   OH266910   3.677   1.171  15.949 -0.4343  0.3909 -0.1755
15140TIP3    H166911   3.626   1.246  15.920  1.1281  1.8738  0.8159
15140TIP3    H266912   3.749   1.209  15.999 -1.1239 -1.9080  2.6876
15141TIP3   OH266913   3.730   4.995  10.958 -0.3075 -0.3209  0.2849
15141TIP3    H166914   3.768   5.042  10.884  0.3536 -0.1396  0.7390
15141TIP3    H266915   3.801   4.989  11.022 -0.9540 -0.2528  1.0093
15142TIP3   OH266916   4.197   4.415  13.781 -0.5739  0.3887  0.2588
15142TIP3    H166917   4.232   4.473  13.713 -1.1103  0.8373  0.3630
15142TIP3    H266918   4.273   4.391  13.833 -0.3028  0.7587  0.0361
15143TIP3   OH266919   2.011   2.202   1.698 -0.2287  0.2322  0.2619
15143TIP3    H166920   1.976   2.254   1.771  0.2359  0.3916  0.3709
15143TIP3    H266921   2.051   2.267   1.640  1.8102 -0.1416  1.2045
15144TIP3   OH266922   5.855   5.732  17.233 -0.4844  0.1525 -1.1315
15144TIP3    H166923   5.943   5.767  17.246 -0.3661 -0.5482 -0.0528
15144TIP3    H266924   5.864   5.670  17.160  0.6168 -2.4279  1.1140
15145TIP3   OH266925   4.062   1.918   0.952  0.1092 -0.5267 -0.5346
15145TIP3    H166926   4.113   1.918   0.871  1.0280 -1.5542  0.0386
15145TIP3    H266927   4.016   2.002   0.951  2.4522  0.7857 -0.6572
15146TIP3   OH266928   1.870   3.961  13.860 -0.4412  0.4175 -0.4095
15146TIP3    H166929   1.866   4.048  13.900 -0.8843 -0.3824  1.3458
15146TIP3    H266930   1.952   3.960  13.812 -0.1623  1.6092  0.0303
15147TIP3   OH266931   5.652   6.753  14.589  0.0747  0.3703  0.1977
15147TIP3    H166932   5.594   6.771  14.515  0.3579  0.1275 -0.0864
15147TIP3    H266933   5.606   6.685  14.639  1.0143 -1.2352 -1.0955
15148TIP3   OH266934   0.932   6.085  15.110 -0.0579 -0.4670  0.3585
15148TIP3    H166935   0.923   6.148  15.039  0.3569  1.5097  2.0107
15148TIP3    H266936   0.858   6.026  15.099 -0.0870 -0.1064 -1.6108
15149TIP3   OH266937   0.507   0.632   0.707  0.1985 -0.3084  0.3247
15149TIP3    H166938   0.446   0.567   0.672  1.0107 -1.7274  1.4538
15149TIP3    H266939   0.591   0.585   0.713  0.4187  0.3026  2.7433
15150TIP3   OH266940   4.918   4.181  17.166  0.0967  0.5808 -0.7765
15150TIP3    H166941   4.990   4.143  17.217 -0.6057  0.3469  0.0513
15150TIP3    H266942   4.920   4.133  17.083 -0.7100 -1.2171  0.2148
15151TIP3   OH266943   0.790   2.765  11.264 -0.9275 -0.1077  0.4109
15151TIP3    H166944   0.767   2.805  11.181  1.2398 -2.2024 -1.2661
15151TIP3    H266945   0.860   2.821  11.299  0.0266 -0.7243 -0.4899
15152TIP3   OH266946   2.404   2.482   5.509 -0.5372 -0.5247  0.1768
15152TIP3    H166947   2.318   2.467   5.469 -0.9016 -1.6546  1.3381
15152TIP3    H266948   2.412   2.413   5.575 -0.4500  1.9487  2.8714
15153TIP3   OH266949   4.951   0.892  15.225 -0.3185 -0.2474 -0.1229
15153TIP3    H166950   5.035   0.925  15.256 -1.4322  2.8528 -0.1880
15153TIP3    H266951   4.958   0.797  15.231  3.1666 -0.0308 -0.1323
15154TIP3   OH266952   3.158   1.173   3.799 -0.5082  0.0904  0.7051
15154TIP3    H166953   3.239   1.224   3.805 -1.2208  1.4535 -0.9131
15154TIP3    H266954   3.174   1.110   3.730 -0.3891 -0.4614  1.2355
15155TIP3   OH266955   2.214   5.737   2.395 -0.0354  0.0205  0.5974
15155TIP3    H166956   2.184   5.810   2.341  0.6330 -0.6145 -0.6476
15155TIP3    H266957   2.134   5.705   2.437 -0.6698  0.1634 -0.4643
15156TIP3   OH266958   2.211   5.737   3.988  0.2371 -0.3531  0.2918
15156TIP3    H166959   2.294   5.784   3.977  0.7728 -1.4101 -0.2625
15156TIP3    H266960   2.169   5.780   4.063  0.2845  1.6043 -0.7879
15157TIP3   OH266961   0.520   5.403  14.752 -0.6373 -0.6143  0.1554
15157TIP3    H166962   0.568   5.463  14.695 -1.4961 -0.0411  0.0105
15157TIP3    H266963   0.432   5.400  14.714 -1.3767  0.2329  1.7736
15158TIP3   OH266964   5.773   3.870  15.965 -0.2505 -0.0818  0.1603
15158TIP3    H166965   5.849   3.884  15.909 -0.0021  0.5907  0.6645
15158TIP3    H266966   5.797   3.794  16.019 -0.3868 -0.5668 -0.4534
15159TIP3   OH266967   6.454   5.497  16.425 -0.3477 -0.5282 -0.8822
15159TIP3    H166968   6.471   5.413  16.468  0.1467  1.1622  2.4262
15159TIP3    H266969   6.541   5.538  16.419 -0.7313  0.2112 -1.4078
15160TIP3   OH266970   2.189   4.659  13.773  0.3490  0.2026 -0.0249
15160TIP3    H166971   2.237   4.742  13.771 -1.0248  1.0030  0.2932
15160TIP3    H266972   2.099   4.683  13.753  0.3065 -1.4716 -1.9964
15161TIP3   OH266973   3.133   0.090   3.515 -0.1002 -0.0376 -0.5545
15161TIP3    H166974   3.133   0.010   3.568 -0.0235 -0.6781 -1.4981
15161TIP3    H266975   3.157   0.160   3.576 -1.6741 -0.5050  0.6225
15162TIP3   OH266976   3.324   2.724   1.533 -0.5851  0.2075 -0.2851
15162TIP3    H166977   3.388   2.662   1.500 -0.0033  0.7031 -0.0985
15162TIP3    H266978   3.277   2.754   1.455 -2.4345 -2.1627 -0.1450
15163TIP3   OH266979   3.666   2.054   5.466  0.0016  0.3169 -0.0080
15163TIP3    H166980   3.704   2.135   5.498  0.9894 -0.4721  0.8563
15163TIP3    H266981   3.581   2.048   5.510 -1.0585  1.9812 -1.7922
15164TIP3   OH266982   2.061   1.276  12.972 -0.5887  0.0373 -0.0047
15164TIP3    H166983   2.117   1.247  13.044  0.7101  0.1377 -0.9328
15164TIP3    H266984   2.048   1.197  12.919  0.3070  0.4109 -0.8215
15165TIP3   OH266985   5.387   3.644  11.907  0.3160 -0.0720 -0.0317
15165TIP3    H166986   5.319   3.588  11.870 -0.3616  1.1054 -0.5972
15165TIP3    H266987   5.451   3.583  11.944 -0.2743 -1.2193 -0.8679
15166TIP3   OH266988   1.877   1.609   2.247  0.4420  0.0836  0.4669
15166TIP3    H166989   1.920   1.527   2.272  0.3676  0.3079  1.3524
15166TIP3    H266990   1.867   1.603   2.152  0.9214 -0.6984  0.4611
15167TIP3   OH266991   4.806   2.364  15.778  0.6312  0.5216  0.3109
15167TIP3    H166992   4.711   2.360  15.763  0.7554  0.8075 -0.5930
15167TIP3    H266993   4.844   2.331  15.697  1.3158  0.6738  0.5714
15168TIP3   OH266994   4.537   1.094   4.618 -0.5974  0.5986 -0.2238
15168TIP3    H166995   4.473   1.027   4.640  0.8846 -0.4008  1.1259
15168TIP3    H266996   4.591   1.103   4.697  0.5998  1.7889 -1.1488
15169TIP3   OH266997   3.967   5.897  12.009 -0.3130 -0.5495 -0.5560
15169TIP3    H166998   4.032   5.832  11.980  0.8750  0.5497 -0.4287
15169TIP3    H266999   3.998   5.924  12.096  0.4848  1.7921 -1.5205
15170TIP3   OH267000   3.729   4.716  11.587 -0.3493  0.3538  0.4598
15170TIP3    H167001   3.687   4.630  11.589  1.2559 -0.5093 -1.3927
15170TIP3    H267002   3.688   4.761  11.513 -1.2228  1.2285  1.4542
15171TIP3   OH267003   2.704   6.162  16.131 -0.2179 -0.1950  0.0554
15171TIP3    H167004   2.645   6.223  16.175  1.2951  1.1790  0.2244
15171TIP3    H267005   2.649   6.120  16.064 -1.3487  1.1883  0.0869
15172TIP3   OH267006   5.954   0.806   2.718 -0.3245 -0.0291  0.5148
15172TIP3    H167007   5.959   0.742   2.789 -1.1290 -1.5990 -0.8111
15172TIP3    H267008   5.971   0.755   2.639  2.9574  2.1056 -0.2674
15173TIP3   OH267009   3.742   3.961   6.276 -0.1424 -0.3277  0.3016
15173TIP3    H167010   3.647   3.957   6.269 -0.0238  0.2998 -2.3265
15173TIP3    H267011   3.771   3.870   6.270 -0.4856 -0.3537 -1.2842
15174TIP3   OH267012   3.403   6.820   3.207  0.0696  0.3312  0.1958
15174TIP3    H167013   3.496   6.813   3.230  0.3652  0.1257 -1.0160
15174TIP3    H267014   3.382   6.913   3.216  0.8542  0.6638 -1.1784
15175TIP3   OH267015   1.885   6.567  12.795 -0.3193 -0.7024  0.3556
15175TIP3    H167016   1.821   6.624  12.752  1.3103  2.2829  1.7071
15175TIP3    H267017   1.954   6.555  12.730  0.5957  1.1501  0.9258
15176TIP3   OH267018   5.931   2.442  16.498  0.0237  0.2110 -0.5734
15176TIP3    H167019   5.889   2.430  16.584  2.8889 -0.0529  0.8510
15176TIP3    H267020   5.942   2.353  16.464  2.0465  0.0524  0.4082
15177TIP3   OH267021   4.580   2.019  12.705 -0.2133 -0.4087  0.6194
15177TIP3    H167022   4.568   1.953  12.637  0.6975  0.1067 -0.0366
15177TIP3    H267023   4.671   2.046  12.698 -0.4291  0.5292  1.2423
15178TIP3   OH267024   3.837   4.670  17.126 -0.5755  0.6093  0.0867
15178TIP3    H167025   3.862   4.701  17.213 -0.3200 -0.4429  0.4039
15178TIP3    H267026   3.911   4.694  17.070 -0.8310  1.4712  0.1187
15179TIP3   OH267027   2.802   0.493  16.911 -0.2434 -0.5333 -0.4291
15179TIP3    H167028   2.785   0.399  16.907  0.4486 -0.7621  1.3208
15179TIP3    H267029   2.760   0.521  16.993  0.4781  0.4756 -0.3977
15180TIP3   OH267030   4.090   3.432   5.916  0.5252 -0.1319 -0.2047
15180TIP3    H167031   4.168   3.449   5.968  2.0252 -0.1054 -2.3709
15180TIP3    H267032   4.123   3.423   5.826 -2.0142  0.2845 -1.2221
15181TIP3   OH267033   3.517   5.586   4.186  0.5434 -0.4743 -0.0863
15181TIP3    H167034   3.529   5.515   4.249  3.1815 -1.1664 -1.2780
15181TIP3    H267035   3.437   5.563   4.139  0.7086 -2.0269  0.3448
15182TIP3   OH267036   0.702   4.299  12.088 -0.4720 -0.0027  0.1054
15182TIP3    H167037   0.786   4.323  12.126  0.4823 -1.2365 -1.1656
15182TIP3    H267038   0.699   4.343  12.004 -0.8787 -0.3671 -0.0783
15183TIP3   OH267039   2.842   2.358  10.887  0.0615 -0.1192  0.1999
15183TIP3    H167040   2.815   2.366  10.978  0.0676  1.1693  0.1084
15183TIP3    H267041   2.937   2.356  10.890  0.0509 -0.5480  0.2529
15184TIP3   OH267042   4.760   1.618  14.418  0.0252 -0.1442  0.2682
15184TIP3    H167043   4.676   1.580  14.441  0.1502 -0.1750  0.6792
15184TIP3    H267044   4.749   1.650  14.328 -0.0620 -1.1930 -0.0996
15185TIP3   OH267045   2.935   4.370  15.170  0.0991 -0.5648 -0.5386
15185TIP3    H167046   2.916   4.295  15.226  0.2967 -0.2052  0.0115
15185TIP3    H267047   3.029   4.384  15.179 -0.5971  2.5157  2.8767
15186TIP3   OH267048   6.256   2.171   4.866 -0.0829 -0.5049 -0.7364
15186TIP3    H167049   6.172   2.138   4.899  0.7217 -2.2054 -0.3113
15186TIP3    H267050   6.306   2.192   4.944  0.3708 -0.7696 -0.9532
15187TIP3   OH267051   3.394   2.619   5.518  0.2521  0.3852 -0.3883
15187TIP3    H167052   3.306   2.582   5.524 -0.1155  1.1608 -0.8296
15187TIP3    H267053   3.391   2.696   5.576  0.9176 -0.1118  0.3096
15188TIP3   OH267054   1.070   4.205  12.474 -0.6174  0.6042 -0.2342
15188TIP3    H167055   1.041   4.190  12.564  1.0448  0.1531  0.2606
15188TIP3    H267056   1.101   4.295  12.473  0.3843  0.2756 -0.0395
15189TIP3   OH267057   0.601   2.369  17.263 -0.1068  0.8094  0.0661
15189TIP3    H167058   0.531   2.387  17.325 -0.2640  3.2282 -0.7598
15189TIP3    H267059   0.638   2.285  17.291 -4.0010 -1.0637 -0.1211
15190TIP3   OH267060   3.442   1.900   0.543  0.2532  0.4910 -0.2071
15190TIP3    H167061   3.417   1.840   0.612 -1.2514 -1.0026 -1.9906
15190TIP3    H267062   3.523   1.864   0.507  0.4302  0.6452  0.0362
15191TIP3   OH267063   5.518   3.499  12.476 -0.6119  0.0244 -0.6582
15191TIP3    H167064   5.442   3.444  12.457  0.5006 -1.0087 -2.3298
15191TIP3    H267065   5.507   3.525  12.567 -3.3951  0.6171 -1.1353
15192TIP3   OH267066   4.904   5.754  11.554 -0.2040  0.1277 -0.1718
15192TIP3    H167067   4.941   5.835  11.588 -1.7651  1.2527 -1.0974
15192TIP3    H267068   4.965   5.727  11.485 -0.8161  1.7013 -1.3523
15193TIP3   OH267069   0.986   1.361  13.275 -0.4746 -0.6974  0.2822
15193TIP3    H167070   0.938   1.442  13.253  1.3682  1.1676  2.8180
15193TIP3    H267071   1.032   1.339  13.194 -0.2497  1.3721 -0.1986
15194TIP3   OH267072   0.725   4.919   4.991 -0.1033  0.2176 -0.2223
15194TIP3    H167073   0.741   4.851   4.926  0.4995 -0.3197  0.4718
15194TIP3    H267074   0.711   4.871   5.073  1.1563  0.9434  0.4367
15195TIP3   OH267075   1.561   3.836  12.978  0.2189  0.0792  0.2599
15195TIP3    H167076   1.523   3.755  13.012 -0.0158 -0.3283 -0.9704
15195TIP3    H267077   1.508   3.906  13.018 -0.3871 -0.4131  0.3211
15196TIP3   OH267078   2.284   0.996   1.680  0.1631  0.1636  0.2010
15196TIP3    H167079   2.284   0.918   1.735  0.2040 -0.4646 -0.6796
15196TIP3    H267080   2.192   1.023   1.676 -0.0889 -0.7768 -0.7822
15197TIP3   OH267081   1.094   2.175   4.077  0.4768  0.3452  0.3845
15197TIP3    H167082   1.150   2.118   4.023  1.5767  3.0333 -1.4432
15197TIP3    H267083   1.111   2.147   4.167  1.6338 -1.6148 -0.4074
15198TIP3   OH267084   5.874   5.074  16.910  1.1875 -0.4095  0.0174
15198TIP3    H167085   5.817   5.075  16.833  2.3068  1.2412 -0.8002
15198TIP3    H267086   5.814   5.088  16.984  0.5350  1.6638 -0.8601
15199TIP3   OH267087   0.462   1.887  12.943 -0.0204  0.2462  0.3384
15199TIP3    H167088   0.537   1.930  12.984 -0.3126 -0.3150  1.4628
15199TIP3    H267089   0.440   1.943  12.868  0.1145  1.6158  1.3173
15200TIP3   OH267090   4.447   4.112   4.825 -0.2523 -0.2332 -0.0719
15200TIP3    H167091   4.386   4.099   4.752 -0.2556  0.4310 -0.1875
15200TIP3    H267092   4.518   4.165   4.788 -0.8270  1.1023  0.7028
15201TIP3   OH267093   0.367   3.731   0.653  0.1814 -0.2546  0.2287
15201TIP3    H167094   0.393   3.709   0.742  0.1836 -1.6774 -0.1196
15201TIP3    H267095   0.293   3.791   0.664  0.4676 -0.0699  1.1865
15202TIP3   OH267096   3.117   2.579  16.071 -0.2189  0.3231  0.3914
15202TIP3    H167097   3.091   2.615  16.157  1.4849  1.3842  0.4858
15202TIP3    H267098   3.166   2.500  16.092  0.1265  0.5379  0.4002
15203TIP3   OH267099   2.278   1.678  11.640  0.0417 -0.1238 -0.1098
15203TIP3    H167100   2.263   1.764  11.678 -1.7622  0.0702 -1.1992
15203TIP3    H267101   2.373   1.671  11.634  0.2603  1.1268  1.4439
15204TIP3   OH267102   6.048   4.213   3.945  0.0334  1.4617 -0.2487
15204TIP3    H167103   5.960   4.191   3.976  1.2466 -1.3344  1.4519
15204TIP3    H267104   6.040   4.214   3.849 -1.6547  0.2689 -0.1433
15205TIP3   OH267105   3.848   5.469   6.317  0.3393 -0.2408 -0.3762
15205TIP3    H167106   3.943   5.476   6.323  0.2780 -0.7140  1.5837
15205TIP3    H267107   3.831   5.375   6.322 -0.2149 -0.1801 -1.0574
15206TIP3   OH267108   0.971   1.814   0.686 -0.4494 -0.1065  0.3259
15206TIP3    H167109   0.994   1.841   0.775  0.5153  1.5795 -0.4091
15206TIP3    H267110   1.039   1.751   0.662  0.7299  1.2965 -0.0995
15207TIP3   OH267111   2.333   2.878   3.780 -0.3818  0.5804 -0.1356
15207TIP3    H167112   2.319   2.808   3.843  0.2274  0.2346 -0.3855
15207TIP3    H267113   2.412   2.853   3.732 -0.4474  1.1810 -0.5705
15208TIP3   OH267114   4.084   0.581  15.220  0.7012  0.5591 -0.3870
15208TIP3    H167115   4.084   0.624  15.306 -0.1671  1.6154 -0.8965
15208TIP3    H267116   4.015   0.515  15.226 -1.2343  2.4572 -1.1272
15209TIP3   OH267117   1.226   6.758   1.077  0.3131  0.3093  0.3540
15209TIP3    H167118   1.188   6.714   1.153 -1.4602 -0.0143 -0.6792
15209TIP3    H267119   1.243   6.848   1.107 -0.0092  0.0822  1.2369
15210TIP3   OH267120   3.288   1.106   3.343 -0.0400  0.3159 -0.2906
15210TIP3    H167121   3.299   1.190   3.387  0.2058 -0.1310  0.5118
15210TIP3    H267122   3.373   1.087   3.305  0.8645 -1.0907  2.2725
15211TIP3   OH267123   0.215   0.024   0.042 -0.1056  0.0254 -0.2626
15211TIP3    H167124   0.182  -0.017   0.123  0.9161 -0.9341 -0.3211
15211TIP3    H267125   0.189   0.116   0.049 -5.8192 -1.2132 -1.7926
15212TIP3   OH267126   3.683   4.274  15.873 -0.1484 -0.4041  0.7434
15212TIP3    H167127   3.679   4.291  15.778  1.7146 -0.2251  0.6930
15212TIP3    H267128   3.698   4.180  15.880  1.0625 -0.2016  0.8428
15213TIP3   OH267129   0.299   1.031  11.846 -0.8922 -0.0205  0.0180
15213TIP3    H167130   0.206   1.044  11.827 -1.3751  0.2757  2.4372
15213TIP3    H267131   0.302   0.953  11.902  0.2066  0.5712  0.8150
15214TIP3   OH267132   1.581   4.403  14.623  0.1997  0.4125  0.1187
15214TIP3    H167133   1.606   4.313  14.642 -1.6847 -0.3494 -0.9002
15214TIP3    H267134   1.662   4.445  14.594  0.7190 -1.4892 -1.2820
15215TIP3   OH267135   5.803   6.330  14.698 -0.3985 -0.2194  0.1919
15215TIP3    H167136   5.846   6.399  14.649 -0.5855  0.6306  1.2106
15215TIP3    H267137   5.875   6.276  14.731 -0.1869  0.1872  0.4052
15216TIP3   OH267138   0.696   4.282  15.248 -0.0442  0.3067  0.1404
15216TIP3    H167139   0.603   4.301  15.260 -0.2737 -0.7223 -0.0294
15216TIP3    H267140   0.728   4.356  15.195 -1.3466 -0.7132 -2.1280
15217TIP3   OH267141   1.636   1.840   5.187  0.7776  0.1724 -0.5016
15217TIP3    H167142   1.722   1.801   5.172  1.1363  0.7153  0.0828
15217TIP3    H267143   1.578   1.766   5.203  1.1163 -0.2021 -0.9787
15218TIP3   OH267144   4.739   2.020   0.778 -0.0719  0.2034  0.3792
15218TIP3    H167145   4.715   2.004   0.686  0.9295 -0.7471  0.2672
15218TIP3    H267146   4.749   2.115   0.784  1.4495  0.1436 -0.9150
15219TIP3   OH267147   1.669   2.409   4.529 -0.4317  0.0474 -0.1666
15219TIP3    H167148   1.764   2.420   4.537 -0.3116 -1.6402  1.0696
15219TIP3    H267149   1.633   2.466   4.597 -0.4660  2.5917 -2.2261
15220TIP3   OH267150   6.148   3.970  15.246 -0.2998  0.7547 -0.3629
15220TIP3    H167151   6.134   4.042  15.185  1.5231 -0.6694 -2.5311
15220TIP3    H267152   6.242   3.954  15.244 -0.8427 -2.6345 -1.0495
15221TIP3   OH267153   4.911   6.023  11.929 -0.0502  0.1319 -0.4186
15221TIP3    H167154   4.936   6.083  12.000  0.0472 -1.2910  0.7817
15221TIP3    H267155   4.954   6.060  11.851 -2.0873  3.0475 -0.2540
15222TIP3   OH267156   5.761   4.048   1.648  0.2770 -0.4355  0.1153
15222TIP3    H167157   5.751   3.954   1.667  3.0993 -0.6031  0.9304
15222TIP3    H267158   5.763   4.052   1.552  0.4996 -1.2381  0.0808
15223TIP3   OH267159   2.701   6.061  12.084  0.1414  0.4124  1.0295
15223TIP3    H167160   2.780   6.012  12.106  1.0562  1.2375 -0.3697
15223TIP3    H267161   2.629   6.004  12.113  1.2229 -0.4922  1.9989
15224TIP3   OH267162   2.853   4.893   4.000  0.1189 -0.4183  0.1689
15224TIP3    H167163   2.806   4.816   4.030  0.8412 -0.6259  0.7893
15224TIP3    H267164   2.935   4.858   3.964  0.6448  0.0999  0.8677
15225TIP3   OH267165   6.286   0.779   1.579  0.2015  0.2930  0.4962
15225TIP3    H167166   6.321   0.695   1.609  1.2452 -0.2617 -2.0675
15225TIP3    H267167   6.271   0.766   1.485 -3.3280  1.7753  0.7911
15226TIP3   OH267168   0.368   5.698   3.237 -0.2446 -0.3780 -0.3448
15226TIP3    H167169   0.439   5.651   3.191  0.5716  1.7321 -1.3013
15226TIP3    H267170   0.315   5.735   3.166 -0.4337  0.7743  0.3901
15227TIP3   OH267171   5.083   4.614  10.945 -0.0422 -0.3039  0.1535
15227TIP3    H167172   5.099   4.708  10.932 -0.5438 -0.3761 -1.0403
15227TIP3    H267173   4.989   4.608  10.962  0.0788 -0.5431  0.7546
15228TIP3   OH267174   2.992   6.622  15.281  0.3660 -0.0272 -0.3212
15228TIP3    H167175   3.047   6.700  15.291  0.8992 -0.4683  0.1457
15228TIP3    H267176   2.998   6.577  15.366 -0.0098 -0.5386 -0.5645
15229TIP3   OH267177   0.376   3.992   3.783  0.3521 -0.2627  0.0453
15229TIP3    H167178   0.351   4.018   3.694  1.1444  0.4825  0.0347
15229TIP3    H267179   0.386   4.075   3.830  2.3504 -0.5595  0.1777
15230TIP3   OH267180   3.131   0.343   3.086 -0.4302  0.3088 -0.4498
15230TIP3    H167181   3.061   0.397   3.122 -2.0879 -2.1961  0.2678
15230TIP3    H267182   3.184   0.318   3.161 -0.7019 -0.4702 -0.5087
15231TIP3   OH267183   3.900   6.768   3.019  0.2172 -0.1903 -0.0325
15231TIP3    H167184   3.986   6.751   2.978  0.8651  0.3617  1.0837
15231TIP3    H267185   3.895   6.863   3.024  0.1989 -0.2525  1.2757
15232TIP3   OH267186   6.747   6.075   0.710 -0.1924 -0.3987  0.4047
15232TIP3    H167187   6.757   6.027   0.628  1.5107  0.3922  0.1344
15232TIP3    H267188   6.677   6.138   0.693 -0.1044 -0.4933 -0.3034
15233TIP3   OH267189   1.554   2.148  10.981 -0.3071 -0.2002 -0.1331
15233TIP3    H167190   1.555   2.059  10.945 -0.3198 -0.3289  0.1871
15233TIP3    H267191   1.488   2.193  10.929 -0.1205 -0.3075 -0.4646
15234TIP3   OH267192   0.576   1.556  14.068  0.2165 -0.2312 -0.0641
15234TIP3    H167193   0.555   1.646  14.093  1.6596  0.2836 -0.7056
15234TIP3    H267194   0.531   1.502  14.134  0.7656  1.0017  1.3526
15235TIP3   OH267195   5.978   2.089   6.130  0.1497 -0.3126 -0.1450
15235TIP3    H167196   5.992   2.075   6.223 -0.6821 -1.2414 -0.1573
15235TIP3    H267197   6.039   2.160   6.107  0.0251  0.2435  1.1919
15236TIP3   OH267198   0.431   2.841   2.257  0.1376 -0.6052 -0.3570
15236TIP3    H167199   0.501   2.871   2.199 -0.2841  0.8794 -0.1141
15236TIP3    H267200   0.372   2.916   2.264  0.1354 -0.7819  1.9146
15237TIP3   OH267201   5.022   2.643  14.980  0.3600 -0.0433  0.1411
15237TIP3    H167202   4.962   2.718  14.974 -0.3276 -0.4272  1.7989
15237TIP3    H267203   5.092   2.663  14.918 -1.2428  0.6460 -1.5066
15238TIP3   OH267204   2.914   0.482   4.163 -0.4980 -0.0511  0.1415
15238TIP3    H167205   2.857   0.426   4.216  0.5227 -0.8817  0.3974
15238TIP3    H267206   2.887   0.465   4.073 -0.8846 -0.1895  0.2833
15239TIP3   OH267207   5.010   1.445  14.560 -0.0060  0.3613 -0.0993
15239TIP3    H167208   4.963   1.451  14.644 -0.4833 -0.4747 -0.2959
15239TIP3    H267209   4.944   1.462  14.494  0.6231  2.1711 -0.2750
15240TIP3   OH267210   5.631   5.553  14.312 -0.1890  0.1487 -0.1843
15240TIP3    H167211   5.646   5.581  14.221 -0.6051  2.6777  0.4957
15240TIP3    H267212   5.611   5.634  14.359  0.7342 -1.0362  2.3295
15241TIP3   OH267213   2.711   2.393   0.070  0.2197 -0.3920 -0.0360
15241TIP3    H167214   2.730   2.317   0.126  0.7052  1.4297  2.3550
15241TIP3    H267215   2.621   2.417   0.092 -0.2072 -0.6995 -1.3614
15242TIP3   OH267216   3.162   5.632   3.609 -0.7225  0.1715  0.2621
15242TIP3    H167217   3.142   5.725   3.616 -1.4095 -0.0717  1.6780
15242TIP3    H267218   3.079   5.591   3.586 -0.7188 -0.2468  0.9916
15243TIP3   OH267219   3.689   2.023   4.464  0.0169 -0.0766  0.1777
15243TIP3    H167220   3.694   2.096   4.525  2.2374  0.7579 -0.9574
15243TIP3    H267221   3.752   2.044   4.396 -2.2022 -1.1200 -2.2854
15244TIP3   OH267222   2.851   6.363   0.330 -0.4717  0.2887  0.9050
15244TIP3    H167223   2.807   6.375   0.246 -0.8558  3.1491  1.4769
15244TIP3    H267224   2.803   6.291   0.372 -2.0124  0.6515 -0.2028
15245TIP3   OH267225   0.917   5.704  12.776 -0.0328  0.0053  0.3478
15245TIP3    H167226   0.849   5.637  12.784  0.2333 -0.3127 -0.0084
15245TIP3    H267227   0.995   5.664  12.814  0.1804  0.0324 -0.0531
15246TIP3   OH267228   3.455   5.314   0.948  0.2523 -0.5336 -0.0492
15246TIP3    H167229   3.532   5.287   0.997  0.7674 -0.4101 -0.7811
15246TIP3    H267230   3.461   5.265   0.865  0.4960  0.8161 -0.8453
15247TIP3   OH267231   4.761   4.316   0.385  0.5244 -0.3653 -0.0475
15247TIP3    H167232   4.675   4.328   0.345  1.4066  1.9144 -1.2877
15247TIP3    H267233   4.761   4.376   0.460  1.5731  0.7344 -0.9213
15248TIP3   OH267234   2.891   0.391   1.111  0.1874 -0.4526  0.1863
15248TIP3    H167235   2.818   0.396   1.173 -0.3040 -0.3847 -0.3902
15248TIP3    H267236   2.889   0.475   1.066  1.4226  0.0573  1.0516
15249TIP3   OH267237   3.613   0.929   4.895  0.4712 -0.1205 -0.0851
15249TIP3    H167238   3.524   0.903   4.919  0.9099 -0.2648  1.4547
15249TIP3    H267239   3.646   0.975   4.972  2.0416 -0.8757 -0.2908
15250TIP3   OH267240   2.636   5.940  14.566  0.0771  0.0792 -0.6060
15250TIP3    H167241   2.707   5.992  14.603  0.7484 -2.1351  1.3724
15250TIP3    H267242   2.673   5.899  14.488 -0.4140  2.3570 -2.0951
15251TIP3   OH267243   0.153   4.130  13.600  0.2659 -0.7502 -0.1248
15251TIP3    H167244   0.195   4.066  13.656  1.5390 -1.0520 -1.4062
15251TIP3    H267245   0.176   4.215  13.638 -1.6794 -1.0289  1.7553
15252TIP3   OH267246   5.893   0.874   3.400  0.4821 -0.3147 -0.0876
15252TIP3    H167247   5.919   0.789   3.434  0.6855  0.0061  0.5548
15252TIP3    H267248   5.974   0.915   3.370  0.1269 -1.2255 -2.4206
15253TIP3   OH267249   4.674   1.673  11.551 -0.2230  0.3235  0.5611
15253TIP3    H167250   4.683   1.583  11.582  1.0518  0.2008 -0.0957
15253TIP3    H267251   4.718   1.673  11.466 -1.0477  1.3451  0.1250
15254TIP3   OH267252   5.702   5.062   2.351 -0.4340 -0.0899 -1.1530
15254TIP3    H167253   5.684   5.025   2.438  0.7538  2.0550  0.0645
15254TIP3    H267254   5.676   5.154   2.358  0.0751  0.2115 -2.9465
15255TIP3   OH267255   1.484   0.143  14.885  0.4234  0.2991 -0.0774
15255TIP3    H167256   1.521   0.071  14.833 -1.3671 -0.5994 -0.1438
15255TIP3    H267257   1.418   0.101  14.940 -1.4653  2.0351 -0.9302
15256TIP3   OH267258   6.771   3.529   5.227  0.0157  0.0961  0.3972
15256TIP3    H167259   6.765   3.434   5.239  1.4884 -0.3084 -1.6707
15256TIP3    H267260   6.765   3.541   5.132  2.8342  1.8113  0.3845
15257TIP3   OH267261   6.023   6.093   3.719  0.0935  0.0882 -0.0552
15257TIP3    H167262   6.020   5.997   3.718 -0.6555  0.0697  1.9300
15257TIP3    H267263   6.019   6.118   3.627  1.9070 -1.8317 -0.6782
15258TIP3   OH267264   1.678   3.282  16.173 -0.0555  0.3205 -0.3016
15258TIP3    H167265   1.613   3.298  16.241  0.2208  0.8764 -0.1625
15258TIP3    H267266   1.750   3.342  16.194  2.0425 -2.7759  1.6201
15259TIP3   OH267267   0.990   4.863  11.016  0.2864 -0.5166  0.1039
15259TIP3    H167268   1.014   4.956  11.017  0.2745 -0.5138  0.1211
15259TIP3    H267269   0.900   4.862  11.048  0.3194 -0.5451  0.1943
15260TIP3   OH267270   2.608   0.693  13.460  0.2289 -0.1509  0.3081
15260TIP3    H167271   2.701   0.713  13.470  0.2855 -0.2740  0.0267
15260TIP3    H267272   2.575   0.759  13.400  0.3505 -0.7130 -0.3822
15261TIP3   OH267273   1.995   4.221  16.244 -0.1506 -0.0627 -0.0752
15261TIP3    H167274   1.956   4.279  16.309  0.4280 -0.6675  0.8305
15261TIP3    H267275   1.936   4.145  16.240 -0.1774 -0.0332 -0.2468
15262TIP3   OH267276   3.589   1.749   4.953 -0.6299 -0.1184  0.3143
15262TIP3    H167277   3.572   1.816   5.019  2.0013 -0.7878  1.7630
15262TIP3    H267278   3.626   1.796   4.879 -2.1530  0.4536 -0.0940
15263TIP3   OH267279   0.276   3.387  14.562 -0.0882 -0.2398  0.0048
15263TIP3    H167280   0.204   3.402  14.502  0.7571  1.6918 -0.5638
15263TIP3    H267281   0.262   3.450  14.633  0.8815 -0.0589  0.0419
15264TIP3   OH267282   4.513   4.475   3.464  0.1079 -0.3369  0.3169
15264TIP3    H167283   4.495   4.497   3.372  2.4024 -0.5423 -0.2083
15264TIP3    H267284   4.433   4.499   3.510 -0.9381  0.1378 -1.6800
15265TIP3   OH267285   2.351   4.668  10.507  0.0968  0.3240  0.5740
15265TIP3    H167286   2.275   4.639  10.557 -0.3912  0.0491 -0.3397
15265TIP3    H267287   2.378   4.749  10.551 -3.1213  2.6396 -1.4502
15266TIP3   OH267288   0.550   0.943   0.068  0.5156  0.3390  0.8961
15266TIP3    H167289   0.571   0.982   0.153 -0.0977 -0.0499  1.2269
15266TIP3    H267290   0.490   1.006   0.027 -0.9642 -0.5098  1.6817
15267TIP3   OH267291   5.732   2.038  12.083  0.4278  0.1003 -0.3306
15267TIP3    H167292   5.749   1.944  12.074 -2.3694 -0.2964 -2.0539
15267TIP3    H267293   5.688   2.046  12.167 -0.1492 -0.2526 -0.5984
15268TIP3   OH267294   4.849   5.184  11.528  0.3834  0.1818  0.2350
15268TIP3    H167295   4.920   5.120  11.518  0.6354  0.0551  2.5431
15268TIP3    H267296   4.772   5.131  11.549 -0.1105  0.4243 -0.9153
15269TIP3   OH267297   5.988   5.317  13.102 -0.0172  0.3426 -0.9075
15269TIP3    H167298   5.998   5.393  13.045 -1.8808  0.1233 -1.5592
15269TIP3    H267299   5.967   5.245  13.043  0.3666 -0.3768 -0.1661
15270TIP3   OH267300   0.257   4.256  11.279  0.1605  0.2425  0.1617
15270TIP3    H167301   0.267   4.344  11.316 -2.5678  1.3751 -1.6612
15270TIP3    H267302   0.191   4.214  11.334  0.2445 -0.0560  0.0347
15271TIP3   OH267303   2.280   5.176  16.449 -0.1346  0.3487  0.3790
15271TIP3    H167304   2.286   5.163  16.354  1.8840  1.2763  0.3512
15271TIP3    H267305   2.334   5.253  16.466  0.4002 -0.4477  2.4269
15272TIP3   OH267306   3.790   1.952  12.374  0.3252 -0.3777 -0.2723
15272TIP3    H167307   3.845   2.025  12.346 -0.0065  0.3280  0.8746
15272TIP3    H267308   3.804   1.885  12.307  2.4274 -0.1520 -0.0949
15273TIP3   OH267309   0.819   0.664   3.978  0.0015  0.3063 -0.2206
15273TIP3    H167310   0.733   0.633   3.950  0.0867  0.3611 -0.5459
15273TIP3    H267311   0.864   0.586   4.008  0.0851  0.1726 -0.6962
15274TIP3   OH267312   5.271   2.000   5.234  0.1119 -0.3220  0.1526
15274TIP3    H167313   5.258   1.945   5.311  2.9642 -1.0941  0.1246
15274TIP3    H267314   5.289   1.939   5.163 -0.2354  0.4947 -0.6520
15275TIP3   OH267315   2.749   5.567  14.263 -0.1341  0.3476  0.1258
15275TIP3    H167316   2.662   5.529  14.247  0.3378 -0.7398  0.1244
15275TIP3    H267317   2.780   5.591  14.175 -0.1878  0.1887  0.0614
15276TIP3   OH267318   2.642   5.620  11.780  0.1239 -0.3370  0.2853
15276TIP3    H167319   2.646   5.524  11.789  2.9851 -0.3134 -0.1791
15276TIP3    H267320   2.623   5.651  11.869  2.2301 -1.2359  1.0861
15277TIP3   OH267321   3.480   2.228   6.503 -0.3315  0.2382 -0.1336
15277TIP3    H167322   3.476   2.301   6.565  0.4304 -1.0925  1.5143
15277TIP3    H267323   3.484   2.270   6.417 -2.5851  2.0896  0.6376
15278TIP3   OH267324   4.252   2.725  13.705  0.5518 -0.1584 -0.3749
15278TIP3    H167325   4.165   2.743  13.740  0.4761  1.5566 -1.3929
15278TIP3    H267326   4.250   2.632  13.684 -1.2456 -0.0201 -0.9140
15279TIP3   OH267327   0.050   5.563   4.257  0.2011 -0.3576  0.6880
15279TIP3    H167328   0.011   5.615   4.327 -0.6153 -2.9282  2.2156
15279TIP3    H267329   0.126   5.521   4.298  2.0466  1.1758 -1.0699
15280TIP3   OH267330   2.914   4.308   5.628 -0.2737  0.7779 -0.1273
15280TIP3    H167331   2.832   4.330   5.672 -0.1738  0.0006  0.4640
15280TIP3    H267332   2.945   4.230   5.673  0.8574  1.1355 -0.2546
15281TIP3   OH267333   3.228   1.338   1.870  0.3198 -0.1058  0.3789
15281TIP3    H167334   3.146   1.380   1.843  0.2072 -0.5187  0.0621
15281TIP3    H267335   3.206   1.292   1.951 -0.0475 -1.1021 -0.2709
15282TIP3   OH267336   2.766   6.191  13.384  0.5701 -0.3670 -0.3658
15282TIP3    H167337   2.787   6.147  13.466  0.9782  0.8573  0.2010
15282TIP3    H267338   2.714   6.127  13.335  0.2106 -1.0593  0.8938
15283TIP3   OH267339   5.389   2.313   4.465 -1.0239 -0.2625 -0.0373
15283TIP3    H167340   5.371   2.235   4.412 -1.7586  0.8798 -1.5302
15283TIP3    H267341   5.374   2.285   4.555 -1.5534 -1.7793 -0.5728
15284TIP3   OH267342   1.045   1.817   0.943  0.9172  0.8809 -0.3265
15284TIP3    H167343   0.983   1.809   1.015  1.8027  2.1022  0.6022
15284TIP3    H267344   1.121   1.766   0.971 -0.0304 -1.4302 -1.8907
15285TIP3   OH267345   4.263   5.393  13.054 -0.2644 -0.5814 -0.2102
15285TIP3    H167346   4.253   5.299  13.044  2.6175 -0.8649 -0.9956
15285TIP3    H267347   4.285   5.405  13.147  0.7863 -0.8658 -0.4096
15286TIP3   OH267348   6.044   2.862  14.577  0.3211  0.8698 -0.0070
15286TIP3    H167349   6.102   2.920  14.528  1.1784 -1.6777 -2.1284
15286TIP3    H267350   6.052   2.891  14.668  3.2998  1.9299 -0.5522
15287TIP3   OH267351   4.463   0.618   6.369  0.2941  0.5177 -0.4132
15287TIP3    H167352   4.416   0.649   6.446  0.2741  0.5920 -0.4552
15287TIP3    H267353   4.464   0.693   6.309 -1.8952 -0.3186 -1.5436
15288TIP3   OH267354   5.304   2.219   0.498  0.8640  0.1033  0.6898
15288TIP3    H167355   5.218   2.192   0.464  0.9608  0.6391  0.0176
15288TIP3    H267356   5.293   2.219   0.593  0.3800 -0.7079  0.6364
15289TIP3   OH267357   2.552   1.218   5.601 -0.3452 -0.0813  0.9432
15289TIP3    H167358   2.477   1.273   5.626 -1.8281 -1.3414 -0.5539
15289TIP3    H267359   2.583   1.257   5.519 -1.3066 -1.3455 -0.0426
15290TIP3   OH267360   0.664   2.504  16.078  0.5085 -0.1639 -0.2029
15290TIP3    H167361   0.659   2.564  16.005  0.7730 -1.2256 -1.1093
15290TIP3    H267362   0.751   2.518  16.115  0.5188  0.0960 -0.3276
15291TIP3   OH267363   1.272   3.530   3.584 -0.0886 -0.1385  0.1499
15291TIP3    H167364   1.274   3.551   3.491  1.3119 -1.0816 -0.0433
15291TIP3    H267365   1.245   3.438   3.587  0.0739 -0.1698  0.6600
15292TIP3   OH267366   5.870   4.832   1.689  0.0164  0.3495 -0.4497
15292TIP3    H167367   5.865   4.907   1.749  0.8746  0.0166  0.0487
15292TIP3    H267368   5.813   4.766   1.729  0.1524  0.3287 -0.2864
15293TIP3   OH267369   0.858   5.271  16.719 -0.1780 -0.1189  0.1824
15293TIP3    H167370   0.773   5.292  16.758  1.0452  3.1887  1.2403
15293TIP3    H267371   0.868   5.334  16.647  1.0557 -0.9955 -0.4365
15294TIP3   OH267372   6.421   0.585   3.356 -0.2686  0.1349  0.1196
15294TIP3    H167373   6.418   0.490   3.364  1.3884 -0.1652 -2.2414
15294TIP3    H267374   6.411   0.617   3.445 -0.4589 -2.2708  0.9983
15295TIP3   OH267375   1.840   6.559   5.856  0.1279 -0.3459 -0.3789
15295TIP3    H167376   1.772   6.599   5.910 -0.2183  0.6955 -1.5757
15295TIP3    H267377   1.825   6.465   5.864  0.7717 -0.2748  2.2370
15296TIP3   OH267378   1.219   0.838   4.762 -0.2279  0.7487  0.0430
15296TIP3    H167379   1.275   0.812   4.689 -2.1501 -0.0631 -1.1891
15296TIP3    H267380   1.277   0.838   4.838  1.4212 -0.0910 -1.1835
15297TIP3   OH267381   4.444   2.669  15.506  0.5298  0.1958  0.6961
15297TIP3    H167382   4.368   2.714  15.470  0.1664  1.3156  2.7621
15297TIP3    H267383   4.408   2.616  15.578  1.4197 -0.8202  0.3992
15298TIP3   OH267384   1.239   6.313   3.429  0.8036 -0.1023  0.4299
15298TIP3    H167385   1.321   6.264   3.421 -0.4438 -2.1007 -0.7014
15298TIP3    H267386   1.203   6.286   3.513  0.1762 -1.0574 -0.1376
15299TIP3   OH267387   2.333   2.131   4.539  0.4552  0.3464  0.3337
15299TIP3    H167388   2.398   2.099   4.601  0.4614  1.6142  0.9808
15299TIP3    H267389   2.277   2.055   4.523  0.7443 -0.1309  1.5024
15300TIP3   OH267390   0.340   6.073  15.028  0.2788  0.6227 -0.1168
15300TIP3    H167391   0.301   6.005  15.084  2.4081 -1.0928 -0.6247
15300TIP3    H267392   0.278   6.082  14.955  0.3580 -1.4541 -0.4909
15301TIP3   OH267393   5.194   2.669   5.864 -0.3384 -0.1029  0.6724
15301TIP3    H167394   5.171   2.761   5.867 -0.4848 -0.1569  1.2230
15301TIP3    H267395   5.244   2.654   5.944  0.2783 -0.3444  0.2498
15302TIP3   OH267396   2.897   1.375   2.302  0.1442  0.6416 -0.8263
15302TIP3    H167397   2.894   1.289   2.344  0.4995 -0.2889 -2.6580
15302TIP3    H267398   2.839   1.430   2.355  0.3724 -0.5614  0.7009
15303TIP3   OH267399   1.883   0.140  14.635 -0.1998  0.0065  0.5005
15303TIP3    H167400   1.870   0.234  14.621  0.6490  0.2436  1.1803
15303TIP3    H267401   1.796   0.106  14.653 -0.5579  0.6086 -0.0665
15304TIP3   OH267402   3.658   4.578  12.313  0.4204 -0.3497  0.6715
15304TIP3    H167403   3.648   4.633  12.390 -0.9401  0.0855  0.1900
15304TIP3    H267404   3.738   4.611  12.271  1.2380 -0.6802  1.9476
15305TIP3   OH267405   5.445   6.066   0.759 -0.1492 -0.2060  0.3866
15305TIP3    H167406   5.510   6.135   0.766  0.1974 -0.5500  0.5449
15305TIP3    H267407   5.493   5.985   0.775 -0.0865 -0.7008 -2.1436
15306TIP3   OH267408   4.672   5.565   2.385 -0.0386  0.3850 -0.4123
15306TIP3    H167409   4.655   5.659   2.376  2.5395  0.9482  0.2319
15306TIP3    H267410   4.711   5.539   2.301  0.9205  0.3005  0.0476
15307TIP3   OH267411   5.094   2.004   3.156 -0.5231  0.1327 -0.2519
15307TIP3    H167412   5.093   1.908   3.152  0.5597  0.0396  1.2347
15307TIP3    H267413   5.164   2.030   3.097 -1.5196  0.0724 -1.4776
15308TIP3   OH267414   5.083   4.960   4.426 -0.0690  0.1143  0.3606
15308TIP3    H167415   5.170   4.924   4.445 -0.0026  0.0353 -0.0875
15308TIP3    H267416   5.032   4.886   4.394 -0.5967 -0.0447  1.5395
15309TIP3   OH267417   3.277   1.111   0.148 -0.1834  0.1175  0.1960
15309TIP3    H167418   3.372   1.097   0.152 -0.3741 -1.5450 -0.4987
15309TIP3    H267419   3.256   1.155   0.230  1.2508  0.8967  0.1605
15310TIP3   OH267420   6.674   0.088  12.600 -0.7193 -0.4696  0.1359
15310TIP3    H167421   6.753   0.124  12.561 -0.4534 -1.2072 -0.0246
15310TIP3    H267422   6.613   0.162  12.606 -0.6664 -0.2919 -1.3999
15311TIP3   OH267423   5.977   3.065  14.248  0.1835  0.3574  0.3427
15311TIP3    H167424   6.024   3.100  14.324  0.4398  1.0167 -0.1200
15311TIP3    H267425   6.031   2.991  14.219  0.0891  0.1087  0.7976
15312TIP3   OH267426   1.014   1.957   6.474 -0.6283 -0.2366 -0.7745
15312TIP3    H167427   1.104   1.929   6.457 -0.4474  0.1030 -0.3730
15312TIP3    H267428   0.971   1.880   6.511 -0.9006 -0.8494 -2.3084
15313TIP3   OH267429   2.450   5.848   5.393 -0.2074  0.4690 -0.3945
15313TIP3    H167430   2.543   5.830   5.409 -0.9859 -2.0614  1.6934
15313TIP3    H267431   2.423   5.902   5.467 -0.8465 -0.4404  0.0361
15314TIP3   OH267432   2.479   6.387  12.569  0.0265 -0.3081 -0.1352
15314TIP3    H167433   2.416   6.314  12.570  2.1852 -2.2325  1.1709
15314TIP3    H267434   2.557   6.351  12.527  0.8029  1.5558 -0.3234
15315TIP3   OH267435   2.189   4.894  12.135 -0.5778 -0.3357 -0.5035
15315TIP3    H167436   2.201   4.938  12.051 -1.5719 -0.1816 -0.5722
15315TIP3    H267437   2.136   4.817  12.114 -1.8068  0.3128  0.1540
15316TIP3   OH267438   4.668   1.450   2.168 -0.2871  0.1175  0.4219
15316TIP3    H167439   4.614   1.515   2.121  0.8300  1.2639  0.7067
15316TIP3    H267440   4.717   1.406   2.098  0.1689  0.7087  0.3652
15317TIP3   OH267441   1.311   3.628   5.699  0.5672  0.2340 -0.3796
15317TIP3    H167442   1.358   3.697   5.747  1.4527 -0.7322  0.1773
15317TIP3    H267443   1.243   3.598   5.760  1.5711 -0.8630  0.2288
15318TIP3   OH267444   3.410   3.570   5.520 -0.0826  0.1177  0.1095
15318TIP3    H167445   3.343   3.523   5.570 -0.5737  0.6502 -0.0522
15318TIP3    H267446   3.392   3.548   5.429  0.1678 -0.0010  0.0861
15319TIP3   OH267447   1.772   1.011  14.026  0.0589 -0.4614  0.4516
15319TIP3    H167448   1.727   1.003  13.943 -1.3411  0.7186  1.0866
15319TIP3    H267449   1.769   0.923  14.064  0.0352 -0.8232 -0.3855
15320TIP3   OH267450   4.611   6.604  12.793 -0.2116  0.1663 -0.5205
15320TIP3    H167451   4.592   6.651  12.874 -1.1772  0.0152 -0.6429
15320TIP3    H267452   4.551   6.642  12.729  0.8066  0.5322 -1.2512
15321TIP3   OH267453   1.247   2.701  17.288  0.1734  0.0876 -0.2713
15321TIP3    H167454   1.245   2.670  17.379  1.1064  0.8481  0.0133
15321TIP3    H267455   1.157   2.689  17.256 -1.1238  3.2911  1.9015
15322TIP3   OH267456   4.489   0.288   0.807  1.0123 -0.0990 -0.6744
15322TIP3    H167457   4.543   0.364   0.830  1.0754 -0.8265  1.6749
15322TIP3    H267458   4.400   0.314   0.830  0.6247  0.2730 -2.4853
15323TIP3   OH267459   5.474   1.053   3.032  0.5272 -0.4704 -0.1005
15323TIP3    H167460   5.390   1.017   3.006  1.3392 -2.9206  0.5415
15323TIP3    H267461   5.472   1.143   3.001 -1.5439 -1.0741 -1.8297
15324TIP3   OH267462   5.050   5.426  15.393 -0.4520 -0.0162  0.1679
15324TIP3    H167463   5.119   5.485  15.364  1.2688 -1.1405  1.8327
15324TIP3    H267464   5.004   5.401  15.313  0.7995  1.0666 -0.9135
15325TIP3   OH267465   4.833   3.990  11.545 -0.1250  0.0256  0.5809
15325TIP3    H167466   4.750   3.948  11.520 -0.1403  0.8644 -0.8620
15325TIP3    H267467   4.829   3.996  11.640 -1.6038 -0.1943  0.5469
15326TIP3   OH267468   0.301   4.777  13.430 -0.7303  0.1286  0.1658
15326TIP3    H167469   0.258   4.810  13.509 -1.2237 -0.5412  0.1898
15326TIP3    H267470   0.323   4.686  13.451 -0.5502  0.0540 -0.3398
15327TIP3   OH267471   6.524   3.230   2.797 -0.1849 -0.1276 -0.1988
15327TIP3    H167472   6.438   3.270   2.810 -0.1196 -0.4545  1.2669
15327TIP3    H267473   6.567   3.287   2.734 -1.0587  0.6742 -0.0774
15328TIP3   OH267474   0.119   3.268  15.536  0.0255 -1.0238  0.7110
15328TIP3    H167475   0.131   3.247  15.444 -2.6392 -0.2859  0.1586
15328TIP3    H267476   0.138   3.362  15.542  1.3720 -1.3108  1.1630
15329TIP3   OH267477   1.014   5.360  14.396  0.0221 -0.3166 -0.2037
15329TIP3    H167478   1.105   5.346  14.422 -0.3385 -1.4813  0.4476
15329TIP3    H267479   0.976   5.272  14.393 -0.8614  0.0960 -1.2859
15330TIP3   OH267480   6.091   1.390  17.117 -0.0125 -0.0715 -0.4874
15330TIP3    H167481   6.178   1.419  17.143 -0.3025 -1.1569  1.8641
15330TIP3    H267482   6.034   1.415  17.190 -1.0569 -2.4146 -0.4308
15331TIP3   OH267483   2.751   2.712   5.204 -0.2809  0.4223  0.2208
15331TIP3    H167484   2.709   2.632   5.238 -0.1968  0.3150  0.0692
15331TIP3    H267485   2.686   2.749   5.144  0.1603 -0.1687 -0.6289
15332TIP3   OH267486   2.922   2.445   3.429 -0.2755 -0.3406  0.2345
15332TIP3    H167487   2.984   2.463   3.500 -1.3049  0.3708  0.9617
15332TIP3    H267488   2.976   2.444   3.350  0.6977  0.0809  0.8797
15333TIP3   OH267489   6.049   4.891   4.239 -0.0853  0.0818 -0.1638
15333TIP3    H167490   6.117   4.851   4.293  0.2797  2.2695  1.0372
15333TIP3    H267491   6.096   4.954   4.184 -1.0017  0.8178 -0.1044
15334TIP3   OH267492   3.967   6.453  16.698  0.1918  0.6955 -0.4080
15334TIP3    H167493   3.898   6.517  16.676 -1.6321 -0.6650  1.2174
15334TIP3    H267494   3.978   6.402  16.617 -1.8610 -0.0851 -0.2417
15335TIP3   OH267495   6.510   5.447  10.783  0.2230 -0.2010 -0.3690
15335TIP3    H167496   6.557   5.366  10.803  1.1505 -0.1010 -2.0839
15335TIP3    H267497   6.431   5.418  10.738 -0.9186 -0.3074  1.6397
15336TIP3   OH267498   1.582   0.458   4.202  0.1506 -0.0006  0.3315
15336TIP3    H167499   1.572   0.450   4.296  1.4260  0.2866  0.5009
15336TIP3    H267500   1.548   0.376   4.166 -0.3645 -0.0925  1.0297
15337TIP3   OH267501   6.233   0.270   3.784  0.0998 -1.0035 -0.3389
15337TIP3    H167502   6.293   0.208   3.826 -0.1938 -0.1843  1.3250
15337TIP3    H267503   6.146   0.243   3.813 -0.2505 -1.3918 -1.7082
15338TIP3   OH267504   1.075   0.742   0.711 -0.2815 -0.5127 -0.2573
15338TIP3    H167505   1.028   0.817   0.673 -0.5512 -0.2375  0.5894
15338TIP3    H267506   1.013   0.706   0.775  1.4205  1.1152  2.3787
15339TIP3   OH267507   5.194   5.955   5.038  0.0293  0.3201  0.3281
15339TIP3    H167508   5.268   5.899   5.061  0.4117  1.1110  1.0538
15339TIP3    H267509   5.182   5.941   4.944  0.6552 -0.3364  0.3403
15340TIP3   OH267510   4.367   1.424  14.737  0.3544 -0.5262 -0.7343
15340TIP3    H167511   4.358   1.329  14.728 -0.5907 -0.4099 -1.1389
15340TIP3    H267512   4.457   1.443  14.710  1.2834 -1.5682  1.5373
15341TIP3   OH267513   3.528   3.006  16.999  0.0847 -0.3426  0.4287
15341TIP3    H167514   3.520   3.067  17.072 -0.9766 -1.1525  0.9939
15341TIP3    H267515   3.452   3.025  16.944 -0.3319 -1.2505  0.6834
15342TIP3   OH267516   5.113   4.746   3.081 -0.7152 -0.2029  0.3523
15342TIP3    H167517   5.034   4.712   3.122 -0.0099 -0.8212  1.1996
15342TIP3    H267518   5.165   4.781   3.153 -0.0749 -0.0795 -0.1593
15343TIP3   OH267519   0.413   5.671  15.739 -0.5412 -0.1890 -0.3900
15343TIP3    H167520   0.469   5.617  15.684  1.3131  0.3031  0.9868
15343TIP3    H267521   0.411   5.625  15.824 -2.0617 -0.1002 -0.3659
15344TIP3   OH267522   5.387   1.063   5.477  0.0358  0.2508  0.1195
15344TIP3    H167523   5.430   1.013   5.547  1.5682 -0.6688 -1.4443
15344TIP3    H267524   5.390   1.005   5.401 -0.1866  1.8650 -1.1475
15345TIP3   OH267525   3.369   4.720  15.793  0.3821 -0.5428 -0.1161
15345TIP3    H167526   3.348   4.734  15.701 -1.0648  1.4003  0.4907
15345TIP3    H267527   3.462   4.743  15.800  0.6312 -1.2084 -1.1879
15346TIP3   OH267528   3.506   6.340   2.783 -0.5516 -0.1934 -0.2203
15346TIP3    H167529   3.450   6.383   2.719  1.8518 -1.2974 -3.1637
15346TIP3    H267530   3.497   6.247   2.764  0.8670 -0.4806  0.4675
15347TIP3   OH267531   1.825   2.226   5.512  0.3394  0.5633  0.4730
15347TIP3    H167532   1.901   2.280   5.535  1.6496 -0.4552 -1.3235
15347TIP3    H267533   1.852   2.180   5.432 -1.8032 -0.5878  0.3842
15348TIP3   OH267534   0.981   1.135   0.324  0.7445 -0.0460  0.4633
15348TIP3    H167535   0.902   1.146   0.270  0.2439 -0.9165  0.9969
15348TIP3    H267536   1.026   1.219   0.319 -1.6024  1.3784  2.3368
15349TIP3   OH267537   0.094   5.953  12.593  0.7142  0.3767  0.1706
15349TIP3    H167538   0.107   5.926  12.502  1.7097 -0.2073  0.4888
15349TIP3    H267539  -0.001   5.949  12.605  0.6236 -0.1040 -0.6686
15350TIP3   OH267540   5.388   4.323   1.900 -0.5528 -0.0345 -0.2540
15350TIP3    H167541   5.340   4.350   1.822 -1.2456  0.9852  0.5108
15350TIP3    H267542   5.363   4.387   1.967 -0.4691 -1.2606  0.9761
15351TIP3   OH267543   4.755   5.108  15.285 -0.1578  0.0145 -0.3550
15351TIP3    H167544   4.803   5.137  15.363  0.4750 -1.0665 -0.3436
15351TIP3    H267545   4.811   5.041  15.245 -1.5869 -1.1679 -0.4149
15352TIP3   OH267546   3.947   0.745   5.298  0.7807 -0.9499 -0.5138
15352TIP3    H167547   4.041   0.760   5.291  1.1127 -2.0345  1.2129
15352TIP3    H267548   3.912   0.768   5.212  2.4632  0.5613 -0.8114
15353TIP3   OH267549   0.796   1.255  14.011 -0.1022 -0.1661 -0.1967
15353TIP3    H167550   0.852   1.259  13.933 -0.2954 -2.5576 -0.5056
15353TIP3    H267551   0.741   1.178  13.996  0.7687 -1.4448  2.9210
15354TIP3   OH267552   1.927   4.627   2.280  0.6599 -0.4379  0.0099
15354TIP3    H167553   2.008   4.673   2.260  0.3929  0.0806  0.1224
15354TIP3    H267554   1.859   4.693   2.271 -0.0116 -1.3730 -2.3153
15355TIP3   OH267555   3.604   3.036  12.187  0.2114 -0.6512  0.0690
15355TIP3    H167556   3.589   3.081  12.270  1.1329  0.6059 -0.4189
15355TIP3    H267557   3.544   2.962  12.188 -1.0711  0.3808  1.0622
15356TIP3   OH267558   0.149   0.437   1.021 -0.1133 -0.0049 -0.1796
15356TIP3    H167559   0.181   0.354   1.057  0.1956  0.1302 -0.1377
15356TIP3    H267560   0.227   0.491   1.014 -0.3913  0.4498  0.2466
15357TIP3   OH267561   4.472   2.371   0.244  0.1476  0.3215  0.2241
15357TIP3    H167562   4.549   2.409   0.287  0.4504  1.7423 -1.4802
15357TIP3    H267563   4.398   2.423   0.277  0.1371  0.1009  0.5458
15358TIP3   OH267564   2.232   2.588  11.525  0.0948  0.1133  0.1209
15358TIP3    H167565   2.138   2.568  11.530  0.4427 -1.9997 -1.1604
15358TIP3    H267566   2.269   2.516  11.473  2.3028  1.3419 -0.0555
15359TIP3   OH267567   4.694   0.979  14.036 -0.4173  0.2718  0.2456
15359TIP3    H167568   4.699   0.971  13.940 -0.9225 -0.3958  0.2744
15359TIP3    H267569   4.711   0.891  14.068  0.7769  0.7002  0.8180
15360TIP3   OH267570   0.739   1.812   0.289 -0.1726 -0.0259 -0.0678
15360TIP3    H167571   0.748   1.844   0.199 -1.9686  1.0053  0.1071
15360TIP3    H267572   0.648   1.782   0.296 -0.0334 -0.1625  1.3855
15361TIP3   OH267573   4.686   2.742  14.710 -0.2421  0.2711  0.1393
15361TIP3    H167574   4.726   2.754  14.624  0.5230  1.2888  0.6282
15361TIP3    H267575   4.601   2.787  14.702  0.3934  1.5183  0.3263
15362TIP3   OH267576   6.662   0.367  12.632  0.3878  0.4640  0.1692
15362TIP3    H167577   6.639   0.386  12.541  0.6646 -1.4817 -0.3441
15362TIP3    H267578   6.740   0.420  12.649 -0.0592  1.3448 -0.5147
15363TIP3   OH267579   2.696   5.920   4.165  0.4135 -1.3979  0.0736
15363TIP3    H167580   2.777   5.922   4.115  0.8809  1.5578  0.8328
15363TIP3    H267581   2.700   5.998   4.221 -2.7212 -1.4217  0.4592
15364TIP3   OH267582   3.894   2.032  12.769  0.1318 -0.1421  0.3236
15364TIP3    H167583   3.853   1.956  12.728 -0.2539  0.2476 -0.0132
15364TIP3    H267584   3.841   2.048  12.848 -0.2706  0.2686 -0.0313
15365TIP3   OH267585   5.684   3.586  14.668  0.1408 -0.1032  0.1775
15365TIP3    H167586   5.746   3.554  14.602  0.6236 -0.7444  0.9291
15365TIP3    H267587   5.608   3.616  14.617  0.9530  0.4443 -0.7348
15366TIP3   OH267588   1.988   5.171   2.118  0.1217 -0.1900  1.1707
15366TIP3    H167589   2.011   5.095   2.063  1.2767  0.9052  0.1107
15366TIP3    H267590   2.018   5.147   2.205  2.3907 -0.1226  0.4291
15367TIP3   OH267591   1.178   2.941  11.747  0.0601  0.1004  0.0808
15367TIP3    H167592   1.221   3.015  11.790  0.0613 -0.2441  0.6657
15367TIP3    H267593   1.085   2.966  11.745  0.3971  1.3041 -2.0966
15368TIP3   OH267594   5.126   1.135   6.202 -0.1711 -0.1506 -0.5181
15368TIP3    H167595   5.205   1.083   6.217 -0.6029 -0.8760 -0.7181
15368TIP3    H267596   5.159   1.222   6.179  0.5343  0.0840  1.3019
15369TIP3   OH267597   4.642   3.703   0.250 -0.0731  0.1049  0.2271
15369TIP3    H167598   4.569   3.670   0.198  0.1891  1.6672 -1.1553
15369TIP3    H267599   4.631   3.798   0.249  2.2659  0.3876 -0.4109
15370TIP3   OH267600   1.391   6.591   5.690  0.1469  0.0688 -0.1390
15370TIP3    H167601   1.415   6.562   5.777  2.3521  3.1375  0.4001
15370TIP3    H267602   1.297   6.605   5.693  0.2421  0.3443  1.8329
15371TIP3   OH267603   6.209   5.112   0.744 -0.0783 -0.0710  0.5194
15371TIP3    H167604   6.262   5.152   0.813 -0.6499 -0.4271  1.1693
15371TIP3    H267605   6.273   5.080   0.680  0.4281  0.7276  0.6297
15372TIP3   OH267606   4.768   2.944   2.975  0.2606 -0.3052  0.1883
15372TIP3    H167607   4.741   2.852   2.980 -0.8866 -0.0922 -1.5512
15372TIP3    H267608   4.857   2.945   3.011  0.4991 -2.2075 -0.2820
15373TIP3   OH267609   0.736   2.895   2.950  0.3250  0.7452 -0.0935
15373TIP3    H167610   0.724   2.819   3.007 -1.0854  1.1553  0.1845
15373TIP3    H267611   0.769   2.859   2.868 -1.7460 -0.3533 -0.4762
15374TIP3   OH267612   0.878   6.329   2.095  0.1563 -0.1390 -0.0849
15374TIP3    H167613   0.870   6.361   2.005 -0.4583 -1.7937 -0.6428
15374TIP3    H267614   0.802   6.366   2.141  0.4221  0.6317 -0.2651
15375TIP3   OH267615   3.958   1.457  14.610  0.3402 -0.6670  0.1107
15375TIP3    H167616   3.863   1.452  14.620  0.4812 -0.3549  1.6261
15375TIP3    H267617   3.981   1.374  14.566 -0.8518  0.2029 -2.2609
15376TIP3   OH267618   2.606   3.399  14.582 -0.4597 -0.6967 -0.1858
15376TIP3    H167619   2.591   3.458  14.657 -0.7821  0.6282 -1.2678
15376TIP3    H267620   2.682   3.347  14.608  0.5830  1.0334  0.3265
15377TIP3   OH267621   3.891   3.160  15.588  0.3110 -0.2639 -0.2553
15377TIP3    H167622   3.976   3.118  15.583 -0.3381 -1.4032 -1.8043
15377TIP3    H267623   3.831   3.099  15.546 -1.2324  0.6510  0.5745
15378TIP3   OH267624   4.812   6.224   2.304  0.2366 -0.5993 -0.0750
15378TIP3    H167625   4.813   6.220   2.208  2.2370  0.7931 -0.1443
15378TIP3    H267626   4.854   6.308   2.324 -1.5025 -0.1882  1.9989
15379TIP3   OH267627   0.964   3.871  11.641 -0.0363 -0.1197 -0.0166
15379TIP3    H167628   1.002   3.803  11.696  0.1129 -1.6524 -1.9214
15379TIP3    H267629   1.023   3.946  11.651  1.0564 -1.0167  0.4151
15380TIP3   OH267630   2.403   0.489   3.579 -0.3354  0.3258  0.5307
15380TIP3    H167631   2.491   0.527   3.576  0.5117 -1.5458  0.8944
15380TIP3    H267632   2.418   0.395   3.586 -2.3906 -0.1441 -1.1119
15381TIP3   OH267633   1.078   4.176   0.944  0.0963  1.0527  0.0027
15381TIP3    H167634   1.040   4.172   0.856  0.5908  0.0543 -0.1746
15381TIP3    H267635   1.011   4.220   0.997 -1.7585 -1.4685 -0.1143
15382TIP3   OH267636   1.974   5.873   0.928 -0.1324 -0.2509 -0.0476
15382TIP3    H167637   1.916   5.799   0.941 -0.3050  0.1196  1.3567
15382TIP3    H267638   2.043   5.862   0.993  0.1929  0.4652 -0.2601
15383TIP3   OH267639   3.941   6.630   2.726 -0.0234  0.1860 -0.6178
15383TIP3    H167640   4.030   6.635   2.690  0.1301 -1.3052 -0.4744
15383TIP3    H267641   3.937   6.543   2.767 -1.2786  0.5744  0.0873
15384TIP3   OH267642   2.270   3.866   6.552 -0.0813 -0.6131 -0.3130
15384TIP3    H167643   2.341   3.890   6.493 -1.5469  0.6078 -1.6105
15384TIP3    H267644   2.264   3.771   6.545  3.4882 -1.1197  2.2376
15385TIP3   OH267645   6.551   4.201  16.784 -0.1120  0.0487  0.0895
15385TIP3    H167646   6.591   4.133  16.730  2.2986  1.2659  0.2243
15385TIP3    H267647   6.519   4.266  16.722  0.5072  0.3077  0.0338
15386TIP3   OH267648   2.355   5.426   1.235 -0.1056  0.4101 -0.2659
15386TIP3    H167649   2.328   5.418   1.327 -1.2673  0.2459 -0.6150
15386TIP3    H267650   2.384   5.338   1.211  2.3913  0.9600  0.6030
15387TIP3   OH267651   0.857   3.922   1.277 -0.0374  0.3579 -0.3995
15387TIP3    H167652   0.847   4.016   1.290 -1.1906  0.2850 -0.7179
15387TIP3    H267653   0.858   3.885   1.365 -1.1518  0.5117 -0.3214
15388TIP3   OH267654   6.445   2.738  10.911  0.4448 -0.6424 -0.1106
15388TIP3    H167655   6.444   2.682  10.833  0.1670 -0.0506 -0.5332
15388TIP3    H267656   6.515   2.702  10.966  0.8452 -0.8703 -0.7720
15389TIP3   OH267657   3.271   6.174  15.657  0.2664 -0.2320  0.6336
15389TIP3    H167658   3.333   6.195  15.727 -0.3641  0.7880  0.8983
15389TIP3    H267659   3.198   6.234  15.671 -0.4841 -0.9614 -0.0821
15390TIP3   OH267660   3.632   0.969   3.984 -0.2032  0.6110  0.1354
15390TIP3    H167661   3.692   0.963   4.058 -1.4625 -1.3984  1.0396
15390TIP3    H267662   3.626   0.880   3.950  0.1899  1.4550 -2.2903
15391TIP3   OH267663   0.484   5.230  15.728 -0.5597  1.0771 -0.3595
15391TIP3    H167664   0.418   5.161  15.723 -0.1374  0.7303 -1.3009
15391TIP3    H267665   0.447   5.294  15.788 -0.3862 -0.5828  1.5797
15392TIP3   OH267666   6.588   5.074  12.468  0.0590 -0.3912  0.4699
15392TIP3    H167667   6.573   5.075  12.563 -0.1282  0.6354  0.4320
15392TIP3    H267668   6.683   5.065  12.459 -0.0386 -1.8174  0.7407
15393TIP3   OH267669   6.498   4.217  11.014  0.3161 -0.0186  0.0819
15393TIP3    H167670   6.524   4.133  10.976  0.6270  0.5116 -0.9153
15393TIP3    H267671   6.550   4.281  10.965 -0.3506  0.7906  0.4383
15394TIP3   OH267672   2.827   5.301  14.066  0.1945 -0.1522 -0.3408
15394TIP3    H167673   2.770   5.279  14.139 -0.4289  2.2433 -0.0495
15394TIP3    H267674   2.906   5.248  14.080 -0.1836 -0.2303  1.6861
15395TIP3   OH267675   2.738   3.165  11.015 -0.4073  0.5722  0.3477
15395TIP3    H167676   2.665   3.156  10.953 -0.7388 -0.2267  0.8470
15395TIP3    H267677   2.811   3.197  10.962 -0.7041 -0.0498 -0.4448
15396TIP3   OH267678   2.333   5.771  15.723  0.2065  0.5339  0.2303
15396TIP3    H167679   2.340   5.733  15.635  1.5130 -0.0344  0.5699
15396TIP3    H267680   2.400   5.839  15.725  0.1232  0.5983  0.7616
15397TIP3   OH267681   3.310   4.918   0.453 -0.2350 -0.1272  0.5290
15397TIP3    H167682   3.255   4.991   0.423 -0.4808 -0.6070 -0.2013
15397TIP3    H267683   3.312   4.857   0.379  2.6622  0.6422 -0.0830
15398TIP3   OH267684   4.099   6.775   1.805 -0.4111  0.0796 -0.2995
15398TIP3    H167685   4.173   6.833   1.783 -0.2216  0.0382  0.2167
15398TIP3    H267686   4.054   6.821   1.877 -0.6408 -0.0995 -0.3304
15399TIP3   OH267687   5.396   2.168   2.449 -0.2062  0.4475 -0.6035
15399TIP3    H167688   5.440   2.084   2.436 -0.6410 -0.1210  1.5255
15399TIP3    H267689   5.360   2.189   2.363  0.9934 -0.9104 -1.4696
15400TIP3   OH267690   3.667   4.391   3.970  0.0924  0.0458  0.3315
15400TIP3    H167691   3.666   4.296   3.955  0.3463  0.0950 -0.0085
15400TIP3    H267692   3.611   4.404   4.046  0.4885 -0.4392  0.7069
15401TIP3   OH267693   6.111   0.318  12.007 -0.4243 -0.0313  0.1810
15401TIP3    H167694   6.177   0.311  11.938  1.0272  0.9856  1.4669
15401TIP3    H267695   6.150   0.275  12.083 -2.4988 -2.2259  0.0663
15402TIP3   OH267696   5.878   1.693   6.716  0.4037  0.4543 -0.7139
15402TIP3    H167697   5.813   1.763   6.725  2.5644  2.3375  0.6144
15402TIP3    H267698   5.932   1.721   6.642  0.4891 -0.4980 -1.0156
15403TIP3   OH267699   4.790   6.426   0.522 -0.0822  0.4541 -0.2695
15403TIP3    H167700   4.758   6.345   0.481  0.6745  0.1997 -0.3699
15403TIP3    H267701   4.822   6.398   0.608  2.8856  0.1100 -1.4328
15404TIP3   OH267702   3.640   1.529   6.404  0.1942  0.0009  0.3208
15404TIP3    H167703   3.625   1.442   6.441 -2.3203 -0.0813 -0.8130
15404TIP3    H267704   3.620   1.519   6.311 -1.3091  2.0828  0.3950
15405TIP3   OH267705   3.959   4.199   3.007 -0.1775 -0.5018  0.1715
15405TIP3    H167706   3.945   4.229   2.918  0.7566  1.7791  0.7726
15405TIP3    H267707   3.897   4.249   3.060  0.7615 -0.2818  1.0779
15406TIP3   OH267708   3.601   3.816   2.531 -0.2307  0.7217 -0.1763
15406TIP3    H167709   3.643   3.780   2.452 -0.1783 -0.4006  0.3444
15406TIP3    H267710   3.509   3.793   2.521 -0.1638  0.2680  0.2582
15407TIP3   OH267711   4.034   2.185   1.286  0.3011 -0.2769 -0.0520
15407TIP3    H167712   4.105   2.153   1.231 -1.4077 -1.2704 -1.7269
15407TIP3    H267713   4.078   2.236   1.354  2.5630 -0.3673 -1.3936
15408TIP3   OH267714   6.729   2.131  13.787 -0.3007  0.0595 -0.0323
15408TIP3    H167715   6.650   2.184  13.784  0.4850  1.2291 -0.3098
15408TIP3    H267716   6.725   2.077  13.708 -1.7212 -1.2090  0.8898
15409TIP3   OH267717   4.225   1.581   5.744 -0.2071 -0.1482 -0.0865
15409TIP3    H167718   4.188   1.525   5.811 -0.4324  1.3320  1.0511
15409TIP3    H267719   4.154   1.593   5.681 -0.0985 -1.2652 -0.4359
15410TIP3   OH267720   4.886   6.555   5.884 -0.4860  0.4694 -0.2738
15410TIP3    H167721   4.927   6.481   5.929 -0.0272  0.7863 -0.1675
15410TIP3    H267722   4.875   6.525   5.793 -0.4082  0.2307 -0.2043
15411TIP3   OH267723   1.090   1.153  15.867 -0.4007  0.1499  0.1745
15411TIP3    H167724   1.157   1.187  15.927  0.0030 -1.2234  0.5197
15411TIP3    H267725   1.016   1.131  15.923 -0.2861 -0.4787  0.0835
15412TIP3   OH267726   3.873   0.521  14.004  0.2066  0.8452 -0.5061
15412TIP3    H167727   3.940   0.477  14.055 -0.4820  1.3645  0.8789
15412TIP3    H267728   3.870   0.610  14.040 -1.5491  0.6829 -0.2071
15413TIP3   OH267729   2.462   1.188   6.101 -0.1908  0.1744  0.0043
15413TIP3    H167730   2.530   1.131   6.136 -1.3747 -0.7622  0.7786
15413TIP3    H267731   2.460   1.262   6.162  1.5882  1.2662 -1.1938
15414TIP3   OH267732   1.421   6.257   4.129 -0.3597 -0.4528  0.4748
15414TIP3    H167733   1.514   6.275   4.115  0.1601 -2.1620  1.6015
15414TIP3    H267734   1.387   6.239   4.042  0.1105  1.2339 -0.0816
15415TIP3   OH267735   3.186   0.780   5.554 -0.1870  0.7950 -0.5218
15415TIP3    H167736   3.156   0.731   5.631 -1.4216  1.9564 -0.2206
15415TIP3    H267737   3.265   0.735   5.525 -0.4962 -0.4956  0.5925
15416TIP3   OH267738   0.612   1.177  12.117 -0.4159  0.0723  0.5570
15416TIP3    H167739   0.610   1.238  12.044 -0.9543 -0.2037  0.3365
15416TIP3    H267740   0.637   1.093  12.077 -1.3570 -0.2249  0.5768
15417TIP3   OH267741   2.251   5.259  14.997 -0.1901  0.2044 -0.0999
15417TIP3    H167742   2.247   5.209  15.078 -0.2434  2.2870  1.2176
15417TIP3    H267743   2.190   5.214  14.938 -2.3160  0.2731  1.9589
15418TIP3   OH267744   1.942   0.177   3.586 -0.5634 -0.4581 -0.2757
15418TIP3    H167745   1.991   0.147   3.662 -1.4945 -0.4024  0.3580
15418TIP3    H267746   1.936   0.272   3.597 -1.0139 -0.4902 -0.2191
15419TIP3   OH267747   5.196   3.329   3.619  0.0407 -0.2135 -0.0422
15419TIP3    H167748   5.113   3.281   3.629 -0.3115  0.5815  0.8964
15419TIP3    H267749   5.169   3.420   3.606  0.7727  0.1303  0.7993
15420TIP3   OH267750   3.358   3.691   0.118  0.0601 -0.7197  0.0620
15420TIP3    H167751   3.280   3.715   0.168 -0.1043 -2.5251  0.7083
15420TIP3    H267752   3.410   3.772   0.115 -0.7891 -0.0888  1.5381
15421TIP3   OH267753   0.924   6.211  16.389 -0.3678 -0.1070 -0.0960
15421TIP3    H167754   0.921   6.231  16.482 -1.0695  1.3684 -0.4172
15421TIP3    H267755   0.832   6.207  16.363 -0.1639  0.9980 -1.0291
15422TIP3   OH267756   2.162   0.584   0.963 -0.4851 -0.8120  0.1289
15422TIP3    H167757   2.185   0.618   0.876  0.7497 -1.2454  0.2841
15422TIP3    H267758   2.243   0.587   1.013 -1.2433 -0.3564  1.3580
15423TIP3   OH267759   4.879   0.492  14.604  0.3678 -0.5046 -0.1002
15423TIP3    H167760   4.841   0.577  14.582 -0.6804 -0.8326  0.3971
15423TIP3    H267761   4.891   0.449  14.519  0.9499  0.1537 -0.3582
15424TIP3   OH267762   3.143   3.676  16.500 -0.8240  0.1478  0.7091
15424TIP3    H167763   3.141   3.586  16.532  1.0014 -0.6911 -1.3738
15424TIP3    H267764   3.071   3.681  16.437  1.4553 -1.1150 -2.1365
15425TIP3   OH267765   4.671   2.719   1.384  0.6601 -0.0739 -0.0651
15425TIP3    H167766   4.743   2.657   1.394 -0.7922 -1.7632  0.2505
15425TIP3    H267767   4.641   2.735   1.474 -0.6686 -0.9987 -0.3327
15426TIP3   OH267768   1.204   1.740  16.548  0.4326  0.7753  0.1523
15426TIP3    H167769   1.246   1.676  16.605 -0.0227  0.6746  0.3766
15426TIP3    H267770   1.205   1.822  16.599  0.6331  0.8447  0.0374
15427TIP3   OH267771   4.790   0.982  11.392 -0.4070 -0.1226 -0.3258
15427TIP3    H167772   4.802   0.933  11.310 -0.5596 -1.8311  0.6503
15427TIP3    H267773   4.752   0.919  11.452 -1.0688  1.3582  0.8319
15428TIP3   OH267774   2.075   4.003   3.545 -0.2062  0.0659 -0.3370
15428TIP3    H167775   2.159   4.036   3.511 -0.3682  0.1775 -0.6309
15428TIP3    H267776   2.027   4.082   3.570 -0.5965  0.0584 -1.0497
15429TIP3   OH267777   2.977   1.547  13.384 -0.3589  0.0949  0.1105
15429TIP3    H167778   2.978   1.538  13.289  0.4675 -5.0156  0.4516
15429TIP3    H267779   2.896   1.594  13.403 -1.7767 -0.9270 -3.0074
15430TIP3   OH267780   6.410   3.239   0.996 -0.4161 -0.2628 -0.6272
15430TIP3    H167781   6.475   3.172   0.975  0.3548  0.2976 -0.0432
15430TIP3    H267782   6.341   3.226   0.931 -0.0371 -1.2967 -0.8311
15431TIP3   OH267783   3.032   1.696   1.380 -0.0975  0.4441  0.3339
15431TIP3    H167784   3.053   1.781   1.342 -1.9656  1.1618  0.8969
15431TIP3    H267785   3.024   1.713   1.474  0.4849 -0.5591  0.5824
15432TIP3   OH267786   1.983   2.028  14.527 -0.3261 -0.0974 -0.0853
15432TIP3    H167787   1.971   2.118  14.560 -0.1186  0.0725 -0.4729
15432TIP3    H267788   1.911   2.016  14.465 -1.2944 -0.7585  1.1321
15433TIP3   OH267789   3.544   5.306   3.066  0.6034 -0.4582 -0.3925
15433TIP3    H167790   3.481   5.374   3.039  0.8221 -0.5370 -1.1225
15433TIP3    H267791   3.506   5.268   3.144  0.3479  0.3381 -0.1182
15434TIP3   OH267792   2.546   4.086  15.977 -0.5310  0.0981  0.2524
15434TIP3    H167793   2.533   4.011  15.919  2.9060 -1.5144  1.4146
15434TIP3    H267794   2.591   4.150  15.922 -1.2265  0.3293 -0.0539
15435TIP3   OH267795   6.106   5.030  10.926 -0.0920 -0.1018  0.0625
15435TIP3    H167796   6.071   4.977  10.997 -0.2753  0.1880  0.1873
15435TIP3    H267797   6.041   5.099  10.913 -0.6521 -0.8328 -1.1832
15436TIP3   OH267798   1.075   6.800   3.556  0.7969 -0.2883  0.0432
15436TIP3    H167799   1.143   6.852   3.514  0.2995  0.6102  0.3439
15436TIP3    H267800   1.096   6.805   3.650  0.9806 -0.9725  0.0453
15437TIP3   OH267801   3.359   3.152   4.907  0.7919  0.2730 -1.0163
15437TIP3    H167802   3.428   3.214   4.884  0.6520  0.5018 -0.8125
15437TIP3    H267803   3.321   3.127   4.823 -0.0322  1.4712 -1.0134
15438TIP3   OH267804   6.040   6.410  14.067  0.1044 -0.4186  0.3493
15438TIP3    H167805   6.086   6.347  14.011  1.4712  0.7456  0.1187
15438TIP3    H267806   6.105   6.431  14.135 -0.5587  0.2952  0.7579
15439TIP3   OH267807   2.404   1.460  15.589 -0.1327 -0.7503  0.4650
15439TIP3    H167808   2.447   1.505  15.516 -0.2222 -0.3695  0.6446
15439TIP3    H267809   2.323   1.425  15.552  0.6403 -2.0441 -0.0411
15440TIP3   OH267810   1.137   5.708  13.370  0.3782 -0.6065  0.3031
15440TIP3    H167811   1.100   5.707  13.458 -1.7684  0.3263 -0.5553
15440TIP3    H267812   1.086   5.643  13.322 -0.9059  1.4251 -1.1745
15441TIP3   OH267813   0.528   5.629   4.329 -0.1835  0.3734  0.4900
15441TIP3    H167814   0.586   5.680   4.271 -0.7280 -0.6337 -0.9537
15441TIP3    H267815   0.524   5.681   4.409  2.0561  0.8765  0.3063
15442TIP3   OH267816   4.943   5.359   4.617 -0.4563  0.0488  0.1813
15442TIP3    H167817   4.939   5.374   4.711 -0.2217 -2.0080  0.5580
15442TIP3    H267818   4.853   5.333   4.594 -1.0693  2.7227 -0.5950
15443TIP3   OH267819   2.136   6.373  14.561 -0.4320 -0.6194  0.5007
15443TIP3    H167820   2.123   6.280  14.544  0.9223 -1.0863  1.9248
15443TIP3    H267821   2.052   6.414  14.539 -0.6835 -2.0159 -1.2139
15444TIP3   OH267822   0.226   6.472  15.265  0.5228  0.0691 -0.1872
15444TIP3    H167823   0.309   6.432  15.289  0.4604 -0.3173 -0.6041
15444TIP3    H267824   0.178   6.481  15.348  1.1236  0.6380  0.1024
15445TIP3   OH267825   6.351   5.445  14.097 -0.4341  0.0558  0.4638
15445TIP3    H167826   6.351   5.399  14.014 -0.8195  1.1082 -0.1276
15445TIP3    H267827   6.264   5.484  14.103  0.1038  1.2451  0.6607
15446TIP3   OH267828   4.204   1.171   4.201  0.2130  0.2869  0.1250
15446TIP3    H167829   4.139   1.133   4.260 -0.8019 -0.2067 -1.2700
15446TIP3    H267830   4.271   1.104   4.194  0.0916  0.1418  0.3319
15447TIP3   OH267831   6.651   0.186  15.769 -0.2846  0.0691  0.6769
15447TIP3    H167832   6.623   0.237  15.693 -0.6759  0.6226  1.1832
15447TIP3    H267833   6.570   0.166  15.816 -0.1318 -1.0806  0.4464
15448TIP3   OH267834   1.078   4.473  16.059  0.0922  0.3143 -0.1891
15448TIP3    H167835   1.072   4.545  16.123  0.9301  0.7877 -0.6324
15448TIP3    H267836   1.172   4.461  16.045 -0.0395 -0.9678 -0.0195
15449TIP3   OH267837   1.723   3.572  12.666  0.2505  0.4064  0.0702
15449TIP3    H167838   1.815   3.564  12.643  0.0167  0.2139 -0.8228
15449TIP3    H267839   1.707   3.498  12.725  0.5111  0.0559 -0.2926
15450TIP3   OH267840   6.411   6.386  14.234 -0.1242 -0.4569 -0.4374
15450TIP3    H167841   6.401   6.387  14.329  0.9428 -1.2540 -0.3134
15450TIP3    H267842   6.438   6.297  14.214  0.9793  0.0860 -1.3577
15451TIP3   OH267843   2.874   0.308   4.782 -0.0045 -0.2879  0.3783
15451TIP3    H167844   2.941   0.269   4.724 -0.1499  0.0799 -0.0367
15451TIP3    H267845   2.902   0.399   4.793 -0.2282 -0.2363  0.5200
15452TIP3   OH267846   6.115   4.319   1.083  0.0642 -0.2609 -0.1733
15452TIP3    H167847   6.106   4.245   1.023  1.1599  0.0894 -0.7747
15452TIP3    H267848   6.180   4.291   1.147  0.4545  0.1730 -0.3823
15453TIP3   OH267849   2.568   4.397   1.848 -0.5000 -0.1745  0.5442
15453TIP3    H167850   2.623   4.320   1.832  0.7874 -0.0507  4.0923
15453TIP3    H267851   2.481   4.361   1.864 -0.7991 -0.5830 -1.7795
15454TIP3   OH267852   4.318   6.751  16.363  0.8226 -0.4189 -0.2892
15454TIP3    H167853   4.345   6.723  16.275 -2.9639 -1.2079 -1.3051
15454TIP3    H267854   4.299   6.669  16.409 -0.6046  0.1198  0.0874
15455TIP3   OH267855   5.286   1.125   2.737 -0.3694 -0.0283  0.2140
15455TIP3    H167856   5.297   1.220   2.742  3.0037 -0.3545  0.2899
15455TIP3    H267857   5.375   1.091   2.737 -1.5167 -3.1882 -0.3810
15456TIP3   OH267858   5.331   5.653   5.069 -0.0839 -0.3467  0.3710
15456TIP3    H167859   5.417   5.626   5.102 -0.4057 -0.7658  0.8739
15456TIP3    H267860   5.275   5.653   5.147 -0.7829 -1.0641 -0.1273
15457TIP3   OH267861   3.504   5.810   5.684 -0.0059 -0.0129 -0.2884
15457TIP3    H167862   3.434   5.751   5.657  0.3443  0.1382 -1.5620
15457TIP3    H267863   3.513   5.872   5.612  1.9432 -0.4818 -0.4835
15458TIP3   OH267864   5.262   2.296  12.719 -0.7241  0.7978 -0.1584
15458TIP3    H167865   5.303   2.225  12.669 -2.1775  0.5088 -0.9516
15458TIP3    H267866   5.236   2.255  12.802  0.9271  1.0797  0.5190
15459TIP3   OH267867   3.203   5.276   4.410 -0.1618  0.1086  0.0149
15459TIP3    H167868   3.121   5.319   4.383 -0.9569  0.3636  2.7161
15459TIP3    H267869   3.270   5.344   4.398 -0.6583  0.5531 -0.2938
15460TIP3   OH267870   2.700   1.460  13.318 -0.0476  0.3768  0.2438
15460TIP3    H167871   2.617   1.497  13.350  0.2404  1.4993 -0.2851
15460TIP3    H267872   2.673   1.392  13.257 -0.5971  1.0831 -0.3183
15461TIP3   OH267873   5.886   4.590   4.915  0.7009 -0.3076  0.2496
15461TIP3    H167874   5.901   4.649   4.840 -0.2874  1.6267  1.5326
15461TIP3    H267875   5.908   4.644   4.991 -2.2646 -0.9152  1.5712
15462TIP3   OH267876   5.553   5.964  12.274 -0.0987 -0.7730  0.4876
15462TIP3    H167877   5.557   6.030  12.205  0.5930 -2.2034 -0.8829
15462TIP3    H267878   5.546   5.881  12.226  0.0091 -1.7549  2.1572
15463TIP3   OH267879   0.057   3.791  16.583  0.1068 -0.2325  0.0645
15463TIP3    H167880   0.072   3.841  16.663  0.8825 -1.4200  0.6773
15463TIP3    H267881   0.126   3.725  16.582 -1.2377 -1.6883 -0.4046
15464TIP3   OH267882   6.566   4.888   3.563  0.3502  0.5205  0.0477
15464TIP3    H167883   6.556   4.888   3.658 -0.9055  1.8782 -0.0756
15464TIP3    H267884   6.659   4.907   3.549  0.6472 -0.2102  1.0086
15465TIP3   OH267885   2.622   4.646  17.279  0.2450 -0.2391  0.3145
15465TIP3    H167886   2.670   4.591  17.342  1.4013 -1.6927 -1.7499
15465TIP3    H267887   2.666   4.629  17.195 -2.5742 -0.0081 -1.2699
15466TIP3   OH267888   1.186   0.447  10.792 -0.3856  0.2619 -0.1372
15466TIP3    H167889   1.225   0.512  10.734  0.1745 -0.6789 -0.8437
15466TIP3    H267890   1.094   0.470  10.797 -0.4566  0.2951 -1.4866
15467TIP3   OH267891   4.384   1.190  15.379 -0.1196 -0.5247  0.0646
15467TIP3    H167892   4.395   1.103  15.416 -1.3476  0.9506  4.1343
15467TIP3    H267893   4.470   1.231  15.387  0.0180 -0.7600 -0.2148
15468TIP3   OH267894   3.116   0.692   1.446  0.6208 -0.2129 -0.0437
15468TIP3    H167895   3.134   0.783   1.422 -0.7423  0.6489  2.1412
15468TIP3    H267896   3.184   0.670   1.509 -0.5235  0.0958  1.3049
15469TIP3   OH267897   5.269   0.765   2.415 -0.3801 -0.0921  0.1880
15469TIP3    H167898   5.302   0.805   2.496 -1.2076 -0.5843  0.7769
15469TIP3    H267899   5.264   0.671   2.435 -2.4557  0.0164  0.2327
15470TIP3   OH267900   0.261   3.776  14.032 -0.5689  0.1399  0.0125
15470TIP3    H167901   0.209   3.698  14.051 -0.0169  0.0297  1.1143
15470TIP3    H267902   0.249   3.833  14.108 -3.3701  2.4682 -2.0743
15471TIP3   OH267903   1.874   5.498  12.612  0.4456  0.3980  0.0102
15471TIP3    H167904   1.844   5.474  12.699  0.8999  3.1886  0.9730
15471TIP3    H267905   1.966   5.471  12.611  0.3058 -0.1054  0.1830
15472TIP3   OH267906   0.281   5.144   3.860 -0.2082 -0.1453 -0.0030
15472TIP3    H167907   0.312   5.127   3.771  1.1973  0.0946  0.4379
15472TIP3    H267908   0.187   5.156   3.850 -0.0694 -0.1538 -1.4576
15473TIP3   OH267909   6.137   6.309  10.954 -0.6304  0.3171 -0.2314
15473TIP3    H167910   6.086   6.349  10.884  0.0983  1.2607 -0.2353
15473TIP3    H267911   6.107   6.218  10.957 -0.3131  0.1158 -2.1211
15474TIP3   OH267912   5.421   1.518  16.698  0.2007 -0.4209 -0.0114
15474TIP3    H167913   5.432   1.557  16.611  0.2745  0.2036  0.2756
15474TIP3    H267914   5.505   1.476  16.716 -0.2508 -1.6788 -0.8036
15475TIP3   OH267915   3.108   0.582   4.856  0.2953  0.2956  0.4912
15475TIP3    H167916   3.162   0.537   4.921 -1.2518 -2.1825  0.1131
15475TIP3    H267917   3.038   0.622   4.907 -0.7964 -1.4664  0.4013
15476TIP3   OH267918   5.135   0.694  16.254 -0.0393  0.4976  0.1615
15476TIP3    H167919   5.190   0.749  16.310  0.5588  0.7730 -0.6840
15476TIP3    H267920   5.084   0.757  16.203 -1.1832  0.2431  0.9778
15477TIP3   OH267921   0.787   3.291   0.461  0.3141 -0.3157  0.3190
15477TIP3    H167922   0.727   3.364   0.448  2.2873  1.0850 -1.2014
15477TIP3    H267923   0.753   3.245   0.538 -0.8390  2.3064  1.4185
15478TIP3   OH267924   4.030   5.021  16.826  0.6344 -0.4653  0.0068
15478TIP3    H167925   4.036   5.022  16.730  0.8606 -0.2489  0.0245
15478TIP3    H267926   4.101   5.078  16.856  2.0965 -2.4107  0.3721
15479TIP3   OH267927   3.871   5.761   0.239  0.2178  0.4256 -0.2244
15479TIP3    H167928   3.945   5.748   0.297  0.4183  1.3253 -0.2636
15479TIP3    H267929   3.832   5.674   0.228  1.1140  0.0000 -0.0079
15480TIP3   OH267930   3.089   0.264  10.670 -0.2186 -0.2168 -0.5066
15480TIP3    H167931   3.138   0.329  10.721 -0.4104  1.3152 -2.2221
15480TIP3    H267932   3.138   0.256  10.588 -1.3867 -0.6186 -1.1747
15481TIP3   OH267933   0.241   4.093   4.473  0.1116 -0.4420  0.2390
15481TIP3    H167934   0.287   4.090   4.389 -0.1616  0.5869  0.0406
15481TIP3    H267935   0.309   4.081   4.538  0.9674  2.7803  0.0180
15482TIP3   OH267936   4.237   0.791  13.034 -0.0804 -0.3321 -0.3057
15482TIP3    H167937   4.196   0.789  13.120  0.5982  0.8674  0.0522
15482TIP3    H267938   4.257   0.699  13.014 -0.7564 -0.6708  0.5558
15483TIP3   OH267939   6.681   4.091   2.833 -0.8666 -0.4449  0.2453
15483TIP3    H167940   6.666   4.057   2.921 -2.5089 -0.2546  0.0555
15483TIP3    H267941   6.662   4.185   2.840 -0.1386 -0.2672 -0.1117
15484TIP3   OH267942   2.134   5.939  16.404 -0.6534  0.2627  0.5593
15484TIP3    H167943   2.107   5.858  16.360  0.1064  0.3382 -0.0707
15484TIP3    H267944   2.080   5.944  16.482 -0.3708 -1.1135  0.8607
15485TIP3   OH267945   6.431   4.630   3.869  0.1730  0.5078  0.4909
15485TIP3    H167946   6.364   4.696   3.857 -1.0220 -0.6099  0.8835
15485TIP3    H267947   6.412   4.591   3.954  1.0956 -0.0629  0.4490
15486TIP3   OH267948   6.196   3.310   1.922 -0.1618  0.7170 -0.8007
15486TIP3    H167949   6.139   3.380   1.954  0.4602  1.2242 -0.7845
15486TIP3    H267950   6.282   3.351   1.915  0.6282 -0.5613  1.0842
15487TIP3   OH267951   2.344   6.303  13.739 -0.1603  0.4057  0.0650
15487TIP3    H167952   2.326   6.211  13.759 -0.8815  0.2814 -1.1505
15487TIP3    H267953   2.259   6.341  13.716  0.3799  0.9556 -1.0995
15488TIP3   OH267954   5.695   5.922   0.033 -0.0383  0.1600  0.0240
15488TIP3    H167955   5.713   5.835  -0.004 -2.4052 -0.6909  0.7854
15488TIP3    H267956   5.756   5.980  -0.012 -0.4145 -1.4358 -2.6809
15489TIP3   OH267957   6.109   1.027   3.011  0.2396 -0.6228 -0.7362
15489TIP3    H167958   6.144   1.113   2.989 -1.0712  0.2177  0.4368
15489TIP3    H267959   6.016   1.033   2.994 -0.2189 -1.1236  1.4228
15490TIP3   OH267960   4.817   4.416   2.563 -0.0671  0.1731 -0.3021
15490TIP3    H167961   4.738   4.467   2.545 -1.4850 -1.6435  0.6527
15490TIP3    H267962   4.863   4.413   2.479 -1.8678 -0.1787 -1.2984
15491TIP3   OH267963   6.399   5.261  14.271  0.1041  0.1266 -0.1685
15491TIP3    H167964   6.413   5.178  14.226  1.9280 -0.6679  1.7913
15491TIP3    H267965   6.380   5.324  14.201 -0.0715 -1.6679 -1.7638
15492TIP3   OH267966   2.800   5.595   4.676 -0.1859 -0.1109 -0.5331
15492TIP3    H167967   2.873   5.656   4.683  0.2428 -0.3755 -2.4925
15492TIP3    H267968   2.725   5.644   4.710  0.3239  1.1964 -1.2789
15493TIP3   OH267969   4.243   5.206  16.927  0.1484  0.6547 -0.0793
15493TIP3    H167970   4.270   5.175  17.014 -0.1529  0.0102 -0.2101
15493TIP3    H267971   4.324   5.213  16.878  0.4228  1.9271  0.5337
15494TIP3   OH267972   3.215   2.435  14.830 -0.0841 -0.0390  0.5014
15494TIP3    H167973   3.290   2.435  14.890  0.7971  1.0347 -0.5715
15494TIP3    H267974   3.253   2.445  14.743 -1.4681  0.4046 -0.0760
15495TIP3   OH267975   2.680   2.915  14.263  0.1001  0.5601 -0.3792
15495TIP3    H167976   2.686   3.010  14.260 -0.5187  0.5842 -1.1855
15495TIP3    H267977   2.769   2.886  14.281 -0.6575  1.4585  5.8394
15496TIP3   OH267978   3.736   2.286  10.660  0.0225 -0.4181 -0.0803
15496TIP3    H167979   3.685   2.253  10.733 -3.2378  1.7629 -1.2636
15496TIP3    H267980   3.710   2.232  10.585  1.2971 -0.8753 -0.2064
15497TIP3   OH267981   2.138   1.847  11.041  0.1336 -0.1854  0.3931
15497TIP3    H167982   2.210   1.910  11.034  0.0977 -0.3739 -2.0084
15497TIP3    H267983   2.182   1.763  11.051  0.2696 -0.3433 -1.4444
15498TIP3   OH267984   6.487   2.823   4.122 -0.2999  0.0583  0.1420
15498TIP3    H167985   6.515   2.733   4.106 -0.8361 -0.0623 -0.1263
15498TIP3    H267986   6.519   2.842   4.210 -1.1084 -0.7708  0.6357
15499TIP3   OH267987   0.323   5.712  11.627 -0.4064  0.0500  0.5861
15499TIP3    H167988   0.303   5.740  11.537 -1.3626 -0.7400  0.5356
15499TIP3    H267989   0.314   5.616  11.624  0.6394 -0.0765  1.2700
15500TIP3   OH267990   5.199   3.341   0.339  0.2382  0.3779  0.4594
15500TIP3    H167991   5.221   3.286   0.415 -0.1250  0.9054  0.9498
15500TIP3    H267992   5.111   3.373   0.357 -1.3616 -2.4223 -1.9003
15501TIP3   OH267993   0.578   4.739  14.645  1.0133 -0.0049 -0.7789
15501TIP3    H167994   0.491   4.758  14.680  1.1072 -2.6821  1.1292
15501TIP3    H267995   0.600   4.814  14.590 -2.0949  1.1390 -0.5246
15502TIP3   OH267996   0.043   1.100  16.837  0.4632  0.5574 -0.2248
15502TIP3    H167997   0.077   1.114  16.748 -3.0439 -2.5055 -2.2346
15502TIP3    H267998  -0.035   1.155  16.842 -0.4359 -0.7269  0.2032
15503TIP3   OH267999   1.763   5.314  12.112 -0.0356  0.1575 -0.1162
15503TIP3    H168000   1.833   5.360  12.160  0.3389 -0.1546 -0.3588
15503TIP3    H268001   1.713   5.384  12.071  0.2750  0.3740 -0.1294
15504TIP3   OH268002   6.124   4.221  11.316  0.6329 -0.1863 -0.2851
15504TIP3    H168003   6.127   4.126  11.304  1.3317 -0.2557  0.3763
15504TIP3    H268004   6.215   4.245  11.336  0.1836  0.3972  1.1057
15505TIP3   OH268005   6.506   6.140   4.164 -0.1720 -0.3158 -0.4906
15505TIP3    H168006   6.548   6.062   4.198 -0.4162  0.1738  0.9796
15505TIP3    H268007   6.529   6.209   4.226 -0.2585  0.7052 -1.5713
15506TIP3   OH268008   1.354   5.185  12.261 -0.2328  0.1478 -0.3397
15506TIP3    H168009   1.428   5.209  12.206  0.0277  1.2533  0.4700
15506TIP3    H268010   1.277   5.197  12.206  0.0315  1.1913 -0.4861
15507TIP3   OH268011   5.962   3.082  15.852 -0.3679 -0.5171 -0.5466
15507TIP3    H168012   5.870   3.056  15.854 -0.5804  0.2970  1.1409
15507TIP3    H268013   5.987   3.076  15.760 -2.1500 -0.5946 -1.0374
15508TIP3   OH268014   0.091   6.032   2.154  0.0000  0.4249  0.2958
15508TIP3    H168015   0.180   6.044   2.186 -0.5729 -0.2466  2.1666
15508TIP3    H268016   0.100   5.964   2.086  0.9914  0.7697  0.0688
15509TIP3   OH268017   2.653   3.504  17.100 -0.5813  0.4080 -0.5884
15509TIP3    H168018   2.678   3.594  17.123  0.5233  0.0262 -0.2998
15509TIP3    H268019   2.682   3.493  17.010 -1.6409  0.6700 -0.9769
15510TIP3   OH268020   2.524   3.659  13.661 -0.2929  0.1796  0.1504
15510TIP3    H168021   2.606   3.678  13.707 -0.0734  2.1942 -1.0102
15510TIP3    H268022   2.532   3.568  13.633  1.2660  0.1578  0.6385
15511TIP3   OH268023   5.339   3.184   5.298  0.0075 -0.4046  0.3199
15511TIP3    H168024   5.342   3.143   5.385  2.2399 -0.5937  0.1677
15511TIP3    H268025   5.368   3.115   5.239  1.0464  0.5444 -0.2718
15512TIP3   OH268026   4.172   4.874   1.136  0.3887  0.4979 -0.2148
15512TIP3    H168027   4.208   4.899   1.221 -1.0280  1.4882  0.1194
15512TIP3    H268028   4.152   4.957   1.092 -2.4225  0.0250  0.0574
15513TIP3   OH268029   2.687   1.173   6.296  0.1738 -0.3230 -0.0193
15513TIP3    H168030   2.645   1.149   6.378 -0.0353 -0.5182 -0.1834
15513TIP3    H268031   2.765   1.223   6.323  0.1750 -0.4924  0.2973
15514TIP3   OH268032   3.957   1.599  13.814 -0.1923  0.2868 -1.1315
15514TIP3    H168033   3.927   1.536  13.879 -1.0658  0.6995 -1.1236
15514TIP3    H268034   4.027   1.647  13.858  0.0646 -0.2659 -0.9293
15515TIP3   OH268035   5.053   6.672   3.836 -0.0508  0.1726  0.1056
15515TIP3    H168036   5.109   6.750   3.838 -0.6016  0.5639  0.3776
15515TIP3    H268037   4.964   6.707   3.842 -0.2823 -0.5015  0.5443
15516TIP3   OH268038   0.193   3.845   0.021 -0.3480  0.6574  0.1917
15516TIP3    H168039   0.136   3.834  -0.055  1.5427 -1.2506 -0.9974
15516TIP3    H268040   0.271   3.888  -0.014 -0.5013  2.0917  1.5620
15517TIP3   OH268041   2.094   5.727  14.109  0.2023  0.3271 -0.5160
15517TIP3    H168042   2.120   5.702  14.197  0.5826  1.2636 -0.3503
15517TIP3    H268043   2.175   5.758  14.068  0.3492 -1.5634 -1.7232
15518TIP3   OH268044   6.299   3.572  14.020  0.2153 -0.6776  0.5641
15518TIP3    H168045   6.238   3.562  14.094 -2.4425  2.7066 -1.0081
15518TIP3    H268046   6.260   3.519  13.950  0.8653 -1.1388  0.5516
15519TIP3   OH268047   5.050   4.776  16.950 -0.6823  0.4490 -0.4936
15519TIP3    H168048   5.123   4.806  16.896  0.8952 -0.1095  1.2756
15519TIP3    H268049   5.011   4.704  16.900 -0.3955  1.1444 -1.7270
15520TIP3   OH268050   4.672   4.556  13.229  0.4060  0.2511 -0.1130
15520TIP3    H168051   4.674   4.602  13.146 -1.5263  0.8631  0.1634
15520TIP3    H268052   4.581   4.561  13.258  0.8908 -0.6140  1.6680
15521TIP3   OH268053   4.561   1.008   2.434 -0.3406 -0.4237 -0.1126
15521TIP3    H168054   4.509   0.929   2.448  0.9394 -1.0834  1.0309
15521TIP3    H268055   4.620   1.011   2.509  0.4224  0.9904 -0.7596
15522TIP3   OH268056   0.358   4.571   2.079  0.3735 -0.2028 -0.1266
15522TIP3    H168057   0.291   4.504   2.065  0.0267  0.4265 -1.6086
15522TIP3    H268058   0.441   4.527   2.058  0.2337 -0.4155 -0.2317
15523TIP3   OH268059   1.878   5.778  12.567  0.1755  0.0695 -0.0737
15523TIP3    H168060   1.831   5.842  12.621 -0.3611 -1.1118  0.8824
15523TIP3    H268061   1.828   5.697  12.578  0.6878 -0.4439 -1.4937
15524TIP3   OH268062   2.588   3.266   0.978  0.2968 -0.4830 -0.5377
15524TIP3    H168063   2.563   3.329   1.045  0.6548 -0.7296 -0.1692
15524TIP3    H268064   2.507   3.250   0.928 -1.2281 -3.9594  2.8262
15525TIP3   OH268065   4.472   2.252  10.695 -0.4504 -0.1165  0.1321
15525TIP3    H168066   4.414   2.275  10.767  1.5117  1.1043  1.3763
15525TIP3    H268067   4.462   2.325  10.633  0.6066  0.6802  0.8858
15526TIP3   OH268068   6.637   6.582   6.007 -0.3747 -0.0399 -0.0735
15526TIP3    H168069   6.602   6.661   5.968 -0.7599 -0.2525 -0.1696
15526TIP3    H268070   6.657   6.607   6.098  1.9955  0.8652 -0.8141
15527TIP3   OH268071   3.052   1.629  15.373 -0.0119 -0.2170  0.8135
15527TIP3    H168072   2.959   1.643  15.352  0.0119  0.4370  1.1264
15527TIP3    H268073   3.074   1.547  15.329 -1.1989 -1.3286  2.2226
15528TIP3   OH268074   3.482   3.998  13.344  0.5707  0.3389  0.4028
15528TIP3    H168075   3.555   3.959  13.296  0.5264  2.1944 -1.2234
15528TIP3    H268076   3.508   3.990  13.436  3.1426  1.5443 -0.1689
15529TIP3   OH268077   5.741   5.012  15.560 -0.3627 -0.1674  0.3721
15529TIP3    H168078   5.658   5.057  15.575 -0.1122 -0.3897  2.5336
15529TIP3    H268079   5.728   4.925  15.598  1.0401 -0.0363  1.1527
15530TIP3   OH268080   4.233   2.328  13.699 -0.1847 -0.0521 -0.0854
15530TIP3    H168081   4.212   2.394  13.765  1.3811  0.7173 -0.3275
15530TIP3    H268082   4.252   2.379  13.620  3.2268 -0.5989  0.2904
15531TIP3   OH268083   0.026   1.204   1.508 -0.2087 -0.1873 -0.1354
15531TIP3    H168084   0.078   1.134   1.547 -1.1293 -0.7549  0.0812
15531TIP3    H268085   0.050   1.283   1.557  1.4134 -0.1888 -0.8882
15532TIP3   OH268086   5.720   4.707  16.837 -0.0399 -0.0546  0.1006
15532TIP3    H168087   5.747   4.750  16.918  0.0919  1.6735 -0.8528
15532TIP3    H268088   5.641   4.754  16.809 -0.6069 -1.2165 -0.3193
15533TIP3   OH268089   2.637   3.246   3.691  0.5594 -0.5495 -0.2168
15533TIP3    H168090   2.613   3.192   3.766 -0.3803 -0.6856 -0.5968
15533TIP3    H268091   2.642   3.335   3.726  1.6284 -0.8148  0.3119
15534TIP3   OH268092   3.829   1.470  15.891  0.3573 -0.1553  0.2722
15534TIP3    H168093   3.885   1.421  15.831  0.9104  0.4342  0.3167
15534TIP3    H268094   3.785   1.534  15.835  1.0104  0.5147  0.5329
15535TIP3   OH268095   5.058   6.649   4.363 -0.2076  0.2549  0.3663
15535TIP3    H168096   5.098   6.660   4.450 -0.5696  0.4958  0.5020
15535TIP3    H268097   5.104   6.573   4.326  1.2268  1.2736  0.0230
15536TIP3   OH268098   6.724   3.663  15.818  0.0226 -0.5155 -0.2850
15536TIP3    H168099   6.663   3.732  15.846 -0.5492 -0.9649 -0.4196
15536TIP3    H268100   6.701   3.588  15.873 -0.6517 -1.1986 -1.4708
15537TIP3   OH268101   6.535   3.252   3.102 -0.0242 -0.4612 -0.4226
15537TIP3    H168102   6.442   3.236   3.120  0.3048 -1.4371  0.5036
15537TIP3    H268103   6.540   3.261   3.007 -1.0861 -0.3063 -0.4693
15538TIP3   OH268104   1.478   1.555   6.459  0.1727 -0.1004 -0.0272
15538TIP3    H168105   1.485   1.650   6.464  1.1399 -0.1839  0.4258
15538TIP3    H268106   1.565   1.526   6.430 -0.5707 -0.7440 -1.6790
15539TIP3   OH268107   3.209   2.246   2.031  0.2190 -0.0578 -0.6077
15539TIP3    H168108   3.220   2.290   2.115 -1.0765 -0.7059 -0.0887
15539TIP3    H268109   3.115   2.230   2.023  0.1814  0.9529 -2.6842
15540TIP3   OH268110   0.428   1.616  14.870 -0.3646  0.6425 -0.6242
15540TIP3    H168111   0.430   1.704  14.907  2.7724  0.2528  0.2827
15540TIP3    H268112   0.402   1.629  14.778  0.6174  2.5662 -0.6514
15541TIP3   OH268113   3.177   6.612   4.603  0.2554  0.4246 -0.5114
15541TIP3    H168114   3.105   6.658   4.645 -1.3044 -1.1985 -1.3167
15541TIP3    H268115   3.210   6.553   4.671 -0.9117 -0.7086 -0.9030
15542TIP3   OH268116   1.200   6.360  12.442  0.6614  0.4169 -0.5125
15542TIP3    H168117   1.168   6.276  12.410  0.2215 -0.4161  2.0287
15542TIP3    H268118   1.288   6.343  12.474  0.9139  1.1241 -0.8151
15543TIP3   OH268119   5.552   2.924  10.612 -0.0341 -0.4042  0.4534
15543TIP3    H168120   5.501   2.859  10.565 -2.2903  1.3043  0.4981
15543TIP3    H268121   5.573   2.990  10.547 -1.0920  0.7633  1.2968
15544TIP3   OH268122   0.142   6.761  11.805 -0.0512 -0.5105  0.1467
15544TIP3    H168123   0.090   6.753  11.885  0.4180  0.5218  0.5759
15544TIP3    H268124   0.167   6.671  11.783 -2.4325 -1.0729 -0.3723
15545TIP3   OH268125   1.300   4.963   2.739 -0.1699 -0.6108  0.1346
15545TIP3    H168126   1.366   4.917   2.791 -1.0930  0.0393  1.9142
15545TIP3    H268127   1.220   4.956   2.791 -0.7246  1.5079 -0.4015
15546TIP3   OH268128   0.832   6.215   4.863 -0.0087  0.2776  0.4949
15546TIP3    H168129   0.833   6.258   4.948 -0.4907  1.7785 -0.2354
15546TIP3    H268130   0.907   6.155   4.865 -0.9273 -0.8610  2.5283
15547TIP3   OH268131   5.874   4.608  13.778  0.2613 -0.1152 -0.5906
15547TIP3    H168132   5.894   4.533  13.722 -0.2115 -0.5452 -0.1868
15547TIP3    H268133   5.878   4.572  13.867 -0.2014  0.2904 -0.4100
15548TIP3   OH268134   0.969   4.938  12.776  0.3362 -0.1411  0.5716
15548TIP3    H168135   0.922   4.889  12.843 -0.4829 -1.1393 -0.7069
15548TIP3    H268136   0.936   4.903  12.693 -1.2476  3.5163 -0.4154
15549TIP3   OH268137   0.133   1.509   5.776  0.1016  0.3429  0.3043
15549TIP3    H168138   0.228   1.510   5.761 -0.0714 -1.7976 -1.0564
15549TIP3    H268139   0.095   1.528   5.690 -0.7320  0.7606  0.7543
15550TIP3   OH268140   4.057   4.055   6.117  0.0872  0.6658 -0.1858
15550TIP3    H168141   4.003   4.086   6.045  1.6390  1.7220 -0.9234
15550TIP3    H268142   4.040   3.961   6.122  0.2247  0.5155 -2.1720
15551TIP3   OH268143   3.353   1.026  11.200  0.4278 -0.0790  0.1894
15551TIP3    H168144   3.337   1.078  11.121  1.2284 -1.2599 -0.7628
15551TIP3    H268145   3.289   0.954  11.195 -0.0455  0.2744  1.0206
15552TIP3   OH268146   1.786   4.329   1.127 -0.6980  0.6829  0.2679
15552TIP3    H168147   1.855   4.334   1.061  0.0928 -2.2122  0.7925
15552TIP3    H268148   1.832   4.338   1.211 -1.0916  0.0134  0.5692
15553TIP3   OH268149   3.374   0.171  12.270 -0.7740 -0.6843  0.6882
15553TIP3    H168150   3.324   0.146  12.192 -1.6134  1.0935  0.6367
15553TIP3    H268151   3.416   0.090  12.298 -1.5157 -1.6266 -0.8524
15554TIP3   OH268152   5.006   5.894   3.536 -0.3810 -0.3941  0.0063
15554TIP3    H168153   5.034   5.825   3.475 -1.4707 -1.4376  0.6489
15554TIP3    H268154   5.011   5.974   3.485  1.8951 -0.8047 -0.4434
15555TIP3   OH268155   2.608   3.241  11.703  0.0628  0.3612  0.5165
15555TIP3    H168156   2.632   3.155  11.667 -1.9285 -0.2622  0.6361
15555TIP3    H268157   2.555   3.282  11.634 -0.4516  0.7885  1.1627
15556TIP3   OH268158   0.855   6.345  12.438 -0.3550  0.1687  0.0616
15556TIP3    H168159   0.792   6.355  12.509 -0.4627 -0.1831  0.0169
15556TIP3    H268160   0.841   6.422  12.383 -1.7693 -0.6488 -0.7408
15557TIP3   OH268161   3.048   1.314  11.545  0.3638  0.7678 -0.0189
15557TIP3    H168162   3.028   1.383  11.609  1.5667 -0.8051  2.1234
15557TIP3    H268163   2.974   1.316  11.484 -0.0413  3.3596  0.5001
15558TIP3   OH268164   0.695   5.094  15.878  0.7384 -0.7146  0.4899
15558TIP3    H168165   0.626   5.143  15.833  0.9268 -0.9199 -0.0247
15558TIP3    H268166   0.692   5.126  15.969  0.0343 -0.6552  0.4445
15559TIP3   OH268167   5.799   0.250  14.963 -0.1395 -0.0174 -0.2652
15559TIP3    H168168   5.753   0.250  14.879 -1.6338  0.3578  0.5449
15559TIP3    H268169   5.883   0.209  14.944 -0.1904  0.6907 -2.1015
15560TIP3   OH268170   3.475   4.688  10.180 -0.3699  0.0115  0.4861
15560TIP3    H168171   3.456   4.771  10.138  0.6717  0.4473  0.8453
15560TIP3    H268172   3.571   4.683  10.180 -0.4448 -2.3566 -1.8088
15561TIP3   OH268173   6.775   1.307   3.057  0.0132 -0.2449  0.3217
15561TIP3    H168174   6.813   1.256   2.986  0.0780 -0.5253  0.5568
15561TIP3    H268175   6.848   1.358   3.092 -0.3874  1.2421 -0.9713
15562TIP3   OH268176   4.965   6.803   1.595 -0.4990  0.4351 -0.0758
15562TIP3    H168177   5.005   6.762   1.518 -1.8558 -1.0333 -0.0331
15562TIP3    H268178   5.037   6.851   1.636  0.5401  0.2122 -1.5642
15563TIP3   OH268179   2.483   1.615  15.819 -0.9090 -0.1101  0.0938
15563TIP3    H168180   2.547   1.678  15.785 -0.4598 -0.7916 -0.3232
15563TIP3    H268181   2.451   1.569  15.742 -0.7453 -0.8603  0.4763
15564TIP3   OH268182   5.443   5.109   3.125  0.3348  0.0252  0.3914
15564TIP3    H168183   5.387   5.165   3.178  1.5314  0.6088  1.0530
15564TIP3    H268184   5.522   5.097   3.177  1.9017  1.3366 -1.6244
15565TIP3   OH268185   0.784   6.369  11.904 -0.0523 -0.1155 -0.0370
15565TIP3    H168186   0.792   6.279  11.935 -0.3537 -0.2984 -0.4863
15565TIP3    H268187   0.696   6.375  11.867 -0.5774  0.7846  1.3059
15566TIP3   OH268188   4.075   0.501  16.763 -0.3626  0.4906  0.3025
15566TIP3    H168189   4.139   0.552  16.712 -1.4853  1.0649 -0.5615
15566TIP3    H268190   4.054   0.426  16.707 -1.1261  0.7856  0.1914
15567TIP3   OH268191   5.355   2.607  11.705  0.3098  0.2350  0.1612
15567TIP3    H168192   5.412   2.582  11.778 -1.9460 -0.0788  1.8720
15567TIP3    H268193   5.370   2.540  11.639  1.7310  0.0291  0.6719
15568TIP3   OH268194   3.425   5.060  15.657 -0.2974 -0.3924 -0.4608
15568TIP3    H168195   3.479   5.020  15.589 -0.1525 -0.5563 -0.2472
15568TIP3    H268196   3.335   5.050  15.624 -0.2047 -0.1543 -0.7942
15569TIP3   OH268197   1.513   1.369  14.266 -0.4136 -0.1898  0.1390
15569TIP3    H168198   1.439   1.409  14.312  1.0352  2.6047  0.2038
15569TIP3    H268199   1.508   1.405  14.178 -0.0706 -1.2630 -0.3200
15570TIP3   OH268200   6.622   4.091   3.412  0.8121  0.1095 -0.4812
15570TIP3    H168201   6.647   4.145   3.336 -0.4944 -0.0351 -1.0268
15570TIP3    H268202   6.571   4.020   3.375  0.2453 -0.0205  0.5362
15571TIP3   OH268203   5.584   3.544  15.170  0.2125 -0.4351  0.1566
15571TIP3    H168204   5.619   3.456  15.185 -2.4336 -1.9730 -2.1384
15571TIP3    H268205   5.598   3.559  15.076 -0.8405  0.9090  0.2109
15572TIP3   OH268206   6.624   1.666  12.792  0.3172  0.1098 -0.6136
15572TIP3    H168207   6.702   1.721  12.786 -0.4018  1.2378  0.1390
15572TIP3    H268208   6.568   1.711  12.855 -0.9204 -0.7180 -1.1055
15573TIP3   OH268209   0.102   5.138  13.110  0.3569  0.0180 -0.4007
15573TIP3    H168210   0.171   5.082  13.144 -0.6192 -1.6252 -1.0691
15573TIP3    H268211   0.022   5.086  13.118 -0.4860  1.0944 -1.5452
15574TIP3   OH268212   1.346   2.536   1.173 -0.1904 -0.3887 -0.0111
15574TIP3    H168213   1.299   2.603   1.222 -0.6109 -0.9052  0.3002
15574TIP3    H268214   1.423   2.517   1.227  0.6738  0.8565 -0.7950
15575TIP3   OH268215   6.064   3.483  11.483  0.0886 -0.4754  0.4552
15575TIP3    H168216   5.985   3.475  11.538 -0.1706 -1.4718 -0.0436
15575TIP3    H268217   6.107   3.398  11.492 -0.2192 -0.8309 -1.2682
15576TIP3   OH268218   3.564   0.604   3.562 -0.2326 -0.0200  0.1350
15576TIP3    H168219   3.642   0.656   3.584 -0.5878  0.8682 -0.6682
15576TIP3    H268220   3.503   0.621   3.634 -0.3195  0.6207 -0.0887
15577TIP3   OH268221   5.392   2.509   5.734 -0.6616  0.0419 -0.2746
15577TIP3    H168222   5.395   2.510   5.638  2.3258  1.1812 -0.2369
15577TIP3    H268223   5.324   2.571   5.757 -1.2060 -0.0190 -1.6524
15578TIP3   OH268224   5.816   4.868   1.095  0.3294  0.4403  0.0726
15578TIP3    H168225   5.802   4.798   1.031  0.9617  1.0492 -0.7476
15578TIP3    H268226   5.875   4.930   1.051 -1.4629  2.2752  0.1918
15579TIP3   OH268227   3.514   2.370  12.935  0.7724  0.7634  0.4368
15579TIP3    H168228   3.519   2.298  12.998  1.4631 -0.3680 -0.8886
15579TIP3    H268229   3.594   2.362  12.883 -0.1090  1.2880 -1.0232
15580TIP3   OH268230   6.280   6.355   1.474  0.1355 -0.2238 -0.0163
15580TIP3    H168231   6.260   6.434   1.423 -1.2593 -2.0717 -2.4475
15580TIP3    H268232   6.206   6.347   1.535  1.5182  1.6690  1.9981
15581TIP3   OH268233   4.140   5.807   5.914 -0.1131 -0.1284 -0.2967
15581TIP3    H168234   4.092   5.812   5.831  0.2285 -0.4458 -0.5174
15581TIP3    H268235   4.083   5.757   5.972 -1.7724  2.8289  0.6672
15582TIP3   OH268236   2.962   6.792   2.419 -0.0196  0.0926 -0.0036
15582TIP3    H168237   3.004   6.790   2.334 -0.7708 -1.0094 -0.3522
15582TIP3    H268238   3.025   6.751   2.478 -0.6409 -1.6929 -0.5521
15583TIP3   OH268239   5.140   0.714  16.867  0.9874  0.1880 -0.1182
15583TIP3    H168240   5.153   0.801  16.829  0.7251 -0.4920 -1.8017
15583TIP3    H268241   5.058   0.721  16.915  0.8946  0.8299 -0.3662
15584TIP3   OH268242   1.378   1.100  14.234  0.5204  0.1664  0.2187
15584TIP3    H168243   1.411   1.029  14.180  0.7402 -0.5451  1.2694
15584TIP3    H268244   1.438   1.172  14.219  0.5964 -0.0323 -0.4516
15585TIP3   OH268245   6.343   6.819   0.380 -0.1555  0.0909  0.3356
15585TIP3    H168246   6.319   6.875   0.454  0.9365 -0.3977  1.0864
15585TIP3    H268247   6.391   6.876   0.320 -2.0931  0.7798 -0.5950
15586TIP3   OH268248   0.783   3.024  14.703  0.4448  0.1027 -0.0249
15586TIP3    H168249   0.860   2.976  14.735  0.9573  1.7769  1.3544
15586TIP3    H268250   0.722   3.022  14.777 -0.3849 -0.2303 -0.7131
15587TIP3   OH268251   0.702   3.315  12.758 -0.4108 -0.2940  0.4497
15587TIP3    H168252   0.680   3.225  12.734  1.3159 -1.3723  2.7522
15587TIP3    H268253   0.748   3.307  12.842  1.2466  2.5966 -0.1252
15588TIP3   OH268254   6.800   2.102   3.253  0.4272  0.7274 -0.5760
15588TIP3    H168255   6.814   2.057   3.337  0.6090 -1.7512 -1.8784
15588TIP3    H268256   6.865   2.171   3.253  1.0084  0.2272  0.9694
15589TIP3   OH268257   0.908   4.807  16.150 -0.0708  0.7874  0.2669
15589TIP3    H168258   0.958   4.777  16.225  0.5198  0.7058 -0.1584
15589TIP3    H268259   0.973   4.819  16.081 -0.6433  0.5991 -0.3113
15590TIP3   OH268260   3.780   0.704   5.808 -0.1245 -0.0151 -0.1029
15590TIP3    H168261   3.719   0.731   5.876 -1.0902  1.1369 -1.3904
15590TIP3    H268262   3.860   0.754   5.825 -0.1283 -0.2559  0.5956
15591TIP3   OH268263   4.086   3.670   5.410  0.7052  0.4787 -0.2217
15591TIP3    H168264   4.037   3.699   5.333 -0.0640  1.1200  0.4857
15591TIP3    H268265   4.022   3.621   5.462  1.3124 -0.2594 -0.1617
15592TIP3   OH268266   3.340   4.979  16.974  0.2649 -0.6833 -0.2443
15592TIP3    H168267   3.351   4.923  17.051 -0.1014 -0.4627 -0.0258
15592TIP3    H268268   3.418   5.034  16.973  0.3425 -0.7910 -0.1163
15593TIP3   OH268269   0.735   1.199   5.427 -0.1796 -0.6612 -0.0333
15593TIP3    H168270   0.831   1.208   5.430 -0.1937 -0.4619 -0.1155
15593TIP3    H268271   0.716   1.121   5.478 -0.0933  0.2282  1.3735
15594TIP3   OH268272   3.063   6.334  12.978  0.1194  0.4310 -0.2247
15594TIP3    H168273   3.031   6.262  13.032 -0.7663  0.9707 -0.0212
15594TIP3    H268274   3.159   6.329  12.986  0.0774 -0.9700 -0.5564
15595TIP3   OH268275   4.633   6.090  12.906  0.0407  0.1665 -0.1891
15595TIP3    H168276   4.725   6.079  12.882  0.4064 -1.0812  1.6269
15595TIP3    H268277   4.635   6.128  12.994 -1.0902 -2.5205  1.0767
15596TIP3   OH268278   2.339   3.651  11.318 -0.3928 -0.6491 -0.4096
15596TIP3    H168279   2.288   3.672  11.240 -0.4785  0.7966  0.0171
15596TIP3    H268280   2.274   3.643  11.387 -0.4971 -3.7588 -0.8221
15597TIP3   OH268281   5.338   5.575   4.274 -0.6575 -0.3536 -0.1709
15597TIP3    H168282   5.298   5.550   4.357  0.4352  2.1887  1.1712
15597TIP3    H268283   5.375   5.494   4.240 -3.1352 -1.8889  0.6524
15598TIP3   OH268284   5.208   5.871  12.178  0.5590  0.0402  0.3981
15598TIP3    H168285   5.244   5.942  12.127  1.2569  1.5389  2.8981
15598TIP3    H268286   5.156   5.914  12.246 -0.2827 -1.8840  1.0156
15599TIP3   OH268287   3.983   2.459   2.035  0.3278 -0.4511 -0.0062
15599TIP3    H168288   3.917   2.415   1.982  0.3038  0.6115 -0.8929
15599TIP3    H268289   4.057   2.473   1.975  1.5561 -2.0578  1.0951
15600TIP3   OH268290   6.784   0.330   5.300  0.1240  0.3019  0.1404
15600TIP3    H168291   6.798   0.384   5.377 -1.5402 -0.3064  0.8792
15600TIP3    H268292   6.702   0.284   5.316 -0.9340  1.1281 -2.5417
15601TIP3   OH268293   1.096   2.341   0.478 -0.5233 -0.6580  0.1993
15601TIP3    H168294   1.099   2.315   0.386 -1.3298  1.0230 -0.3142
15601TIP3    H268295   1.003   2.349   0.498 -0.3922 -2.0938  1.4925
15602TIP3   OH268296   3.677   4.044   2.694  0.2871 -0.1164 -0.2145
15602TIP3    H168297   3.700   4.096   2.617 -1.7117 -0.0358 -0.7694
15602TIP3    H268298   3.625   3.972   2.659  1.3494 -1.3958  0.7971
15603TIP3   OH268299   5.739   6.318  10.445 -0.0072  0.1183 -0.3864
15603TIP3    H168300   5.784   6.385  10.497  0.4108 -0.0956 -0.4687
15603TIP3    H268301   5.805   6.289  10.382 -0.1672 -0.4175 -0.3097
15604TIP3   OH268302   2.903   1.005   4.030 -0.1793  0.8545 -0.0573
15604TIP3    H168303   2.998   0.995   4.036  0.0561  0.9162 -3.0818
15604TIP3    H268304   2.868   0.934   4.083  1.5557  0.2106  0.2617
15605TIP3   OH268305   0.833   1.478   5.528  0.1964 -0.7068 -0.3785
15605TIP3    H168306   0.878   1.401   5.563  0.5127  0.4441  1.8250
15605TIP3    H268307   0.903   1.536   5.499  0.0088 -0.5348 -0.4878
15606TIP3   OH268308   5.233   1.366   1.354  0.0653 -0.1207 -0.4202
15606TIP3    H168309   5.219   1.445   1.301  1.3130  0.6743  0.4246
15606TIP3    H268310   5.205   1.294   1.296  0.2360  0.8231 -1.7047
15607TIP3   OH268311   6.508   2.889  16.869  0.4238  0.0832  0.3684
15607TIP3    H168312   6.519   2.923  16.780 -0.0836 -0.9896 -0.1170
15607TIP3    H268313   6.425   2.842  16.866  1.2662 -1.4849  0.9165
15608TIP3   OH268314   0.395   4.868   5.585 -0.1719 -0.3645 -0.1925
15608TIP3    H168315   0.490   4.863   5.579 -0.1133  2.1247 -2.0606
15608TIP3    H268316   0.377   4.951   5.629 -1.4812 -1.0922  0.6829
15609TIP3   OH268317   5.490   3.366  14.723  0.2285  0.3715 -0.0400
15609TIP3    H168318   5.405   3.407  14.738 -0.5555 -0.8526 -1.0350
15609TIP3    H268319   5.544   3.435  14.683 -0.1250  1.2938  1.0373
15610TIP3   OH268320   4.123   6.601  12.204  1.1637 -0.2566  0.1669
15610TIP3    H168321   4.144   6.513  12.173  1.0924 -0.9041  1.9375
15610TIP3    H268322   4.039   6.592  12.248 -0.1187  1.2146 -1.8890
15611TIP3   OH268323   1.128   2.078  17.069  0.2551 -0.0782 -0.2476
15611TIP3    H168324   1.199   2.085  17.006 -0.9926 -1.4837 -1.8569
15611TIP3    H268325   1.051   2.054  17.017 -0.9176 -0.7725  1.7202
15612TIP3   OH268326   6.055   1.383  15.308  0.2551  0.1283 -0.3668
15612TIP3    H168327   5.992   1.322  15.269  1.5551 -0.9991 -0.7067
15612TIP3    H268328   6.053   1.459  15.250  0.5122 -0.6291 -1.3852
15613TIP3   OH268329   5.711   1.157   0.868  0.0964  0.2459  0.0077
15613TIP3    H168330   5.771   1.189   0.935  0.8752  1.0828 -1.0650
15613TIP3    H268331   5.666   1.235   0.837 -0.3902 -0.1606 -0.3211
15614TIP3   OH268332   3.917   5.792  15.985 -0.0617 -0.6886  0.2344
15614TIP3    H168333   3.965   5.756  15.910 -2.0735 -1.3265 -0.7839
15614TIP3    H268334   3.849   5.847  15.945 -0.3987 -0.0773  1.6347
15615TIP3   OH268335   4.165   2.871  11.423  0.2086 -0.1539  0.2440
15615TIP3    H168336   4.246   2.918  11.406  0.0764 -0.4347 -1.2572
15615TIP3    H268337   4.193   2.783  11.448  0.4101  0.3177  1.7624
15616TIP3   OH268338   5.096   6.220   6.030  0.1652  0.7243 -0.4171
15616TIP3    H168339   5.108   6.191   6.120 -1.3149 -0.2036 -0.4987
15616TIP3    H268340   5.135   6.150   5.977 -0.6838  0.3268 -0.5317
15617TIP3   OH268341   5.268   5.478  16.583  0.1217  0.3078 -0.5665
15617TIP3    H168342   5.183   5.486  16.540  0.7844 -0.3620 -2.0279
15617TIP3    H268343   5.247   5.462  16.675 -1.3958 -2.0431 -1.2813
15618TIP3   OH268344   0.485   4.124   2.453 -0.0905  0.4324  0.1817
15618TIP3    H168345   0.576   4.144   2.434 -0.0699  0.7444  0.5887
15618TIP3    H268346   0.454   4.198   2.506 -0.2809 -0.1579  0.9218
15619TIP3   OH268347   4.420   6.690   4.415 -0.5463  0.5532 -0.0121
15619TIP3    H168348   4.344   6.722   4.463 -0.9825 -0.4513 -0.0267
15619TIP3    H268349   4.467   6.769   4.389  0.2084  1.1421  2.8972
15620TIP3   OH268350   1.284   2.172   1.746 -0.5773  0.1246 -0.4400
15620TIP3    H168351   1.226   2.244   1.771  0.7392  0.8171  0.7039
15620TIP3    H268352   1.250   2.096   1.792 -1.0480  0.3531 -0.4118
15621TIP3   OH268353   1.285   0.045   3.821 -0.0968  0.4328  0.6463
15621TIP3    H168354   1.333  -0.029   3.783  1.1254 -0.3093  3.4818
15621TIP3    H268355   1.210   0.005   3.864 -0.5495  1.0628  0.4441
15622TIP3   OH268356   0.940   6.368  11.332 -0.0038  0.0568  0.1198
15622TIP3    H168357   0.958   6.331  11.418  1.8730 -1.2627 -0.7994
15622TIP3    H268358   0.926   6.462  11.349  2.8839  0.2846  1.5918
15623TIP3   OH268359   6.382   3.516  12.217 -0.0438  0.0601 -0.3751
15623TIP3    H168360   6.348   3.451  12.156  0.6650 -0.1129 -0.5947
15623TIP3    H268361   6.357   3.483  12.304 -0.0100 -0.3206 -0.5073
15624TIP3   OH268362   5.197   1.621   5.146 -0.4246  0.5584  0.1493
15624TIP3    H168363   5.103   1.630   5.162 -1.1921 -0.6844 -3.2990
15624TIP3    H268364   5.211   1.527   5.144  1.0052  0.7437  1.0638
15625TIP3   OH268365   0.425   4.418   3.603  0.0170  0.4189 -0.4285
15625TIP3    H168366   0.501   4.462   3.565  0.4109  1.2540  1.2558
15625TIP3    H268367   0.417   4.456   3.691 -2.9719  1.0973 -0.9470
15626TIP3   OH268368   1.360   3.846   3.141  0.4571  0.7804 -0.1640
15626TIP3    H168369   1.280   3.870   3.188  0.0689 -0.1783 -0.3316
15626TIP3    H268370   1.426   3.905   3.176  0.2773 -0.1955  1.9279
15627TIP3   OH268371   6.406   1.533   4.950 -0.0189 -0.6072 -0.2516
15627TIP3    H168372   6.480   1.523   4.890  0.8721 -0.1535  0.7386
15627TIP3    H268373   6.377   1.623   4.939  2.1664  0.4949  2.1869
15628TIP3   OH268374   0.544   0.080   1.318  0.0222  0.5264 -0.4524
15628TIP3    H168375   0.615   0.055   1.377 -0.4587  0.2152 -0.0117
15628TIP3    H268376   0.521   0.169   1.343  1.1007  1.0997 -1.4154
15629TIP3   OH268377   1.650   0.486  11.502 -0.1228 -0.1874  0.5142
15629TIP3    H168378   1.683   0.551  11.439 -0.5398  0.0266  0.5159
15629TIP3    H268379   1.604   0.422  11.448 -1.5194  0.6295  0.7006
15630TIP3   OH268380   6.771   2.274   4.653  0.0865 -0.3012 -0.0519
15630TIP3    H168381   6.688   2.307   4.688  0.4247 -1.4473  1.9379
15630TIP3    H268382   6.771   2.181   4.676  2.9894  0.1806  2.2405
15631TIP3   OH268383   0.822   1.721  15.821 -0.8772 -0.3195  0.1536
15631TIP3    H168384   0.887   1.670  15.773  1.9662  3.2336 -0.0482
15631TIP3    H268385   0.751   1.736  15.759 -0.9034 -2.3615 -0.3507
15632TIP3   OH268386   4.674   5.272   4.916  0.1178  0.0329 -0.5418
15632TIP3    H168387   4.745   5.256   4.978  0.3370  0.0626 -0.7802
15632TIP3    H268388   4.627   5.347   4.951  1.9422  1.8611 -1.8524
15633TIP3   OH268389   5.771   2.931  12.102 -0.7297  0.3299  0.2899
15633TIP3    H168390   5.820   3.002  12.062  0.2040 -0.3874  0.1407
15633TIP3    H268391   5.822   2.906  12.179 -0.8171 -0.4609  0.1007
15634TIP3   OH268392   0.485   6.296   0.674 -0.1140  0.0389  0.2287
15634TIP3    H168393   0.510   6.239   0.746 -1.1635  0.2976  0.8036
15634TIP3    H268394   0.399   6.263   0.647  1.7929 -2.4078 -3.3235
15635TIP3   OH268395   5.881   5.745  14.320 -0.0358  0.5023 -0.0815
15635TIP3    H168396   5.938   5.809  14.277 -1.0143  1.0295 -0.6049
15635TIP3    H268397   5.795   5.760  14.281  0.0969 -2.3753 -1.5652
15636TIP3   OH268398   3.364   3.085   2.372  0.7335  0.0672 -0.1747
15636TIP3    H168399   3.365   3.125   2.459  1.1878 -1.9491  0.8048
15636TIP3    H268400   3.274   3.057   2.359  0.7783 -0.1239 -0.0893
15637TIP3   OH268401   3.431   3.170   5.457  0.5003 -0.3954 -0.1561
15637TIP3    H168402   3.494   3.236   5.486  0.1933 -0.5746  0.9577
15637TIP3    H268403   3.456   3.150   5.367  0.1737  1.7512 -0.7516
15638TIP3   OH268404   2.426   5.545   5.427  0.7146 -0.5724  0.1290
15638TIP3    H168405   2.406   5.452   5.434 -0.4750 -0.5608 -2.6338
15638TIP3    H268406   2.352   5.588   5.470  1.5230 -0.8661  1.8848
15639TIP3   OH268407   2.359   5.222   4.248  0.2151 -0.1310  0.4208
15639TIP3    H168408   2.381   5.315   4.236  1.4324 -0.4139  0.3956
15639TIP3    H268409   2.382   5.203   4.339  1.6118 -0.8468 -0.0788
15640TIP3   OH268410   6.437   3.993  15.502  0.0193 -0.1727 -0.1053
15640TIP3    H168411   6.513   4.047  15.478  0.0757 -0.3805 -0.3934
15640TIP3    H268412   6.475   3.914  15.540 -0.0894  1.0022  2.5391
15641TIP3   OH268413   5.253   2.297   0.090  0.3206 -0.1179  0.3971
15641TIP3    H168414   5.209   2.306   0.005  0.4621  0.7637  0.4089
15641TIP3    H268415   5.260   2.202   0.103 -2.3228 -0.2976  0.7748
15642TIP3   OH268416   2.275   5.024  13.566  0.0861  0.1574 -0.0019
15642TIP3    H168417   2.228   5.072  13.634  1.3434 -1.2807  1.9069
15642TIP3    H268418   2.352   5.078  13.547  1.3544 -0.9300  1.9484
15643TIP3   OH268419   2.963   2.416  14.402 -0.0168 -0.0208  0.3493
15643TIP3    H168420   2.970   2.343  14.464  0.5944  0.8050  1.2631
15643TIP3    H268421   2.883   2.462  14.427 -0.2205 -0.1761 -0.0112
15644TIP3   OH268422   5.206   6.015  16.865  0.0079  0.2472  0.4389
15644TIP3    H168423   5.241   6.091  16.912 -0.4089  0.7599 -0.0670
15644TIP3    H268424   5.116   6.041  16.843 -0.8469 -1.2097  2.0996
15645TIP3   OH268425   1.115   6.321  13.221  0.4363 -0.0317  0.0507
15645TIP3    H168426   1.048   6.297  13.157  0.4001 -0.2597  0.1725
15645TIP3    H268427   1.066   6.331  13.303  0.7426 -1.4916  0.4239
15646TIP3   OH268428   1.244   1.107  13.829  0.4444  0.1910  0.1446
15646TIP3    H168429   1.213   1.125  13.741 -2.9456  0.0153  1.1980
15646TIP3    H268430   1.239   1.191  13.874  0.1114 -0.1244  0.7103
15647TIP3   OH268431   6.687   2.433   1.181  0.1459 -0.2827  0.2100
15647TIP3    H168432   6.662   2.358   1.127  1.8730 -1.3651  0.9011
15647TIP3    H268433   6.660   2.509   1.129 -1.9829 -1.3593 -0.3131
15648TIP3   OH268434   5.858   0.588   4.887 -0.2295  0.4859 -0.3825
15648TIP3    H168435   5.949   0.560   4.874 -0.0760  0.3995  0.7943
15648TIP3    H268436   5.820   0.588   4.799  1.3957  2.2207 -1.1264
15649TIP3   OH268437   0.767   0.615  17.132 -0.0144  0.4087  0.0848
15649TIP3    H168438   0.850   0.599  17.086  0.2516  1.4544  0.1674
15649TIP3    H268439   0.750   0.708  17.116 -1.0555  0.2517  0.2696
15650TIP3   OH268440   3.290   0.125  12.005 -0.8073  0.2616 -0.0261
15650TIP3    H168441   3.255   0.212  11.990 -1.7623 -0.4401 -2.0273
15650TIP3    H268442   3.310   0.091  11.918  0.3834 -1.1896  0.7734
15651TIP3   OH268443   1.389   6.481   4.769 -0.3346 -0.2960 -0.1918
15651TIP3    H168444   1.428   6.567   4.751  0.6923 -0.0581  2.8237
15651TIP3    H268445   1.454   6.419   4.736 -0.8075  0.0803 -1.8572
15652TIP3   OH268446   1.694   1.078   6.451 -0.4979 -0.2389  0.3335
15652TIP3    H168447   1.665   1.048   6.538 -0.1236 -0.2459  0.4564
15652TIP3    H268448   1.784   1.048   6.444  0.6441  2.7735  1.3835
15653TIP3   OH268449   6.536   6.214  16.908 -0.0532  0.0290 -0.2953
15653TIP3    H168450   6.556   6.202  16.816  0.0871  0.2443 -0.2927
15653TIP3    H268451   6.557   6.130  16.949  1.6853  0.5179 -0.1413
15654TIP3   OH268452   1.492   4.043   1.987  0.4134 -0.9980  0.4674
15654TIP3    H168453   1.458   4.133   1.988 -1.8506 -1.8139  2.2501
15654TIP3    H268454   1.563   4.044   2.051  0.2928 -0.4919  0.5992
15655TIP3   OH268455   5.181   4.360  13.397  0.2102 -0.9506 -0.2069
15655TIP3    H168456   5.214   4.284  13.445 -1.9794 -1.4666  0.5190
15655TIP3    H268457   5.173   4.429  13.464  0.0911 -0.7336 -0.4429
15656TIP3   OH268458   5.961   6.201  16.872  0.2893  0.2016  0.6702
15656TIP3    H168459   5.875   6.217  16.834 -0.5190  0.0735  2.4138
15656TIP3    H268460   5.946   6.133  16.938  1.3746  1.5392  2.3273
15657TIP3   OH268461   2.303   0.348  12.086  0.3013  0.5172  0.1079
15657TIP3    H168462   2.358   0.278  12.053  0.2895  1.5923 -2.2689
15657TIP3    H268463   2.361   0.401  12.140  0.7396 -0.2892  0.4384
15658TIP3   OH268464   0.803   0.426  13.535 -0.5897 -0.0886  0.2247
15658TIP3    H168465   0.715   0.398  13.512 -0.1396 -0.3345 -1.3004
15658TIP3    H268466   0.859   0.353  13.508  0.0398 -0.0942  1.5311
15659TIP3   OH268467   6.580   4.682  12.671 -0.6210 -0.3627 -0.2920
15659TIP3    H168468   6.511   4.643  12.616  0.2357 -0.0873 -1.5754
15659TIP3    H268469   6.537   4.697  12.755 -1.6412 -1.8360 -0.5297
15660TIP3   OH268470   4.732   3.366   0.923  0.6668 -0.3734 -0.0122
15660TIP3    H168471   4.683   3.342   0.844 -0.4259 -0.3440  0.6468
15660TIP3    H268472   4.790   3.292   0.939  1.2410 -0.1719 -1.1092
15661TIP3   OH268473   4.239   4.433  16.776 -0.1301  0.4637  0.1790
15661TIP3    H168474   4.233   4.515  16.727  1.1484 -0.2788 -1.2615
15661TIP3    H268475   4.206   4.366  16.716  0.2957 -0.2864  0.7777
15662TIP3   OH268476   4.062   5.407  16.884  0.2495  0.0270 -0.1802
15662TIP3    H168477   4.132   5.342  16.893 -2.3925 -3.1823 -1.6319
15662TIP3    H268478   4.013   5.401  16.966  0.5303  0.8832  0.0555
15663TIP3   OH268479   5.134   1.492  12.397  0.5504  0.0152 -1.0011
15663TIP3    H168480   5.052   1.451  12.368 -0.4609  0.5081  1.1091
15663TIP3    H268481   5.168   1.433  12.464  3.3136 -1.5488 -3.6641
15664TIP3   OH268482   3.545   1.720   5.996  0.6728 -0.2049  0.1080
15664TIP3    H168483   3.632   1.758   6.001  0.5645 -0.0528  0.8888
15664TIP3    H268484   3.512   1.746   5.910  1.5884 -0.6900 -0.3990
15665TIP3   OH268485   0.079   4.398   4.584  0.1636 -0.1343  0.9289
15665TIP3    H168486   0.094   4.480   4.538  4.2568 -1.0963  0.3331
15665TIP3    H268487   0.052   4.424   4.672 -1.0490  1.7900  0.0116
15666TIP3   OH268488   5.424   6.245  12.766  0.5128  0.2820 -0.7663
15666TIP3    H168489   5.424   6.149  12.771  3.6484  0.2669 -0.3266
15666TIP3    H268490   5.372   6.273  12.841 -0.7999 -1.0592 -1.1417
15667TIP3   OH268491   3.181   0.536   0.969  0.0480  0.4957  0.1394
15667TIP3    H168492   3.213   0.500   1.052  1.1514  0.1806 -0.4086
15667TIP3    H268493   3.170   0.629   0.987 -1.9909  0.0448  1.3133
15668TIP3   OH268494   3.924   1.283   1.116  0.1208  0.1563 -0.5898
15668TIP3    H168495   4.013   1.268   1.084  0.8653  0.9647  1.0016
15668TIP3    H268496   3.915   1.224   1.191  0.2147  1.7906  0.7571
15669TIP3   OH268497   3.522   3.941   2.264  0.4556 -0.0975  0.4649
15669TIP3    H168498   3.499   3.859   2.220 -0.4911 -0.2676  1.2635
15669TIP3    H268499   3.451   4.001   2.244 -1.0494 -0.7841  3.3481
15670TIP3   OH268500   4.793   5.289   5.973  0.1157  0.3405 -0.7877
15670TIP3    H168501   4.793   5.377   6.011 -3.2117  0.1144 -0.0810
15670TIP3    H268502   4.837   5.235   6.039  0.6861  1.1797 -0.4715
15671TIP3   OH268503   0.091   4.125   1.429  0.0631 -0.1982  0.2349
15671TIP3    H168504   0.133   4.200   1.469  1.9357 -1.2670  0.3126
15671TIP3    H268505   0.044   4.082   1.501 -1.0809  0.9232  0.1698
15672TIP3   OH268506   3.810   1.268   0.599  0.0909  0.2108  0.2169
15672TIP3    H168507   3.757   1.207   0.548  1.5712 -2.0823  1.3351
15672TIP3    H268508   3.793   1.244   0.690  2.0370  0.3240  0.6311
15673TIP3   OH268509   3.450   1.013  14.331 -0.8469  0.1631 -0.1296
15673TIP3    H168510   3.369   0.970  14.359  0.2997 -1.4280  0.8638
15673TIP3    H268511   3.501   0.943  14.290  0.4687  0.9029  0.2105
15674TIP3   OH268512   5.987   0.403  17.043 -0.1068 -0.2548  0.6682
15674TIP3    H168513   5.958   0.480  16.994  1.0713 -0.4505 -0.3777
15674TIP3    H268514   5.971   0.329  16.983  1.3265 -0.4953  0.5535
15675TIP3   OH268515   3.338   3.461  11.437  0.1965  0.4609  0.2130
15675TIP3    H168516   3.275   3.407  11.486 -1.1155  0.2830 -1.6239
15675TIP3    H268517   3.296   3.547  11.432  1.2311  1.0333  1.0972
15676TIP3   OH268518   5.283   1.201   3.827 -0.0498 -0.1185  0.4219
15676TIP3    H168519   5.252   1.262   3.759  0.0098 -0.1298  0.3847
15676TIP3    H268520   5.306   1.122   3.779 -0.9002 -0.4598  0.5624
15677TIP3   OH268521   3.368   4.319  15.818 -0.0047  0.4434  0.9113
15677TIP3    H168522   3.360   4.273  15.901  2.1437  1.1124  1.5204
15677TIP3    H268523   3.285   4.367  15.809 -2.1214 -3.1296  0.4417
15678TIP3   OH268524   2.780   5.136   5.878  0.0771  0.0711  0.6203
15678TIP3    H168525   2.692   5.115   5.846  0.1893  1.3861 -0.5998
15678TIP3    H268526   2.828   5.054   5.873  0.3028  0.3716 -3.3372
15679TIP3   OH268527   4.321   5.481  15.867  0.1321  0.2910  0.1519
15679TIP3    H168528   4.279   5.491  15.952  3.9907  0.9813  2.0636
15679TIP3    H268529   4.299   5.562  15.820  0.5861  1.3332  1.7112
15680TIP3   OH268530   1.162   2.347  15.271  0.1278  0.2286  0.4254
15680TIP3    H168531   1.232   2.310  15.325 -0.9612  0.1162  1.8083
15680TIP3    H268532   1.098   2.380  15.335 -1.4543 -0.3909 -0.8117
15681TIP3   OH268533   5.164   5.968  15.863  0.7282 -0.3419  0.1929
15681TIP3    H168534   5.105   5.893  15.849 -1.2684  0.9218  1.5687
15681TIP3    H268535   5.166   5.979  15.958  2.9143 -0.1153  0.1318
15682TIP3   OH268536   6.467   0.152   2.710  0.3070 -0.9690  0.2522
15682TIP3    H168537   6.475   0.096   2.633 -0.1235  0.7856 -1.0847
15682TIP3    H268538   6.485   0.241   2.678  2.6184 -0.4965  2.6353
15683TIP3   OH268539   0.409   0.749   2.713  0.4735  0.6206  0.4123
15683TIP3    H168540   0.467   0.752   2.789  1.1536 -0.2339 -0.0447
15683TIP3    H268541   0.325   0.718   2.747  1.2848 -1.5422  0.5507
15684TIP3   OH268542   4.370   4.397  11.807 -0.8084  0.2984  0.3274
15684TIP3    H168543   4.451   4.421  11.762 -0.4923 -0.1201  0.6677
15684TIP3    H268544   4.396   4.383  11.898 -0.8002 -2.1444 -0.0137
15685TIP3   OH268545   4.219   0.715  15.015 -0.1487  0.2465  0.2490
15685TIP3    H168546   4.151   0.668  15.064  0.4920 -0.2617  0.6627
15685TIP3    H268547   4.279   0.746  15.083  0.9114 -0.7293 -0.2281
15686TIP3   OH268548   6.390   1.099   3.666  0.0571 -0.2257 -0.5590
15686TIP3    H168549   6.483   1.081   3.656  0.0348 -0.6247 -0.0707
15686TIP3    H268550   6.386   1.188   3.700  0.3667 -1.1331  1.9475
15687TIP3   OH268551   2.165   6.331   4.252  0.2840  0.0374  0.3187
15687TIP3    H168552   2.134   6.405   4.305  0.7799 -0.8530  1.9144
15687TIP3    H268553   2.091   6.271   4.249  0.6329 -0.4364  1.0083
15688TIP3   OH268554   5.772   4.368   2.405 -0.3528  0.5070  0.1070
15688TIP3    H168555   5.719   4.404   2.476  1.0768 -1.9399  2.5555
15688TIP3    H268556   5.712   4.312   2.357 -1.4743  2.6173 -0.9966
15689TIP3   OH268557   3.818   2.704  12.542 -0.7212  0.4504 -0.2417
15689TIP3    H168558   3.824   2.652  12.622 -0.4909  0.3516 -0.3234
15689TIP3    H268559   3.891   2.765  12.547 -0.8651  0.6224 -0.2483
15690TIP3   OH268560   5.138   4.895  15.201 -0.2549  0.7182 -0.6063
15690TIP3    H168561   5.228   4.909  15.175 -0.7575  2.1833 -1.5966
15690TIP3    H268562   5.135   4.804  15.231  1.8821  1.1029  0.8930
15691TIP3   OH268563   1.749   1.079   4.859 -0.3301  0.3399  0.1986
15691TIP3    H168564   1.825   1.050   4.909 -0.1185 -0.7644 -0.7328
15691TIP3    H268565   1.785   1.120   4.780 -0.6402 -4.0204 -2.3754
15692TIP3   OH268566   1.483   3.767   1.900 -0.1506  0.1040 -0.2339
15692TIP3    H168567   1.455   3.858   1.898 -0.6167  0.0070  1.3419
15692TIP3    H268568   1.500   3.749   1.993  0.5593 -1.2206 -0.6056
15693TIP3   OH268569   4.221   3.775   5.853  0.0358 -0.2733  0.7656
15693TIP3    H168570   4.289   3.777   5.919  1.4011  2.1386 -0.6477
15693TIP3    H268571   4.143   3.743   5.899  1.4172 -0.4062  3.0567
15694TIP3   OH268572   1.569   6.569  15.771 -0.2414 -0.2523 -0.2622
15694TIP3    H168573   1.598   6.553  15.681  0.2373 -1.2879  0.0584
15694TIP3    H268574   1.646   6.547  15.825  0.1743  2.4311  0.2894
15695TIP3   OH268575   2.161   1.801  16.796  0.0921 -0.1040  0.1069
15695TIP3    H168576   2.133   1.720  16.839  0.4515  0.1871  0.8963
15695TIP3    H268577   2.233   1.833  16.850  0.0683  0.6516 -0.3026
15696TIP3   OH268578   6.301   0.355   0.819  0.2375 -0.2089 -0.6936
15696TIP3    H168579   6.316   0.262   0.836 -1.7809 -0.2654  0.9127
15696TIP3    H268580   6.213   0.372   0.852  1.2228  2.6600  0.5999
15697TIP3   OH268581   6.039   1.858  13.642  0.1620  0.8139 -0.2883
15697TIP3    H168582   6.043   1.762  13.643 -2.7577  0.5736 -2.2502
15697TIP3    H268583   5.998   1.881  13.725 -1.7443  0.0958 -0.9866
15698TIP3   OH268584   0.788   2.202  14.343 -0.0341 -0.2141 -0.1049
15698TIP3    H168585   0.694   2.183  14.349 -0.1013 -0.0897 -0.7337
15698TIP3    H268586   0.793   2.284  14.295  0.3871 -0.0551  0.2084
15699TIP3   OH268587   3.865   6.656   3.466  0.0869 -0.1545 -0.1924
15699TIP3    H168588   3.865   6.567   3.432  1.2404 -0.0112 -0.6099
15699TIP3    H268589   3.942   6.697   3.425  1.1350  0.2235  2.0768
15700TIP3   OH268590   2.614   6.235   6.189 -0.5636 -0.4926  0.3783
15700TIP3    H168591   2.561   6.248   6.267  0.7068  1.7742  0.9162
15700TIP3    H268592   2.684   6.176   6.217 -2.1102 -2.5975 -0.0465
15701TIP3   OH268593   3.984   3.979  11.617  0.2622  0.3643 -0.7850
15701TIP3    H168594   4.004   4.005  11.527  0.2409 -2.4475 -1.6562
15701TIP3    H268595   3.894   3.946  11.612  0.5175 -0.4660  0.1221
15702TIP3   OH268596   5.500   2.988   0.279  0.2965  0.3549  0.6004
15702TIP3    H168597   5.557   3.056   0.315 -1.5955  1.8173  0.9393
15702TIP3    H268598   5.420   2.993   0.333 -0.5609 -0.9264 -0.5244
15703TIP3   OH268599   6.092   3.834   5.427  0.1124  0.0179  0.3686
15703TIP3    H168600   6.014   3.883   5.451  0.4210  0.4233  0.5342
15703TIP3    H268601   6.093   3.759   5.487 -1.0527 -0.9027 -0.7100
15704TIP3   OH268602   2.695   4.413   4.440  0.3734 -1.0618  0.0470
15704TIP3    H168603   2.702   4.408   4.345  2.2883 -2.4519  0.2340
15704TIP3    H268604   2.732   4.331   4.472  1.7374  0.2847  2.0853
15705TIP3   OH268605   0.496   6.474   1.047  0.0062 -0.3754  0.0628
15705TIP3    H168606   0.504   6.551   0.990  1.8044 -0.0252  0.7587
15705TIP3    H268607   0.465   6.510   1.131  0.8920 -0.3889  0.4021
15706TIP3   OH268608   5.469   4.054   0.503  0.1715 -0.1659 -0.0961
15706TIP3    H168609   5.558   4.046   0.539  0.3519  2.6533  0.2318
15706TIP3    H268610   5.420   4.099   0.572 -0.5088  1.7597 -1.8018
15707TIP3   OH268611   2.517   4.249  13.951  0.1396 -0.4125  0.0985
15707TIP3    H168612   2.501   4.185  13.882  2.3545  0.7541 -1.5724
15707TIP3    H268613   2.556   4.324  13.905  2.0633  0.2221  2.6742
15708TIP3   OH268614   6.243   4.781   2.394 -0.4459 -0.0941 -0.2975
15708TIP3    H168615   6.330   4.820   2.394 -0.6843  0.4407  0.1817
15708TIP3    H268616   6.196   4.828   2.325  0.0644 -1.3466 -1.5332
15709TIP3   OH268617   4.493   3.927   0.017  0.1097  0.7969 -1.1616
15709TIP3    H168618   4.501   3.972   0.101  1.7186 -1.8749  0.1869
15709TIP3    H268619   4.501   3.997  -0.049  1.5213  2.6029  0.8663
15710TIP3   OH268620   1.041   3.689  16.322 -0.1019  0.2351 -0.2028
15710TIP3    H168621   1.041   3.597  16.296  1.5156  0.0458  0.3856
15710TIP3    H268622   0.976   3.694  16.393  0.1671 -0.5591  0.1069
15711TIP3   OH268623   2.288   1.013   5.944  0.0849 -0.3297  0.5208
15711TIP3    H168624   2.267   1.006   5.851 -1.1193 -0.6458  0.8128
15711TIP3    H268625   2.292   1.107   5.961 -2.1625 -0.2477  0.6947
15712TIP3   OH268626   6.321   2.641  14.094  0.1575 -0.3593 -0.4124
15712TIP3    H168627   6.339   2.682  14.179  0.3618 -1.8048  0.2713
15712TIP3    H268628   6.401   2.653  14.044  0.6292 -0.8713  0.1922
15713TIP3   OH268629   3.560   3.585  15.031 -0.7533  0.0315  0.0205
15713TIP3    H168630   3.586   3.660  14.979  0.1539  0.1637  0.6423
15713TIP3    H268631   3.466   3.593  15.042 -0.7168  0.8291 -0.2990
15714TIP3   OH268632   4.294   5.080  17.173 -0.2520 -0.1232  0.2870
15714TIP3    H168633   4.291   4.987  17.151  0.0664  0.1912 -1.1339
15714TIP3    H268634   4.311   5.083  17.267 -1.4857 -1.5149  0.5663
15715TIP3   OH268635   0.714   0.393   2.353  0.3743  0.1218 -0.1018
15715TIP3    H168636   0.743   0.465   2.297 -2.0482  1.6810  0.5742
15715TIP3    H268637   0.619   0.393   2.345  0.1350 -1.0559  2.2465
15716TIP3   OH268638   4.819   5.840   6.100  0.0651  0.1561  0.1838
15716TIP3    H168639   4.901   5.840   6.149  0.9671  0.5738 -1.3089
15716TIP3    H268640   4.768   5.911   6.140  1.7510  2.1081 -1.0436
15717TIP3   OH268641   1.150   1.607   4.984  0.6692 -0.0458  0.0766
15717TIP3    H168642   1.117   1.690   5.021 -2.4539 -0.1897 -2.1749
15717TIP3    H268643   1.088   1.541   5.016  0.3677 -0.7724 -1.9498
15718TIP3   OH268644   6.485   6.286  11.252  0.4927 -0.7414  0.0870
15718TIP3    H168645   6.398   6.269  11.217  0.2994 -1.1965  0.7774
15718TIP3    H268646   6.544   6.231  11.200  0.3175 -0.7565 -0.0951
15719TIP3   OH268647   2.810   5.463  15.435 -0.6256 -0.6254 -0.1567
15719TIP3    H168648   2.721   5.432  15.448 -0.8019  0.5122  1.5429
15719TIP3    H268649   2.802   5.534  15.371 -0.7233 -1.5315 -1.1591
15720TIP3   OH268650   5.644   2.090   1.042 -0.4166 -0.5805 -0.1535
15720TIP3    H168651   5.551   2.070   1.045 -0.2737 -1.3987 -1.0029
15720TIP3    H268652   5.659   2.123   0.954 -0.1850  1.0165  0.4692
15721TIP3   OH268653   6.062   1.521   6.130 -0.0893  0.5468  0.0555
15721TIP3    H168654   6.102   1.527   6.043 -0.8372 -1.7329 -0.4869
15721TIP3    H268655   6.114   1.455   6.176  0.0068  1.3948  1.1864
15722TIP3   OH268656   0.426   4.232   1.238 -0.5984  0.0247 -0.7102
15722TIP3    H168657   0.516   4.264   1.228 -0.4713 -0.0496  0.1799
15722TIP3    H268658   0.381   4.301   1.287 -0.8862 -0.1834 -0.6819
15723TIP3   OH268659   0.440   0.992   6.180  0.1632 -0.5888 -0.1674
15723TIP3    H168660   0.398   1.078   6.181  0.6067 -0.3798  0.9532
15723TIP3    H268661   0.530   1.009   6.154  0.3688 -0.6688  0.5047
15724TIP3   OH268662   5.713   3.610   1.138  0.2351  0.1483  0.0295
15724TIP3    H168663   5.751   3.539   1.190 -1.0575  1.7972  3.4265
15724TIP3    H268664   5.681   3.567   1.059 -0.9348 -3.1927  2.1829
15725TIP3   OH268665   5.294   0.445   0.882 -0.6393  0.2655 -0.5435
15725TIP3    H168666   5.292   0.540   0.882 -1.0169  0.2805 -2.3103
15725TIP3    H268667   5.226   0.419   0.944 -0.8647  1.1328 -0.4245
15726TIP3   OH268668   4.692   3.172  13.262  0.2007 -0.1316 -0.0199
15726TIP3    H168669   4.759   3.144  13.323 -0.7961  0.5197  1.4026
15726TIP3    H268670   4.673   3.262  13.286 -0.7712 -0.1220 -0.7651
15727TIP3   OH268671   5.190   4.622  13.961  0.0318 -0.1883  0.3684
15727TIP3    H168672   5.190   4.526  13.967 -3.0967 -0.4397 -2.2015
15727TIP3    H268673   5.119   4.649  14.020 -0.5384  0.3964 -0.5830
15728TIP3   OH268674   1.034   0.813   4.984 -0.4901 -0.1424  0.1500
15728TIP3    H168675   1.089   0.769   5.048 -0.0618 -0.1276 -0.2035
15728TIP3    H268676   1.083   0.807   4.902 -2.7471 -3.5969 -1.0873
15729TIP3   OH268677   2.502   0.074  11.695 -0.2910  0.7532  0.0346
15729TIP3    H168678   2.496   0.162  11.656 -3.4563  0.5972  0.0456
15729TIP3    H268679   2.489   0.088  11.788 -3.1532  0.0808 -0.2222
15730TIP3   OH268680   6.693   4.538  13.092  0.6401  0.1457 -1.2566
15730TIP3    H168681   6.737   4.600  13.151  0.9056  0.3150 -1.6301
15730TIP3    H268682   6.745   4.458  13.100  0.1527 -0.1123 -0.5871
15731TIP3   OH268683   5.540   1.447  13.094  0.1797  0.5168  0.5628
15731TIP3    H168684   5.537   1.431  13.189  0.6655 -0.1790  0.4687
15731TIP3    H268685   5.464   1.502  13.077 -1.8439 -2.0693  0.8573
15732TIP3   OH268686   1.969   3.289  15.657 -0.1228  0.3840 -0.1406
15732TIP3    H168687   1.981   3.255  15.745  0.1971  1.0386  0.0693
15732TIP3    H268688   1.996   3.380  15.662  0.7155  0.2035 -1.1121
15733TIP3   OH268689   1.936   2.407  14.273  1.1689 -0.1521  0.3932
15733TIP3    H168690   1.930   2.405  14.368  1.2726 -1.1518  0.3812
15733TIP3    H268691   1.955   2.317  14.248 -1.4772 -0.4263 -0.7418
15734TIP3   OH268692   5.094   4.281   0.837  0.0516 -0.6103  0.0357
15734TIP3    H168693   5.083   4.355   0.778 -1.7263 -0.5934  0.3834
15734TIP3    H268694   5.044   4.304   0.915 -0.8960 -2.3676 -0.0284
15735TIP3   OH268695   1.174   5.755  11.404 -0.8546  0.1146 -0.0357
15735TIP3    H168696   1.124   5.674  11.409 -2.7908  1.2378 -0.8669
15735TIP3    H268697   1.222   5.749  11.321 -2.0392  0.3850 -0.7555
15736TIP3   OH268698   3.962   6.686   4.706  0.4704 -0.6023  0.1783
15736TIP3    H168699   3.932   6.759   4.651 -0.4943 -1.6431 -0.7166
15736TIP3    H268700   3.882   6.637   4.724  0.9536 -0.8636  1.6561
15737TIP3   OH268701   6.401   1.215  12.182  0.7797 -0.0843 -0.0969
15737TIP3    H168702   6.445   1.288  12.226  2.3044 -0.6210 -0.6872
15737TIP3    H268703   6.311   1.219  12.213  1.0025  1.6507  0.3863
15738TIP3   OH268704   5.309   2.704  15.004  0.0116 -0.1354 -0.4309
15738TIP3    H168705   5.304   2.629  15.064  0.6952  0.6023  0.5734
15738TIP3    H268706   5.353   2.772  15.055 -0.3365  0.8536 -1.4346
15739TIP3   OH268707   6.275   5.149   3.626 -0.4069  0.7801  0.0286
15739TIP3    H168708   6.369   5.135   3.613 -0.5606 -1.1064  0.7429
15739TIP3    H268709   6.269   5.206   3.702  0.1456 -0.9817  1.4416
15740TIP3   OH268710   3.687   3.693  14.517 -0.2319  0.2340 -0.1324
15740TIP3    H168711   3.626   3.636  14.470 -1.9642  1.3726  0.6908
15740TIP3    H268712   3.682   3.663  14.607 -0.6245  1.2193  0.1804
15741TIP3   OH268713   2.009   3.527  11.694  0.3135 -0.3118  0.0849
15741TIP3    H168714   2.022   3.433  11.705  1.0574 -0.1129  0.9642
15741TIP3    H268715   1.923   3.544  11.732  0.1014 -0.6564 -0.2316
15742TIP3   OH268716   0.513   0.903  14.130 -0.3465 -0.0281 -0.1598
15742TIP3    H168717   0.516   0.867  14.219  1.7217 -1.7906 -0.8669
15742TIP3    H268718   0.423   0.888  14.101 -0.8397 -0.1277  1.3760
15743TIP3   OH268719   1.558   6.805  11.545  0.2529 -0.4407 -0.5653
15743TIP3    H168720   1.520   6.722  11.573  0.1953  0.0635  0.8705
15743TIP3    H268721   1.512   6.871  11.596  0.9395  0.4174 -1.0351
15744TIP3   OH268722   6.110   3.737  16.671  0.6386  0.3550  0.1187
15744TIP3    H168723   6.104   3.744  16.766 -1.7240 -0.6471  0.0763
15744TIP3    H268724   6.058   3.810  16.638  2.3697  1.3718 -0.4457
15745TIP3   OH268725   0.163   2.655   6.249  0.5019 -0.0986 -0.4082
15745TIP3    H168726   0.067   2.657   6.255  0.3608 -3.0254 -0.6774
15745TIP3    H268727   0.192   2.732   6.296 -1.9912  0.6710 -0.0591
15746TIP3   OH268728   4.060   6.702   2.331 -0.4213 -0.1031 -0.6114
15746TIP3    H168729   4.059   6.607   2.325 -2.4374 -0.0759 -1.0851
15746TIP3    H268730   3.980   6.724   2.378  0.2897  1.3396 -0.0237
15747TIP3   OH268731   3.845   3.622   3.039  0.1579 -0.2259 -0.4551
15747TIP3    H168732   3.881   3.632   2.950 -0.1662 -0.7903 -0.6534
15747TIP3    H268733   3.864   3.705   3.082  1.0092 -0.2325 -0.8063
15748TIP3   OH268734   6.172   3.795   3.121 -0.4259 -0.0207 -0.6473
15748TIP3    H168735   6.116   3.841   3.183  1.4015  1.3268  0.0563
15748TIP3    H268736   6.136   3.706   3.117 -0.5045 -0.1747  2.4540
15749TIP3   OH268737   4.005   5.386   2.150  0.2531  0.3017 -0.8677
15749TIP3    H168738   4.057   5.404   2.228 -0.8229 -2.2257  0.4949
15749TIP3    H268739   3.940   5.457   2.148  0.4706  0.5496  0.3572
15750TIP3   OH268740   5.965   4.108   0.104  0.4527 -0.0401 -0.8979
15750TIP3    H168741   5.950   4.092   0.011  0.7286  0.1342 -0.9762
15750TIP3    H268742   5.879   4.105   0.144  0.2502  0.6180 -1.2783
15751TIP3   OH268743   4.579   2.255  15.341 -0.3554  0.1218  0.4082
15751TIP3    H168744   4.609   2.250  15.250  0.3895  3.3622  0.3995
15751TIP3    H268745   4.632   2.191  15.388 -0.0792 -0.9024 -1.2580
15752TIP3   OH268746   6.164   6.789  11.715 -0.1280  0.2324  0.5167
15752TIP3    H168747   6.150   6.818  11.625  1.0228 -1.5221 -0.2589
15752TIP3    H268748   6.083   6.744  11.739  0.0935 -0.5271 -0.1508
15753TIP3   OH268749   4.298   1.775   2.688 -0.6378 -0.0423 -0.0734
15753TIP3    H168750   4.366   1.826   2.732 -1.3088  1.5812 -0.8722
15753TIP3    H268751   4.300   1.689   2.731  2.1492 -0.1477 -0.3481
15754TIP3   OH268752   1.608   4.422   2.541  0.1056  0.0780  0.6479
15754TIP3    H168753   1.570   4.362   2.478 -0.2276  1.2209 -0.2545
15754TIP3    H268754   1.547   4.422   2.615 -0.2057 -0.2273  0.3888
15755TIP3   OH268755   1.930   2.456   4.594 -0.0028  0.1840 -0.8464
15755TIP3    H168756   1.882   2.499   4.665  0.3500  0.8068 -0.9752
15755TIP3    H268757   1.991   2.397   4.639 -1.2140 -0.9630 -0.7036
15756TIP3   OH268758   3.274   3.765  16.934  0.0149  0.4870  0.1079
15756TIP3    H168759   3.344   3.702  16.952  0.1567  1.0405  1.5666
15756TIP3    H268760   3.214   3.718  16.876  2.1037  0.3451 -2.0015
15757TIP3   OH268761   4.573   0.052  10.961  0.2960  0.2890 -0.0876
15757TIP3    H168762   4.586   0.038  11.055  0.3467 -0.6507 -0.2366
15757TIP3    H268763   4.485   0.019  10.943  0.8127 -0.7982 -0.6350
15758TIP3   OH268764   6.402   1.868   6.041  0.0493  0.0837  0.0673
15758TIP3    H168765   6.424   1.777   6.060  0.7691  0.3213  0.3648
15758TIP3    H268766   6.479   1.902   5.995 -1.0569 -0.0556 -1.9701
15759TIP3   OH268767   3.915   5.149  14.330  0.2087 -0.5675  0.4978
15759TIP3    H168768   3.832   5.122  14.369  0.1808 -0.1025  0.7681
15759TIP3    H268769   3.922   5.098  14.249 -0.6363 -0.1643  0.1635
15760TIP3   OH268770   3.344   6.197   1.099  0.3600  0.0167 -0.1477
15760TIP3    H168771   3.419   6.242   1.140 -0.2738 -0.2317  1.3126
15760TIP3    H268772   3.379   6.112   1.072 -0.1905 -1.5274  3.6799
15761TIP3   OH268773   3.824   2.270   5.542 -0.1663  0.1099  0.3934
15761TIP3    H168774   3.885   2.272   5.469  0.4784  2.0918  0.9447
15761TIP3    H268775   3.798   2.361   5.554 -0.9703 -0.3126  2.0421
15762TIP3   OH268776   2.782   5.568  14.548  0.3745  0.3808  0.0560
15762TIP3    H168777   2.695   5.604  14.559 -0.4715 -1.6260  0.1862
15762TIP3    H268778   2.804   5.586  14.456 -2.7596 -4.4085 -1.8057
15763TIP3   OH268779   2.104   2.950   4.897 -0.4537 -0.0297 -0.5374
15763TIP3    H168780   2.132   3.036   4.866  0.3667 -0.1759 -0.2387
15763TIP3    H268781   2.025   2.930   4.846 -0.3047  0.6337 -1.0379
15764TIP3   OH268782   4.878   1.794   3.801 -0.3417  0.1334 -0.1413
15764TIP3    H168783   4.923   1.717   3.837  3.4257  1.0888 -2.5450
15764TIP3    H268784   4.905   1.866   3.858 -0.4812  0.3801 -0.3842
15765TIP3   OH268785   5.424   6.674  11.195 -1.0512  0.3884 -0.5310
15765TIP3    H168786   5.384   6.661  11.281 -0.2862 -0.7558 -0.3322
15765TIP3    H268787   5.491   6.741  11.209 -0.1077 -0.6678  0.0311
15766TIP3   OH268788   6.256   4.004   1.306 -0.0258  0.2414 -0.1825
15766TIP3    H168789   6.299   4.069   1.250 -0.8832  0.7127 -0.3044
15766TIP3    H268790   6.165   4.034   1.313 -0.5845 -1.2455 -0.7031
15767TIP3   OH268791   4.385   3.857  16.469 -0.2673  0.7389 -0.3457
15767TIP3    H168792   4.334   3.787  16.509 -0.3363  1.5507  0.9913
15767TIP3    H268793   4.420   3.907  16.542  2.7376  0.0431 -1.2176
15768TIP3   OH268794   6.274   1.856  12.353  0.0207 -0.5253  0.7713
15768TIP3    H168795   6.330   1.861  12.431  0.5413  1.1614  0.3274
15768TIP3    H268796   6.236   1.768  12.356  0.0761 -0.5224  2.8941
15769TIP3   OH268797   1.792   5.741  15.885 -0.0502 -0.8298 -0.3230
15769TIP3    H168798   1.883   5.710  15.883  0.1472 -0.2074 -1.2013
15769TIP3    H268799   1.792   5.819  15.829 -0.9212 -0.2655  0.4520
15770TIP3   OH268800   5.044   4.789  13.428  0.0089  0.7082  0.4496
15770TIP3    H168801   5.019   4.813  13.339 -0.5491  1.0900  0.7061
15770TIP3    H268802   4.999   4.705  13.443  1.3531 -0.1434 -0.1783
15771TIP3   OH268803   4.739   5.553   6.056  0.2535  0.5565  0.6178
15771TIP3    H168804   4.694   5.578   5.975 -0.9731  0.2709  1.1954
15771TIP3    H268805   4.775   5.634   6.090  1.6566  0.5302 -0.7215
15772TIP3   OH268806   1.941   0.898  11.909  0.2382  0.3732  0.0180
15772TIP3    H168807   1.922   0.820  11.856 -0.7132  0.1685  0.6574
15772TIP3    H268808   2.025   0.879  11.951 -0.4997 -0.7327  0.9880
15773TIP3   OH268809   2.246   0.789  15.834 -0.5661 -0.0125  0.0909
15773TIP3    H168810   2.256   0.876  15.873  0.3405 -0.1030  0.0675
15773TIP3    H268811   2.314   0.785  15.767  0.1736 -1.1778  0.8895
15774TIP3   OH268812   3.852   6.731  11.268 -0.4270  0.1571  0.1199
15774TIP3    H168813   3.888   6.777  11.192  0.4187  0.5437  0.7398
15774TIP3    H268814   3.760   6.717  11.247  0.1326 -1.0511 -1.6171
15775TIP3   OH268815   4.330   2.234  10.946  0.7758 -0.1830 -0.5706
15775TIP3    H168816   4.271   2.208  10.874 -2.6282  1.5496  1.4468
15775TIP3    H268817   4.317   2.167  11.013  2.4255 -0.6954 -0.7393
15776TIP3   OH268818   0.681   5.656   5.477  0.3288  0.0909 -0.5733
15776TIP3    H168819   0.650   5.568   5.498 -1.3329  0.4217 -1.5907
15776TIP3    H268820   0.640   5.713   5.543  1.0803  0.1567 -0.1595
15777TIP3   OH268821   6.568   1.139   2.355  0.4455  0.3007 -0.0166
15777TIP3    H168822   6.518   1.064   2.385  1.1174  0.4231  1.4396
15777TIP3    H268823   6.654   1.103   2.332  0.6591  0.5662  0.3620
15778TIP3   OH268824   0.075   2.046   1.099  0.4916 -0.3914  0.2875
15778TIP3    H168825   0.107   2.125   1.056  0.1073  0.3787  1.3887
15778TIP3    H268826   0.144   1.982   1.086  0.3004 -0.2336 -1.6228
15779TIP3   OH268827   2.696   2.067  16.326  0.3057  0.1588 -0.3839
15779TIP3    H168828   2.740   2.104  16.249 -1.1524  0.5902 -1.0353
15779TIP3    H268829   2.603   2.081  16.309 -0.1071 -1.0658  0.7923
15780TIP3   OH268830   3.114   5.119   4.787 -0.3569  0.2039  0.0396
15780TIP3    H168831   3.105   5.213   4.772  1.2280  0.2904 -0.3734
15780TIP3    H268832   3.198   5.096   4.749 -1.1818 -1.5911 -0.7803
15781TIP3   OH268833   5.992   2.048  16.728 -0.8743 -0.6163 -0.2726
15781TIP3    H168834   6.019   2.018  16.641  0.5341 -0.7632  0.1978
15781TIP3    H268835   5.915   1.995  16.749 -0.2878 -1.6952 -0.7850
15782TIP3   OH268836   4.085   6.286  11.914  0.0729 -0.4158 -0.4558
15782TIP3    H168837   4.012   6.337  11.947  1.5525  0.9120  0.8375
15782TIP3    H268838   4.125   6.342  11.847  1.3657 -0.0795  0.5755
15783TIP3   OH268839   2.373   2.949   1.632  0.0876 -0.3178 -0.3476
15783TIP3    H168840   2.302   2.957   1.695  0.4477  0.6155 -0.0566
15783TIP3    H268841   2.412   2.863   1.650  0.3884  0.0750  0.9033
15784TIP3   OH268842   5.367   4.189   1.591 -0.8245 -0.8148  0.3468
15784TIP3    H168843   5.322   4.133   1.527 -0.0277 -0.2689 -0.7016
15784TIP3    H268844   5.300   4.252   1.618 -0.6017  0.2108 -1.4655
15785TIP3   OH268845   5.567   3.568  13.548 -0.2991  0.4674 -0.0375
15785TIP3    H168846   5.586   3.641  13.489  0.1586  1.5219  1.3898
15785TIP3    H268847   5.497   3.600  13.605  0.1594 -0.0756  0.8466
15786TIP3   OH268848   5.717   6.087  13.192  0.3269  0.9864  0.6763
15786TIP3    H168849   5.706   6.060  13.101 -1.9465  0.2164  1.1553
15786TIP3    H268850   5.769   6.017  13.231 -1.0437 -0.0775  0.6265
15787TIP3   OH268851   1.956   0.490  14.900  0.5466  0.2564 -0.4533
15787TIP3    H168852   1.947   0.467  14.807 -0.3182 -0.7796 -0.1237
15787TIP3    H268853   1.874   0.462  14.939  0.3759  1.8961  0.3975
15788TIP3   OH268854   5.829   3.390  16.279 -0.1027 -0.0236  0.0042
15788TIP3    H168855   5.775   3.469  16.272 -0.4563 -0.2956 -0.3923
15788TIP3    H268856   5.774   3.328  16.326 -0.9142 -0.9571 -2.0976
15789TIP3   OH268857   4.774   0.987   2.683 -0.5546 -0.5437  0.4142
15789TIP3    H168858   4.864   0.955   2.677 -0.5161 -0.3544 -0.0478
15789TIP3    H268859   4.781   1.070   2.731 -0.6440 -1.1742  1.5271
15790TIP3   OH268860   0.110   5.552   6.380 -0.5177 -0.0332 -0.8526
15790TIP3    H168861   0.160   5.633   6.389 -0.8060  0.1835 -1.2038
15790TIP3    H268862   0.026   5.570   6.421 -0.0917 -0.5922  0.2654
15791TIP3   OH268863   4.534   2.065  10.467 -0.0223  0.3159 -0.2563
15791TIP3    H168864   4.565   2.140  10.417 -2.0633  0.1473 -1.8310
15791TIP3    H268865   4.526   2.098  10.557  0.4447  1.5764 -0.6650
15792TIP3   OH268866   0.731   1.167  15.733 -0.5056  0.0790 -0.5853
15792TIP3    H168867   0.799   1.100  15.733 -0.1932  0.3687  1.0336
15792TIP3    H268868   0.757   1.228  15.663  0.2974 -0.4076 -0.7199
15793TIP3   OH268869   3.222   4.126   6.045  0.2107  0.6121 -0.2198
15793TIP3    H168870   3.144   4.173   6.016  0.8801  1.7531 -0.1941
15793TIP3    H268871   3.221   4.133   6.140  0.4152  0.7476 -0.2265
15794TIP3   OH268872   6.591   3.438  15.953 -0.1874  0.2953 -0.2507
15794TIP3    H168873   6.635   3.459  16.036  0.8599 -0.3716 -0.6215
15794TIP3    H268874   6.499   3.455  15.970 -0.0761 -0.4865  1.2809
15795TIP3   OH268875   3.383   6.794   1.860 -0.6443 -0.4348 -0.6445
15795TIP3    H168876   3.297   6.752   1.862 -0.2847 -1.1178  1.1843
15795TIP3    H268877   3.389   6.840   1.943  0.1096  0.9664 -1.4559
15796TIP3   OH268878   5.533   6.702   4.949  0.1450 -0.0748 -0.3223
15796TIP3    H168879   5.537   6.631   5.012  0.3889 -0.3423 -0.6398
15796TIP3    H268880   5.579   6.774   4.991  2.4960 -1.0199 -1.1780
15797TIP3   OH268881   0.367   1.107   1.228 -0.2480 -0.0844  0.3848
15797TIP3    H168882   0.345   1.102   1.322  0.5071  1.5317  0.6594
15797TIP3    H268883   0.286   1.136   1.186 -1.0276 -2.2483  0.3256
15798TIP3   OH268884   6.468   6.568   2.713 -0.1111 -0.0856 -0.4836
15798TIP3    H168885   6.543   6.610   2.754  0.3964 -1.5180  0.0968
15798TIP3    H268886   6.496   6.477   2.700 -0.9292 -0.0985 -2.3166
15799TIP3   OH268887   3.776   6.637  16.553 -0.3755  0.1198 -0.1745
15799TIP3    H168888   3.721   6.653  16.629  1.1711 -0.0552  1.0007
15799TIP3    H268889   3.714   6.623  16.481 -1.8985 -1.7630  1.4388
15800TIP3   OH268890   6.399   1.373   2.419  0.0892 -0.1272  0.7363
15800TIP3    H168891   6.414   1.428   2.342 -3.0072 -1.7646 -1.1395
15800TIP3    H268892   6.470   1.309   2.417  0.9019  0.7737  0.1266
15801TIP3   OH268893   4.975   2.847  14.756 -0.2057 -0.6613  0.2037
15801TIP3    H168894   4.886   2.878  14.735  0.7423  1.5322 -0.7056
15801TIP3    H268895   5.010   2.817  14.673  0.4662 -0.0696  0.2747
15802TIP3   OH268896   3.770   2.571   3.069  0.5440  0.3785  0.3062
15802TIP3    H168897   3.810   2.538   2.989 -0.5810 -1.3948  0.4456
15802TIP3    H268898   3.688   2.611   3.041 -0.8686 -2.1144  0.7779
15803TIP3   OH268899   5.397   0.979   5.227 -0.0007 -0.2229 -0.1500
15803TIP3    H168900   5.439   0.903   5.188 -1.0135 -0.7257 -0.2676
15803TIP3    H268901   5.400   1.046   5.159 -2.0489 -1.1956 -1.2438
15804TIP3   OH268902   0.713   3.631  14.949  0.3021 -0.9439  0.1674
15804TIP3    H168903   0.639   3.663  15.001  0.4793 -1.2306  0.5957
15804TIP3    H268904   0.777   3.702  14.953 -0.2213 -0.4098 -0.7700
15805TIP3   OH268905   1.583   2.071  16.117  0.2132  0.1054 -0.6592
15805TIP3    H168906   1.577   1.979  16.141  1.6596  0.1914  0.0857
15805TIP3    H268907   1.546   2.118  16.192  0.1932  0.1537 -0.7003
15806TIP3   OH268908   2.659   6.389  12.947  0.8515 -0.1020  0.5149
15806TIP3    H168909   2.622   6.438  12.874  0.0875 -1.4837 -0.0601
15806TIP3    H268910   2.743   6.431  12.965 -0.4329  2.3186  1.0341
15807TIP3   OH268911   0.661   3.683  12.820  0.1077  0.2531 -0.3665
15807TIP3    H168912   0.656   3.746  12.748  1.1341  1.5045  0.6325
15807TIP3    H268913   0.755   3.675  12.839 -0.1150 -0.4221  0.5289
15808TIP3   OH268914   0.420   3.330  15.348 -0.1230  0.3285  0.1986
15808TIP3    H168915   0.406   3.303  15.439  1.7575  0.4228  0.5382
15808TIP3    H268916   0.332   3.330  15.309 -0.8896 -0.1832  1.8750
15809TIP3   OH268917   0.485   6.422  14.692 -0.7068  0.3666  0.0108
15809TIP3    H168918   0.561   6.478  14.708  0.2308 -0.4023 -1.6736
15809TIP3    H268919   0.482   6.364  14.767  0.1823  0.6092  0.2382
15810TIP3   OH268920   4.461   4.760  17.126  0.0446  0.4082  0.0350
15810TIP3    H168921   4.452   4.703  17.050  0.8228 -0.1991  0.4030
15810TIP3    H268922   4.514   4.833  17.095  0.3610  0.1614 -0.0027
15811TIP3   OH268923   4.984   1.125   5.766  0.1540  0.0024  0.2430
15811TIP3    H168924   5.018   1.068   5.835  2.7713  0.9121 -0.2553
15811TIP3    H268925   5.029   1.097   5.687 -1.4054  0.2481 -0.7444
15812TIP3   OH268926   2.870   2.180   0.187 -0.0550 -0.2939 -0.4773
15812TIP3    H168927   2.926   2.167   0.263 -0.0740  2.3101  0.0252
15812TIP3    H268928   2.893   2.109   0.127  0.6700 -1.7820  1.5130
15813TIP3   OH268929   3.278   1.720   4.553 -0.5451  0.2872  1.1186
15813TIP3    H168930   3.299   1.658   4.623  2.5198 -0.5938 -0.4753
15813TIP3    H268931   3.243   1.666   4.482  0.7926  0.5394  0.2489
15814TIP3   OH268932   6.123   6.097   4.816  0.2748  0.3033 -0.4054
15814TIP3    H168933   6.088   6.092   4.905  1.1971  3.6470  0.2021
15814TIP3    H268934   6.070   6.163   4.773  0.4805 -0.5858 -2.0396
15815TIP3   OH268935   1.520   2.195  12.243 -0.2717  1.0922 -0.9388
15815TIP3    H168936   1.477   2.111  12.257  1.8956  0.0420 -0.2700
15815TIP3    H268937   1.450   2.255  12.217 -2.4137 -0.0433  2.0389
15816TIP3   OH268938   4.675   6.348   5.889 -0.6977  0.1628  0.2421
15816TIP3    H168939   4.758   6.308   5.862 -1.1570 -0.3754 -0.3787
15816TIP3    H268940   4.672   6.334   5.983 -1.3172 -2.1835 -0.0892
15817TIP3   OH268941   2.924   6.239   3.351 -0.3879  0.0469  0.2680
15817TIP3    H168942   2.922   6.181   3.427 -0.4562  1.1247  1.1053
15817TIP3    H268943   3.013   6.274   3.351 -1.3610  2.6705  1.8955
15818TIP3   OH268944   2.455   3.307   4.607  0.3902  0.0047  0.3255
15818TIP3    H168945   2.549   3.317   4.618  0.3763  1.7085 -0.9189
15818TIP3    H268946   2.417   3.375   4.663 -0.0753 -0.2822  0.3610
15819TIP3   OH268947   5.089   5.088   6.067  0.4047  0.2445 -0.5276
15819TIP3    H168948   5.017   5.123   6.120 -1.2683  0.0564 -2.5788
15819TIP3    H268949   5.080   4.993   6.073  1.9716  0.1744  1.1197
15820TIP3   OH268950   3.321   0.097   2.460 -0.3212 -0.1789  0.1374
15820TIP3    H168951   3.298   0.011   2.426  0.0226 -0.1339 -0.2070
15820TIP3    H268952   3.311   0.089   2.555  2.1113 -1.3074  0.3239
15821TIP3   OH268953   1.095   2.571  11.257 -0.0220  0.4382  0.4353
15821TIP3    H168954   1.171   2.628  11.247 -0.2829  0.6521 -0.3595
15821TIP3    H268955   1.042   2.613  11.325 -0.4560  1.4091 -0.5018
15822TIP3   OH268956   4.677   0.044   1.682  0.1651  0.5587 -0.4391
15822TIP3    H168957   4.772   0.038   1.671  0.1542  0.5440 -0.5252
15822TIP3    H268958   4.664   0.113   1.746  0.1065  2.5403 -2.5380
15823TIP3   OH268959   6.663   3.953   4.154  0.4635  0.6025  0.7078
15823TIP3    H168960   6.740   4.009   4.155  1.3735 -0.6267  1.1952
15823TIP3    H268961   6.660   3.917   4.066  1.3437 -0.5404  1.1327
15824TIP3   OH268962   4.701   3.917  16.919  0.7952 -0.1433  0.5001
15824TIP3    H168963   4.715   3.826  16.895 -4.2776 -1.2029  0.9762
15824TIP3    H268964   4.677   3.960  16.837  0.8818  0.2103  0.6633
15825TIP3   OH268965   3.869   5.049  15.439  0.3112 -0.2110  0.4085
15825TIP3    H168966   3.870   5.117  15.507 -2.7184 -0.0837  0.4072
15825TIP3    H268967   3.782   5.010  15.446  0.8358 -1.8560 -1.7953
15826TIP3   OH268968   1.319   4.738   4.273  0.4121  0.1577 -0.2382
15826TIP3    H168969   1.324   4.642   4.281  1.0033  0.2152  0.1341
15826TIP3    H268970   1.383   4.759   4.204  0.7917  0.3439  0.1692
15827TIP3   OH268971   6.664   0.044   4.643  0.1973  0.4881  0.4785
15827TIP3    H168972   6.655   0.139   4.647 -0.0460  0.4334  1.2693
15827TIP3    H268973   6.751   0.027   4.679  0.5293  0.4652 -0.3339
15828TIP3   OH268974   0.888   4.904   5.357  0.6992 -0.6885  0.1584
15828TIP3    H168975   0.972   4.899   5.311  0.6665  1.0210 -0.1330
15828TIP3    H268976   0.890   4.990   5.401  0.3007 -1.8473  2.5142
15829TIP3   OH268977   3.105   3.356   3.486  0.2332 -0.2487 -0.2891
15829TIP3    H168978   3.195   3.387   3.476 -0.1744  0.8796 -0.5096
15829TIP3    H268979   3.085   3.370   3.578  0.4715 -1.0484 -0.1074
15830TIP3   OH268980   5.701   1.867  11.140  0.1975  0.5961 -0.2003
15830TIP3    H168981   5.686   1.798  11.205  0.8658  1.4987  0.9527
15830TIP3    H268982   5.652   1.942  11.174 -0.8392  0.5893 -1.6444
15831TIP3   OH268983   5.979   5.295   2.629 -0.1852  0.5271  0.2761
15831TIP3    H168984   6.051   5.355   2.647  2.5509 -2.9500  1.2744
15831TIP3    H268985   5.923   5.301   2.706 -0.2040  2.1166  0.1518
15832TIP3   OH268986   4.730   1.597   2.400  0.3211  0.5940 -0.3901
15832TIP3    H168987   4.698   1.686   2.414  1.1468  0.6054  1.6352
15832TIP3    H268988   4.692   1.570   2.317 -3.2745  1.3609  0.9115
15833TIP3   OH268989   2.292   6.687  14.111  0.3582  0.1627  0.0140
15833TIP3    H168990   2.274   6.745  14.038 -1.0021 -0.3078 -0.0204
15833TIP3    H268991   2.309   6.747  14.185 -0.0689  0.6099 -0.2481
15834TIP3   OH268992   0.938   5.163  11.955  0.0890  0.3833  0.7442
15834TIP3    H168993   1.009   5.220  11.926 -1.4252  0.4512 -3.0874
15834TIP3    H268994   0.863   5.188  11.901 -1.4837 -3.0511  1.2091
15835TIP3   OH268995   1.114   4.231   3.688  0.2025 -0.3065 -0.1120
15835TIP3    H168996   1.124   4.186   3.772  0.4104 -2.4859 -1.2424
15835TIP3    H268997   1.043   4.185   3.645 -0.1773  1.0641 -0.9731
15836TIP3   OH268998   3.594   3.024  15.083 -0.0106  0.8353  0.4927
15836TIP3    H168999   3.543   3.037  15.004  1.2276  0.6349 -0.3499
15836TIP3    H269000   3.626   2.934  15.078  1.9332  1.5160  0.0968
15837TIP3   OH269001   6.394   4.403   0.603  0.2906  0.6409  0.4611
15837TIP3    H169002   6.482   4.390   0.566  1.1604  3.2084  1.4963
15837TIP3    H269003   6.363   4.484   0.563 -1.5606 -0.1224  0.2728
15838TIP3   OH269004   6.774   5.483   0.682  0.4051  0.7871  0.6077
15838TIP3    H169005   6.785   5.428   0.760  1.5586  0.3997  0.1892
15838TIP3    H269006   6.824   5.562   0.701  1.6910  0.1909 -0.1998
15839TIP3   OH269007   4.511   3.426  11.029  0.0685  0.2449 -0.6535
15839TIP3    H169008   4.598   3.464  11.038  0.8662 -2.0909  2.1419
15839TIP3    H269009   4.455   3.481  11.085  0.2600  0.1709 -0.3910
15840TIP3   OH269010   6.099   0.514   4.852 -0.1214 -0.2260 -0.2261
15840TIP3    H169011   6.169   0.546   4.795  1.0645 -0.2401  1.1853
15840TIP3    H269012   6.134   0.434   4.891 -0.1593  0.7827  1.9444
15841TIP3   OH269013   4.453   4.452  14.166 -0.2950  0.0837  0.3188
15841TIP3    H169014   4.437   4.545  14.150 -0.5676 -0.1635 -0.8588
15841TIP3    H269015   4.370   4.418  14.199 -0.5620 -0.0017 -0.4331
15842TIP3   OH269016   3.794   0.637   6.496 -0.1213  0.0581  0.1726
15842TIP3    H169017   3.831   0.634   6.408  0.3270 -0.5261  0.3810
15842TIP3    H269018   3.845   0.704   6.542  1.4984 -1.6009  0.8315
15843TIP3   OH269019   3.194   5.535  16.034  0.4613 -0.2675 -0.7445
15843TIP3    H169020   3.270   5.593  16.041 -0.4766  0.8441  0.3550
15843TIP3    H269021   3.216   5.459  16.088  1.0686 -0.2774 -0.9952
15844TIP3   OH269022   6.195   0.852   4.197  0.5163 -0.4665  0.0611
15844TIP3    H169023   6.235   0.897   4.122  1.7315 -1.5623  0.0331
15844TIP3    H269024   6.226   0.762   4.190 -0.8557 -1.0122  0.8443
15845TIP3   OH269025   0.564   2.742  15.483  0.6639 -0.4968 -0.0610
15845TIP3    H169026   0.563   2.829  15.523  0.6612  0.1306 -1.4271
15845TIP3    H269027   0.472   2.718  15.474  0.6664 -0.7514  0.5153
15846TIP3   OH269028   4.220   3.729  15.809 -0.1844 -0.2006 -0.0301
15846TIP3    H169029   4.142   3.679  15.833  0.2250 -2.5160 -3.1431
15846TIP3    H269030   4.287   3.701  15.872 -1.2122 -0.0374  1.1435
15847TIP3   OH269031   2.401   1.404   2.959 -0.6820 -0.1944 -0.2993
15847TIP3    H169032   2.336   1.374   2.895 -1.3626  1.1143 -0.2545
15847TIP3    H269033   2.409   1.498   2.942 -0.8988  0.1808  1.5715
15848TIP3   OH269034   2.877   2.944  15.809 -0.2477 -0.0595 -0.0996
15848TIP3    H169035   2.890   2.920  15.718  0.8728  1.4640 -0.3571
15848TIP3    H269036   2.840   2.866  15.850  0.6796 -1.2498 -1.5093
15849TIP3   OH269037   3.463   0.407  13.368 -0.1122 -0.0031  0.0747
15849TIP3    H169038   3.510   0.490  13.375 -2.0215  0.9089  3.0080
15849TIP3    H269039   3.408   0.417  13.290 -1.0137  1.8672  0.9303
15850TIP3   OH269040   1.629   5.578   0.885  0.1297  0.0656 -0.4359
15850TIP3    H169041   1.684   5.632   0.828 -0.0838 -1.0939 -1.7502
15850TIP3    H269042   1.548   5.567   0.836 -0.4220 -0.1352  0.5227
15851TIP3   OH269043   6.814   1.297  13.053  0.3629 -0.2939 -0.0910
15851TIP3    H169044   6.820   1.258  13.140 -1.0093  1.3549  0.7778
15851TIP3    H269045   6.885   1.361  13.050  0.3042 -0.2291 -0.1129
15852TIP3   OH269046   5.382   4.345  12.973  0.0712  0.3854 -0.1706
15852TIP3    H169047   5.287   4.361  12.980  0.0672  0.5151 -0.4850
15852TIP3    H269048   5.406   4.307  13.057 -0.2207  0.5608 -0.0044
15853TIP3   OH269049   2.449   0.632   1.485  0.3248 -0.2186 -0.0874
15853TIP3    H169050   2.485   0.715   1.453  0.4314  0.7185  2.3394
15853TIP3    H269051   2.494   0.618   1.569 -0.0612 -2.4891 -0.2362
15854TIP3   OH269052   4.566   2.919  13.247  0.0228 -0.0555  0.8168
15854TIP3    H169053   4.480   2.906  13.288 -1.1287  0.3939 -1.3672
15854TIP3    H269054   4.574   3.014  13.237 -1.4652 -0.2582 -3.4267
15855TIP3   OH269055   5.896   1.618   4.874  0.2675 -0.0734  0.0113
15855TIP3    H169056   5.883   1.665   4.957 -0.0989 -0.4668  0.1786
15855TIP3    H269057   5.908   1.526   4.901  0.2280 -0.1886 -0.3668
15856TIP3   OH269058   0.639   4.860   5.244 -0.1341  0.1878  0.1721
15856TIP3    H169059   0.724   4.893   5.272  0.1437  1.3505 -1.9473
15856TIP3    H269060   0.576   4.923   5.278 -0.2963 -1.2501  2.6819
15857TIP3   OH269061   5.859   1.851   1.297 -0.0865 -0.0677  0.3462
15857TIP3    H169062   5.920   1.777   1.295 -0.3546 -0.2558 -1.5177
15857TIP3    H269063   5.854   1.875   1.390  0.1857 -2.2157  0.9526
15858TIP3   OH269064   0.574   2.440  13.367 -0.0747 -0.5609 -0.2118
15858TIP3    H169065   0.483   2.462  13.386  0.2851 -0.1913  1.1019
15858TIP3    H269066   0.577   2.344  13.372 -0.7306 -0.6837 -1.8550
15859TIP3   OH269067   6.556   0.619   5.385 -0.1807 -0.5981  0.6111
15859TIP3    H169068   6.551   0.600   5.478  0.8900  0.9246  0.9985
15859TIP3    H269069   6.641   0.661   5.373  0.3853 -2.2316 -1.3335
15860TIP3   OH269070   0.155   6.241  10.632  0.0197  0.6751  0.6818
15860TIP3    H169071   0.171   6.174  10.698  0.5028 -1.3968 -1.4715
15860TIP3    H269072   0.203   6.318  10.664  2.3198 -1.0470  1.5379
15861TIP3   OH269073   5.583   4.115  11.690 -0.5103 -0.4583  0.1889
15861TIP3    H169074   5.612   4.050  11.753  0.3612  1.1010  1.4263
15861TIP3    H269075   5.499   4.146  11.723 -0.6496 -0.5299 -0.0925
15862TIP3   OH269076   3.227   2.854  16.328 -0.0105 -0.2691 -0.3385
15862TIP3    H169077   3.171   2.780  16.350 -0.1757  0.2786  1.1088
15862TIP3    H269078   3.174   2.931  16.345  1.3289  0.2750  1.5537
15863TIP3   OH269079   1.480   4.938  14.309  0.8636  0.7618  0.7499
15863TIP3    H169080   1.394   4.974  14.288  0.6416  0.0809  0.4740
15863TIP3    H269081   1.464   4.845  14.324  1.4481  0.7578  1.3489
15864TIP3   OH269082   4.292   3.129   3.770 -0.1376  0.2870  0.3257
15864TIP3    H169083   4.224   3.105   3.833 -0.5186 -0.1193 -0.2345
15864TIP3    H269084   4.341   3.048   3.757  0.3712  0.5459  0.6247
15865TIP3   OH269085   4.571   1.185   0.064  0.7042  0.5124 -0.0691
15865TIP3    H169086   4.635   1.113   0.060  0.2119  0.0983 -0.5049
15865TIP3    H269087   4.609   1.246   0.128  0.8253 -0.4251  0.7715
15866TIP3   OH269088   5.959   3.165   4.793 -0.7735  0.3502 -0.3683
15866TIP3    H169089   5.901   3.224   4.746  0.7583  1.9591 -0.3158
15866TIP3    H269090   5.919   3.155   4.879 -1.4066  0.7443 -0.6156
15867TIP3   OH269091   5.435   2.566   4.968 -0.0631 -0.1742 -0.2151
15867TIP3    H169092   5.445   2.488   5.022 -0.1474 -3.1977 -4.3462
15867TIP3    H269093   5.517   2.614   4.979  0.6547 -1.6825  1.1297
15868TIP3   OH269094   4.688   5.265  17.064  0.1471  0.3986 -0.6733
15868TIP3    H169095   4.671   5.268  17.158  1.5970  0.9587 -0.4150
15868TIP3    H269096   4.721   5.352  17.043 -1.8424  0.8533 -2.0475
15869TIP3   OH269097   0.872   3.998  12.391 -0.5269 -0.0548 -0.6171
15869TIP3    H169098   0.912   3.924  12.345 -1.3112 -2.3005  2.2118
15869TIP3    H269099   0.944   4.060  12.404  0.7295 -1.4715 -0.7471
15870TIP3   OH269100   5.747   4.976  14.591 -0.5785 -0.8734  0.1073
15870TIP3    H169101   5.715   4.999  14.504 -0.3496 -2.8171 -0.5143
15870TIP3    H269102   5.816   4.911  14.575 -0.6355 -1.3672  1.7318
15871TIP3   OH269103   2.308   0.098  14.604  0.1593 -0.1877 -0.4041
15871TIP3    H169104   2.291   0.036  14.675 -0.1222  0.6185  0.2418
15871TIP3    H269105   2.369   0.162  14.641  0.3580 -0.0124 -1.0249
15872TIP3   OH269106   0.954   2.433   6.442 -0.4362  0.3726 -0.1966
15872TIP3    H169107   0.920   2.491   6.510 -0.8389  0.7661 -0.7373
15872TIP3    H269108   0.985   2.356   6.490  0.0475  1.0037  0.5131
15873TIP3   OH269109   4.442   1.040   1.135 -0.2506 -0.2239 -0.0693
15873TIP3    H169110   4.508   0.971   1.128 -0.0856  0.0796 -1.8141
15873TIP3    H269111   4.358   0.993   1.136 -0.1632 -0.4552 -1.7584
15874TIP3   OH269112   4.180   6.225  10.993 -0.2259  0.0498  0.0734
15874TIP3    H169113   4.257   6.174  10.966 -1.4844 -2.2444  0.6789
15874TIP3    H269114   4.153   6.271  10.914  1.9243  1.1296 -0.0799
15875TIP3   OH269115   3.666   6.800   0.072  0.2272  0.1070  0.3257
15875TIP3    H169116   3.609   6.823  -0.001 -2.0153  0.5868  2.1429
15875TIP3    H269117   3.666   6.704   0.074 -0.5326  0.1027  0.2983
15876TIP3   OH269118   5.982   4.637  11.275  0.2208  0.2289  0.2335
15876TIP3    H169119   5.959   4.647  11.182  2.1349  2.2297 -0.0576
15876TIP3    H269120   5.903   4.665  11.321 -0.7162 -0.6853 -0.7796
15877TIP3   OH269121   2.998   6.816  14.425  0.1523  0.2504  0.0098
15877TIP3    H169122   3.078   6.790  14.379  0.3672  1.4574 -0.2976
15877TIP3    H269123   2.990   6.910  14.410  0.3509  0.7360  2.5811
15878TIP3   OH269124   5.695   0.607   1.198  0.0447 -0.4138 -0.6076
15878TIP3    H169125   5.620   0.599   1.138  0.2480 -0.6155 -0.8330
15878TIP3    H269126   5.658   0.589   1.285 -0.0966 -0.8721 -0.7601
15879TIP3   OH269127   5.899   4.408   0.872  0.0118  0.4662  0.3384
15879TIP3    H169128   5.907   4.432   0.779 -0.2037 -0.0915  0.1751
15879TIP3    H269129   5.867   4.318   0.871  0.9120  0.1340  0.9465
15880TIP3   OH269130   1.346   4.605  11.509 -0.3845  0.1248  0.5186
15880TIP3    H169131   1.254   4.619  11.483 -0.0927 -2.8882 -2.5497
15880TIP3    H269132   1.352   4.511  11.523  1.8489  0.5430  2.5430
15881TIP3   OH269133   5.063   6.335   1.737 -0.5420 -0.2672  0.2834
15881TIP3    H169134   5.145   6.292   1.714 -0.5981 -0.3562  0.2453
15881TIP3    H269135   5.070   6.352   1.831  0.3493  1.5044 -0.0780
15882TIP3   OH269136   0.961   5.461   2.023 -0.1611 -0.0984 -0.1973
15882TIP3    H169137   0.991   5.373   2.042  1.9540  0.9157  1.4278
15882TIP3    H269138   1.038   5.506   1.988 -2.0573  0.2304 -4.2459
15883TIP3   OH269139   4.771   6.206   1.463 -0.7032  0.0476 -0.6729
15883TIP3    H169140   4.681   6.174   1.464 -0.8298  0.4128  1.9939
15883TIP3    H269141   4.819   6.146   1.520  0.3971  0.8300 -0.7535
15884TIP3   OH269142   2.527   0.713  15.392  0.2021 -0.2214 -0.5617
15884TIP3    H169143   2.600   0.763  15.355  0.3585 -0.2523 -0.2957
15884TIP3    H269144   2.459   0.717  15.324  0.6556 -0.6733 -1.0542
15885TIP3   OH269145   6.471   5.842  12.325  0.3338 -0.4708 -0.4117
15885TIP3    H169146   6.449   5.878  12.239 -2.2058 -0.0308  0.3677
15885TIP3    H269147   6.548   5.890  12.352 -1.4222  2.5680 -0.5637
15886TIP3   OH269148   0.371   1.467  16.486  0.3523 -0.1041  0.2716
15886TIP3    H169149   0.442   1.506  16.538 -0.1215  0.3008  0.6093
15886TIP3    H269150   0.414   1.441  16.404  1.1684 -1.0533  0.9892
15887TIP3   OH269151   2.756   1.977  14.555  0.0993 -0.0265 -0.2122
15887TIP3    H169152   2.831   1.957  14.611  0.3131 -0.2501 -0.5715
15887TIP3    H269153   2.680   1.964  14.611  0.2350 -1.7551 -0.3849
15888TIP3   OH269154   1.309   1.475   1.277 -0.0318 -0.3331  0.4306
15888TIP3    H169155   1.338   1.557   1.317 -0.9781 -0.1699  0.8104
15888TIP3    H269156   1.285   1.420   1.351  0.0370 -0.7369  0.1520
15889TIP3   OH269157   0.639   2.801   2.057 -0.4300  0.1699  0.2109
15889TIP3    H169158   0.645   2.746   1.979  2.1675  1.6532 -0.6662
15889TIP3    H269159   0.632   2.890   2.023  0.6735  0.8192  1.6601
15890TIP3   OH269160   3.169   3.274   1.201 -0.3246  0.3796  0.1743
15890TIP3    H169161   3.233   3.273   1.130 -1.7237 -2.6884 -1.1667
15890TIP3    H269162   3.097   3.327   1.167  0.0351  0.9535  0.3003
15891TIP3   OH269163   6.746   5.180  15.948 -0.0300 -0.5996 -0.1664
15891TIP3    H169164   6.808   5.236  15.902 -1.8697  1.3102 -0.4375
15891TIP3    H269165   6.747   5.097  15.900 -0.4159  0.6759 -2.4220
15892TIP3   OH269166   6.115   5.250   3.360 -0.7989  0.6251  0.4188
15892TIP3    H169167   6.179   5.252   3.431  0.4915 -1.8196 -0.6253
15892TIP3    H269168   6.056   5.178   3.383 -0.0699 -0.5109 -1.2055
15893TIP3   OH269169   3.504   1.696   2.404 -0.1840  0.7875  0.1015
15893TIP3    H169170   3.580   1.741   2.443  0.8208  0.0320 -0.9334
15893TIP3    H269171   3.453   1.665   2.478 -0.3798  2.7786  0.8371
15894TIP3   OH269172   0.816   1.532   3.625 -0.5086  0.1885 -0.1193
15894TIP3    H169173   0.805   1.445   3.587 -0.0622  0.6502 -1.3428
15894TIP3    H269174   0.728   1.569   3.628 -0.6089 -0.0351 -0.2755
15895TIP3   OH269175   1.855   2.096  16.190  0.5044 -0.1018  0.8788
15895TIP3    H169176   1.888   2.179  16.224 -1.0078  0.8085  0.1848
15895TIP3    H269177   1.761   2.111  16.178  0.1835 -1.9821  0.9362
15896TIP3   OH269178   0.881   6.044  12.968  0.0376 -0.0572 -0.1297
15896TIP3    H169179   0.921   6.129  12.987  0.4396  0.0572 -1.4479
15896TIP3    H269180   0.910   5.988  13.041 -0.0112  0.8531  0.6023
15897TIP3   OH269181   5.367   1.513  12.799  0.1582  0.3094 -0.5028
15897TIP3    H169182   5.334   1.475  12.718  1.9526  0.9755 -1.5698
15897TIP3    H269183   5.434   1.452  12.829 -0.3593  0.1666  0.3905
15898TIP3   OH269184   3.770   5.490  11.468 -0.6030  0.2221 -0.0427
15898TIP3    H169185   3.698   5.552  11.472 -2.0954 -1.2699 -2.3577
15898TIP3    H269186   3.790   5.470  11.559 -3.8163 -0.1290  0.6414
15899TIP3   OH269187   3.100   4.620  14.400  0.2072 -0.2430 -0.0058
15899TIP3    H169188   3.141   4.537  14.377  3.3371  1.1721  0.2320
15899TIP3    H269189   3.142   4.644  14.483 -1.6704  0.9327  0.6280
15900TIP3   OH269190   4.048   3.871  11.852 -0.1626  0.3397 -0.5197
15900TIP3    H169191   3.988   3.799  11.835 -0.9938  1.2163 -1.3313
15900TIP3    H269192   4.041   3.928  11.775  1.0662  0.8962 -0.2467
15901TIP3   OH269193   6.809   1.769  11.335 -0.0435  0.5376  0.1658
15901TIP3    H169194   6.844   1.839  11.279  2.1924 -0.6608  0.0007
15901TIP3    H269195   6.844   1.788  11.422  1.1935 -0.7792 -0.0352
15902TIP3   OH269196   0.590   4.877   3.753 -0.1681 -0.4630 -0.4438
15902TIP3    H169197   0.580   4.823   3.831  2.1506 -0.3715 -0.0314
15902TIP3    H269198   0.610   4.964   3.785 -1.1037  0.0207 -1.1376
15903TIP3   OH269199   2.032   4.687  12.067  0.4370  0.6721  0.5711
15903TIP3    H169200   1.975   4.661  11.995 -1.2192  1.7863  1.4520
15903TIP3    H269201   2.115   4.643  12.048 -0.9374 -1.6712 -0.2741
15904TIP3   OH269202   5.900   0.054   5.294 -0.4500  0.3850  0.4968
15904TIP3    H169203   5.895   0.127   5.233  0.3887  1.5969  1.8538
15904TIP3    H269204   5.973   0.076   5.352 -0.4210 -1.3549  1.1465
15905TIP3   OH269205   4.074   4.539  11.485  0.4465  0.1485  0.3090
15905TIP3    H169206   3.995   4.524  11.536  1.5711 -2.3672  1.4067
15905TIP3    H269207   4.135   4.580  11.546  1.0153 -0.7602  0.3695
15906TIP3   OH269208   4.123   2.102   4.618 -0.2374  0.2440 -0.0556
15906TIP3    H169209   4.198   2.055   4.655  0.2157  0.0462 -1.1989
15906TIP3    H269210   4.092   2.157   4.690  1.4395  0.8437  0.2496
15907TIP3   OH269211   1.175   1.549  12.885  0.4751  0.2872  0.1311
15907TIP3    H169212   1.136   1.562  12.971 -0.0701 -0.0661 -0.0586
15907TIP3    H269213   1.262   1.589  12.891  0.6185 -0.1437  0.9906
15908TIP3   OH269214   0.081   1.172  16.581  0.1235  0.5902  0.0477
15908TIP3    H169215  -0.008   1.153  16.553  1.4987  0.0945 -4.3795
15908TIP3    H269216   0.136   1.114  16.528  3.3033  3.4610  0.0501
15909TIP3   OH269217   6.060   1.651  11.621 -0.5673  0.3865 -0.3341
15909TIP3    H169218   6.030   1.704  11.696  1.3846 -0.6369  1.2345
15909TIP3    H269219   6.156   1.660  11.623 -0.4821  0.3652 -2.7626
15910TIP3   OH269220   4.546   5.685   0.959  0.0721  0.1636  0.7308
15910TIP3    H169221   4.576   5.714   1.045  0.5328 -0.2034  0.6920
15910TIP3    H269222   4.545   5.765   0.906  0.2362  0.3090  0.9461
15911TIP3   OH269223   2.029   1.201  15.831  0.4231  0.6227 -0.0830
15911TIP3    H169224   1.983   1.169  15.754  0.3208  0.1566  0.1688
15911TIP3    H269225   2.108   1.147  15.836 -0.9419 -1.3102  1.7413
15912TIP3   OH269226   0.699   4.154  15.956  0.3614 -0.1813 -0.5796
15912TIP3    H169227   0.772   4.202  15.995 -0.4273  1.5927 -1.2316
15912TIP3    H269228   0.637   4.222  15.930 -0.3386 -1.5071 -2.4459
15913TIP3   OH269229   6.517   0.998   4.322  0.3184 -0.3666 -0.3101
15913TIP3    H169230   6.541   0.974   4.412 -0.0461 -2.1046 -0.6627
15913TIP3    H269231   6.422   1.003   4.324  0.3608  0.5395 -0.3792
15914TIP3   OH269232   0.360   4.133  14.232 -0.1998  0.2288  0.2084
15914TIP3    H169233   0.385   4.047  14.267  1.3651 -0.2815 -2.0570
15914TIP3    H269234   0.407   4.196  14.287 -1.0857 -0.3489  1.6630
15915TIP3   OH269235   5.729   6.350   2.646  0.2393 -0.3926 -0.1483
15915TIP3    H169236   5.780   6.270   2.656 -0.2195 -0.8518 -1.4275
15915TIP3    H269237   5.794   6.419   2.631  0.7741 -0.1440  3.0227
15916TIP3   OH269238   3.448   1.639  15.168 -0.5424  0.1299 -0.0820
15916TIP3    H169239   3.376   1.701  15.155 -0.7066  0.6246  2.8192
15916TIP3    H269240   3.444   1.582  15.091 -3.3035  0.8733 -0.5647
15917TIP3   OH269241   3.444   3.382  14.777  0.4253 -0.4740 -0.0806
15917TIP3    H169242   3.511   3.384  14.708 -0.8703  1.1560 -1.3268
15917TIP3    H269243   3.474   3.447  14.841 -0.7366  1.3780 -1.3937
15918TIP3   OH269244   0.637   5.599  15.179  0.2951 -0.2278  0.8035
15918TIP3    H169245   0.570   5.641  15.232 -0.8508 -1.7378  0.5815
15918TIP3    H269246   0.615   5.624  15.089  1.5977  1.4312  0.9137
15919TIP3   OH269247   3.351   0.863  15.280 -0.4403 -0.1579  0.0317
15919TIP3    H169248   3.366   0.850  15.187  3.3637  0.6424  0.4243
15919TIP3    H269249   3.341   0.775  15.316  2.3407 -0.7667 -0.5727
15920TIP3   OH269250   2.012   5.008   1.459 -0.1274 -0.5891 -0.6378
15920TIP3    H169251   2.036   5.030   1.549 -0.2163 -0.5478 -0.6243
15920TIP3    H269252   1.917   5.001   1.460 -0.2164  0.4977 -0.9643
15921TIP3   OH269253   3.989   1.518  11.690  0.4341 -0.3117  0.1323
15921TIP3    H169254   4.070   1.569  11.698 -0.8417  2.0803 -1.8739
15921TIP3    H269255   4.018   1.427  11.699  3.3141  0.5009 -0.3807
15922TIP3   OH269256   3.743   4.355  10.535  0.3386  0.1760 -0.4445
15922TIP3    H169257   3.760   4.311  10.452  0.4184 -1.9139  0.6170
15922TIP3    H269258   3.649   4.372  10.536  0.6185  1.8492 -1.7135
15923TIP3   OH269259   3.013   1.239   4.572  0.0713 -0.1986 -0.0754
15923TIP3    H169260   2.984   1.152   4.546 -0.6996 -0.8516  2.8589
15923TIP3    H269261   2.941   1.297   4.545 -1.1271 -0.9876  1.3714
15924TIP3   OH269262   3.073   2.155  16.286  0.7022  0.2648 -0.5539
15924TIP3    H169263   3.043   2.064  16.292 -0.0526  0.4072 -1.9556
15924TIP3    H269264   3.161   2.149  16.250  0.9686  0.0422  0.1324
15925TIP3   OH269265   3.174   2.909  12.003  0.4311 -0.1155  0.1951
15925TIP3    H169266   3.172   2.850  11.927  2.9287 -1.0675  0.8202
15925TIP3    H269267   3.226   2.984  11.973  1.0859 -0.3133  0.8333
15926TIP3   OH269268   0.627   4.814  15.952 -0.0827  0.2517  0.3869
15926TIP3    H169269   0.657   4.864  15.876  0.1867 -0.2391  0.1658
15926TIP3    H269270   0.536   4.793  15.933 -0.4527  1.3669  0.8582
15927TIP3   OH269271   4.138   3.358  10.873  0.6792  0.2677  0.1511
15927TIP3    H169272   4.107   3.271  10.898  0.5830  0.8340  2.1112
15927TIP3    H269273   4.061   3.401  10.838  0.4948 -0.1223  0.0705
15928TIP3   OH269274   5.005   6.747  11.219  0.3087 -0.2547  0.0503
15928TIP3    H169275   5.001   6.713  11.309 -0.6484  0.2282  0.2030
15928TIP3    H269276   5.047   6.677  11.169 -0.3069 -1.0592  0.6406
15929TIP3   OH269277   6.009   5.547  12.936  0.0398 -0.4448  0.3048
15929TIP3    H169278   5.958   5.583  12.864 -0.7851 -0.7199  0.7425
15929TIP3    H269279   6.053   5.622  12.975 -1.4986  0.0660  1.0788
15930TIP3   OH269280   0.343   3.852   4.156 -0.1817 -0.5862  0.6458
15930TIP3    H169281   0.342   3.946   4.137  1.0721 -0.1566  2.6183
15930TIP3    H269282   0.323   3.811   4.072  2.5064  1.3316 -1.0228
15931TIP3   OH269283   5.489   0.709  16.293 -0.2488  0.3602  0.4051
15931TIP3    H169284   5.479   0.804  16.284 -1.4138  0.2222  0.1446
15931TIP3    H269285   5.522   0.679  16.208  1.0812  0.6516  0.8126
15932TIP3   OH269286   1.968   3.657  16.167  0.1175  0.7731  0.0119
15932TIP3    H169287   1.891   3.694  16.123 -0.1872  0.4359  0.2547
15932TIP3    H269288   2.025   3.732  16.183  0.1958  0.9028 -0.8952
15933TIP3   OH269289   5.320   6.284   3.860  0.2177  0.2777 -0.1725
15933TIP3    H169290   5.400   6.320   3.821  0.4039  0.6383  0.5555
15933TIP3    H269291   5.351   6.228   3.931 -0.1228 -0.5120 -0.6266
15934TIP3   OH269292   1.825   5.726   4.366  0.0089 -0.4590 -0.4899
15934TIP3    H169293   1.803   5.798   4.307  1.9212  0.0703 -0.6004
15934TIP3    H269294   1.803   5.647   4.317 -0.4639  0.0215 -1.0583
15935TIP3   OH269295   5.587   3.278   5.100 -0.3717  0.5337 -0.1878
15935TIP3    H169296   5.612   3.289   5.192  2.1758  1.3223 -0.9618
15935TIP3    H269297   5.598   3.184   5.084  1.1668  0.7186 -0.2493
15936TIP3   OH269298   3.427   1.066   3.765  0.2033 -0.0638 -0.0174
15936TIP3    H169299   3.403   0.974   3.780 -1.9682  0.6269  0.9489
15936TIP3    H269300   3.507   1.079   3.814 -0.3978 -1.0140  1.2342
15937TIP3   OH269301   3.347   4.505   5.661 -0.2168  0.6458 -0.3793
15937TIP3    H169302   3.315   4.418   5.634  1.7217 -0.5678  1.0575
15937TIP3    H269303   3.441   4.491   5.677 -0.1016  2.7790  0.8771
15938TIP3   OH269304   0.242   3.474  17.111  0.6058 -0.1782 -0.1872
15938TIP3    H169305   0.224   3.566  17.130 -0.1664 -0.3214 -0.2133
15938TIP3    H269306   0.279   3.475  17.022  0.9609  0.1440 -0.0349
15939TIP3   OH269307   0.892   3.005   3.277 -0.2839 -0.7617 -0.1549
15939TIP3    H169308   0.832   2.943   3.318 -0.2271 -1.2646 -0.8267
15939TIP3    H269309   0.836   3.061   3.223 -0.2697 -0.5663  0.0304
15940TIP3   OH269310   6.008   1.381   4.292  0.0989 -0.2532  0.1642
15940TIP3    H169311   6.096   1.345   4.285  0.3583  0.5229 -0.7077
15940TIP3    H269312   5.981   1.398   4.202 -2.0142 -2.9404  0.2310
15941TIP3   OH269313   2.398   4.838   0.318  0.3898 -0.4386  0.7425
15941TIP3    H169314   2.403   4.828   0.222 -1.1062  3.6608  0.1505
15941TIP3    H269315   2.490   4.837   0.347  0.8294 -2.5974 -0.5747
15942TIP3   OH269316   2.105   3.554   4.499 -0.2173 -0.7057 -0.0209
15942TIP3    H169317   2.105   3.626   4.436  1.2558 -0.1645  0.5829
15942TIP3    H269318   2.069   3.479   4.450 -1.0682  0.2383 -0.8592
15943TIP3   OH269319   4.768   2.955   0.762  0.5254 -0.1441  0.1042
15943TIP3    H169320   4.851   2.912   0.742  1.4291  2.3803 -1.9351
15943TIP3    H269321   4.793   3.032   0.814 -0.5141  0.6312 -0.5212
15944TIP3   OH269322   3.732   1.579  10.767 -0.0884  0.4399 -0.2808
15944TIP3    H169323   3.787   1.634  10.823  0.9420  0.5192 -1.3272
15944TIP3    H269324   3.795   1.529  10.715 -1.0252 -0.7149 -0.3143
15945TIP3   OH269325   4.787   5.763  13.422  0.1634 -0.0628 -0.5900
15945TIP3    H169326   4.789   5.800  13.334  2.5548 -0.5744 -0.7835
15945TIP3    H269327   4.732   5.685  13.414 -1.4484  1.1103 -1.1159
15946TIP3   OH269328   5.475   1.444  12.007  0.3676  0.4711  0.6702
15946TIP3    H169329   5.457   1.380  12.075 -1.4293 -1.0004 -1.1044
15946TIP3    H269330   5.416   1.516  12.026 -0.9154 -0.4045  0.0868
15947TIP3   OH269331   0.281   6.693  14.011  0.0475  0.3155 -0.8966
15947TIP3    H169332   0.242   6.760  13.955  1.8050  0.6628 -1.7370
15947TIP3    H269333   0.212   6.671  14.074 -1.2684  1.3650 -1.9463
15948TIP3   OH269334   2.782   3.827   1.787  0.0012  0.2169 -0.3003
15948TIP3    H169335   2.859   3.771   1.794 -0.8260 -0.9617 -0.4562
15948TIP3    H269336   2.741   3.801   1.704 -1.4150 -0.2816  0.5355
15949TIP3   OH269337   0.577   1.138   4.656 -0.3861 -0.0657  0.1758
15949TIP3    H169338   0.645   1.186   4.703 -0.6629 -1.9960  2.6031
15949TIP3    H269339   0.605   1.047   4.657 -2.0622 -0.6218 -0.4658
15950TIP3   OH269340   4.860   1.640  14.697  0.1921 -0.3465  0.1764
15950TIP3    H169341   4.821   1.654  14.611 -2.4761  0.0754  1.4255
15950TIP3    H269342   4.907   1.721  14.715 -0.7900  0.2841 -0.0802
15951TIP3   OH269343   3.308   0.591   1.294 -0.5427  0.2480 -0.1280
15951TIP3    H169344   3.337   0.544   1.372  1.6687  1.2708 -0.2654
15951TIP3    H269345   3.247   0.657   1.326 -0.6323 -0.1710  0.5611
15952TIP3   OH269346   4.201   0.635  12.660  0.0990 -0.0330 -0.6316
15952TIP3    H169347   4.289   0.646  12.625  0.7917 -0.7046  0.8532
15952TIP3    H269348   4.150   0.600  12.586  0.6657  1.8727 -1.9622
15953TIP3   OH269349   3.741   1.604  16.469  0.1176 -0.1292  0.3733
15953TIP3    H169350   3.805   1.644  16.528 -0.1861  0.0134  0.6046
15953TIP3    H269351   3.713   1.525  16.513 -1.9907  1.2616  1.6122
15954TIP3   OH269352   5.038   0.301   2.299  0.9322 -0.2577  0.2030
15954TIP3    H169353   4.947   0.305   2.329  0.5093 -0.2841 -1.0349
15954TIP3    H269354   5.032   0.266   2.210  2.2158 -0.9316  0.3711
15955TIP3   OH269355   5.481   5.335  15.909  0.3285  0.3415  0.5356
15955TIP3    H169356   5.560   5.378  15.877 -0.3397  1.6101  0.5652
15955TIP3    H269357   5.410   5.379  15.863 -0.4325  0.0168  1.3945
15956TIP3   OH269358   2.789   1.519   0.984 -0.3263 -0.6654 -0.3948
15956TIP3    H169359   2.830   1.497   1.068  1.6905 -1.0965 -1.4463
15956TIP3    H269360   2.705   1.559   1.007 -0.6591 -2.5186  1.7729
15957TIP3   OH269361   1.156   0.580   2.683  0.0407  0.4517  0.1666
15957TIP3    H169362   1.076   0.550   2.640  0.9026 -0.3300 -0.9239
15957TIP3    H269363   1.135   0.668   2.715 -0.6398  1.0065 -1.7792
15958TIP3   OH269364   2.985   5.403   5.296  0.0514  0.5879  0.5054
15958TIP3    H169365   2.978   5.455   5.215 -1.0770  0.3945  0.4786
15958TIP3    H269366   3.050   5.335   5.275 -0.4931  0.3271 -0.3558
15959TIP3   OH269367   2.148   2.067   5.109 -0.3136  0.0120  0.0066
15959TIP3    H169368   2.132   2.155   5.073 -1.3500  1.1532  3.0805
15959TIP3    H269369   2.067   2.019   5.089 -0.4162  0.2739 -0.2259
15960TIP3   OH269370   1.613   2.625   2.316  0.2813  0.1945  0.0898
15960TIP3    H169371   1.528   2.590   2.340  0.0266 -0.5145 -1.7519
15960TIP3    H269372   1.670   2.548   2.308  0.2819  0.3608 -1.7786
15961TIP3   OH269373   1.030   2.483  16.580  0.5562 -0.0414  0.5983
15961TIP3    H169374   1.049   2.577  16.583  0.1073  0.1276 -1.1492
15961TIP3    H269375   0.942   2.477  16.543  0.7090 -1.1633  0.3801
15962TIP3   OH269376   3.341   5.745   3.958  0.5364 -0.1069  0.1335
15962TIP3    H169377   3.302   5.831   3.945  0.8708 -0.0337 -0.4118
15962TIP3    H269378   3.371   5.719   3.871  2.0253 -0.0002  0.5959
15963TIP3   OH269379   5.904   6.355   3.814 -0.1646 -0.0499  0.0035
15963TIP3    H169380   5.951   6.275   3.789 -0.7565 -0.1532 -0.8061
15963TIP3    H269381   5.836   6.365   3.747  0.1986  1.3909 -0.1746
15964TIP3   OH269382   0.157   0.090  14.369  0.3083  0.3209 -0.3989
15964TIP3    H169383   0.121   0.024  14.309  0.9380  0.5604 -1.0607
15964TIP3    H269384   0.251   0.091  14.348  0.4008  0.9765  0.0507
15965TIP3   OH269385   4.819   5.281  14.282 -0.0301 -0.2420  0.3385
15965TIP3    H169386   4.895   5.228  14.255 -0.8812 -2.5806  2.4096
15965TIP3    H269387   4.762   5.281  14.205  0.6751 -1.0556 -0.1948
15966TIP3   OH269388   4.221   5.338   3.474  0.2089  0.1856 -0.3878
15966TIP3    H169389   4.150   5.303   3.419 -1.4893  0.4438  1.5838
15966TIP3    H269390   4.240   5.268   3.536  2.8866 -0.5223 -1.9455
15967TIP3   OH269391   5.276   1.621  12.052 -0.1446 -0.5112  0.1156
15967TIP3    H169392   5.229   1.692  12.009 -0.2904 -0.0596  1.0001
15967TIP3    H269393   5.213   1.548  12.052 -0.2974 -0.3801 -0.0579
15968TIP3   OH269394   3.350   2.080   0.361  0.7348 -0.4544 -0.0101
15968TIP3    H169395   3.373   2.008   0.420 -0.5696 -1.3573 -0.5872
15968TIP3    H269396   3.399   2.062   0.281  0.1075 -0.9236 -0.2930
15969TIP3   OH269397   2.457   2.468   0.158 -0.1739  0.2812 -0.0116
15969TIP3    H169398   2.451   2.454   0.064  0.2832  0.4711 -0.0723
15969TIP3    H269399   2.454   2.563   0.168  2.5408  0.4330 -0.0595
15970TIP3   OH269400   0.882   1.219  15.488  0.1335  0.9153  0.1944
15970TIP3    H169401   0.810   1.275  15.460  0.1684  1.0440  0.3608
15970TIP3    H269402   0.911   1.175  15.408 -0.3124  0.6474  0.1771
15971TIP3   OH269403   4.648   2.054  15.585 -0.1662  0.3736 -0.1268
15971TIP3    H169404   4.729   2.046  15.534 -0.0306 -0.6163  0.2253
15971TIP3    H269405   4.671   2.020  15.671 -1.4486 -1.6596 -0.5663
15972TIP3   OH269406   6.225   5.478   2.537  0.1122  0.4268  0.5595
15972TIP3    H169407   6.153   5.457   2.478  0.0681 -0.1220  0.8022
15972TIP3    H269408   6.291   5.411   2.520  0.1022  0.2671  1.1264
15973TIP3   OH269409   5.203   3.135  17.114 -0.4867  0.6485  0.2861
15973TIP3    H169410   5.112   3.117  17.138 -0.7258  2.7047  0.9824
15973TIP3    H269411   5.254   3.099  17.186 -0.7018 -0.9817 -0.3586
15974TIP3   OH269412   4.672   1.557   5.958  0.5229  0.3986  0.4796
15974TIP3    H169413   4.626   1.509   6.027 -0.9716  0.8730 -0.1628
15974TIP3    H269414   4.604   1.610   5.917  1.4294  0.2684 -1.2330
15975TIP3   OH269415   3.950   0.892  12.044 -0.2564  0.4705 -0.6895
15975TIP3    H169416   3.989   0.916  12.128 -1.9109  1.2567 -0.1334
15975TIP3    H269417   3.932   0.976  12.001 -2.2659  0.1643 -0.4984
15976TIP3   OH269418   2.180   5.866   6.397 -0.1549 -0.7838  0.4120
15976TIP3    H169419   2.224   5.884   6.480 -0.2637  0.5771  0.1823
15976TIP3    H269420   2.202   5.775   6.378  1.6526 -0.4648  0.8715
15977TIP3   OH269421   5.841   4.003   5.479 -0.1008 -0.0878  0.2647
15977TIP3    H169422   5.827   4.097   5.466 -2.8079 -0.5687 -0.6679
15977TIP3    H269423   5.834   3.991   5.574 -1.6564  0.4146  0.2344
15978TIP3   OH269424   2.363   5.049   2.965 -0.0026  0.3895 -0.6540
15978TIP3    H169425   2.422   5.002   3.024  0.7627  0.5712 -1.2690
15978TIP3    H269426   2.397   5.030   2.877 -1.1989  0.0243 -1.0520
15979TIP3   OH269427   6.662   6.343   3.125  0.8672  0.4855  0.3386
15979TIP3    H169428   6.591   6.400   3.095  1.2068  0.3811 -0.7149
15979TIP3    H269429   6.724   6.343   3.052  1.8135  0.3480  1.1298
15980TIP3   OH269430   0.710   0.408  15.162  0.2469  0.7063  0.3746
15980TIP3    H169431   0.779   0.374  15.105 -1.3524 -0.5512 -0.8570
15980TIP3    H269432   0.660   0.331  15.189 -0.7034  1.5920  1.2084
15981TIP3   OH269433   6.100   3.288  15.944  0.5566 -0.3528 -0.2675
15981TIP3    H169434   6.069   3.204  15.909  1.3500 -0.3061 -1.1029
15981TIP3    H269435   6.195   3.285  15.933  0.7225  0.0796  1.0014
15982TIP3   OH269436   5.106   1.171   0.578 -0.0488 -0.0073  0.0519
15982TIP3    H169437   5.191   1.132   0.560  0.2378  0.8664 -0.5171
15982TIP3    H269438   5.122   1.265   0.576 -1.1779  0.1769 -0.8413
15983TIP3   OH269439   1.055   1.248  17.121  0.2314 -0.1773 -0.7411
15983TIP3    H169440   1.079   1.162  17.087 -1.2138 -0.6884 -0.5032
15983TIP3    H269441   1.101   1.254  17.205 -2.5976 -2.3201  1.0602
15984TIP3   OH269442   0.670   6.213  16.318 -0.5859 -0.0499 -0.1422
15984TIP3    H169443   0.603   6.162  16.365  0.3802  0.0172  1.3444
15984TIP3    H269444   0.650   6.304  16.340  0.6135 -0.0866  1.1823
15985TIP3   OH269445   4.780   4.115   2.135  0.1297 -0.0670 -0.3950
15985TIP3    H169446   4.854   4.071   2.093  1.0061  0.6683  0.3638
15985TIP3    H269447   4.732   4.045   2.179  2.2242 -0.1650  1.8739
15986TIP3   OH269448   3.445   5.017  12.067  0.1183 -0.2211  0.0059
15986TIP3    H169449   3.501   5.087  12.101 -0.5858 -0.0586  0.8588
15986TIP3    H269450   3.407   5.053  11.987  1.5733 -0.4991 -0.8127
15987TIP3   OH269451   0.963   1.807   3.717 -0.0174 -0.1507 -0.1124
15987TIP3    H169452   1.053   1.821   3.688  0.4365 -1.7186  0.5065
15987TIP3    H269453   0.933   1.732   3.665 -1.0779  0.5816 -0.5616
15988TIP3   OH269454   6.708   5.345   5.247  0.1848 -0.1039  0.2401
15988TIP3    H169455   6.731   5.302   5.330 -1.0956 -0.5451  0.3695
15988TIP3    H269456   6.641   5.289   5.208  0.7225  0.1428 -1.0685
15989TIP3   OH269457   4.550   1.267   1.256 -0.5323  0.7210 -0.4567
15989TIP3    H169458   4.575   1.319   1.179 -0.6924 -1.7205 -2.2107
15989TIP3    H269459   4.521   1.183   1.220  0.6896 -0.9717  2.3527
15990TIP3   OH269460   2.114   4.035  13.465 -0.3523  0.1793  0.4770
15990TIP3    H169461   2.175   4.099  13.428 -0.1889 -0.8656 -1.1186
15990TIP3    H269462   2.157   4.004  13.545  0.8669  0.0165 -0.2236
15991TIP3   OH269463   6.603   5.572   5.878 -0.4284  0.1773 -0.0409
15991TIP3    H169464   6.574   5.601   5.792 -0.0344  1.2334  0.1764
15991TIP3    H269465   6.529   5.592   5.936  0.7855  3.0721  0.5511
15992TIP3   OH269466   2.214   6.577  11.295 -0.5130  0.6382  0.2881
15992TIP3    H169467   2.284   6.636  11.322 -1.1926  1.4754  0.2336
15992TIP3    H269468   2.137   6.633  11.287 -0.7851  0.0432 -1.3948
15993TIP3   OH269469   2.460   3.852  12.684 -0.4634  0.4592 -0.0143
15993TIP3    H169470   2.495   3.847  12.772 -1.7603  0.6206  0.5271
15993TIP3    H269471   2.495   3.934  12.648  0.4129  0.1735  0.1853
15994TIP3   OH269472   1.094   1.733   4.671  0.0387  0.1520 -0.6842
15994TIP3    H169473   1.055   1.728   4.758 -0.1388 -2.5487 -0.8506
15994TIP3    H269474   1.019   1.744   4.612 -0.0133  0.1906 -0.6109
15995TIP3   OH269475   3.902   6.589   0.026  0.0047  0.5325 -1.1324
15995TIP3    H169476   3.923   6.680   0.003  1.0031  0.1897 -1.6097
15995TIP3    H269477   3.961   6.568   0.098 -1.3051  0.7501  0.0291
15996TIP3   OH269478   5.336   2.171   1.389 -0.0807  0.4150  0.1326
15996TIP3    H169479   5.398   2.195   1.459 -0.5352  0.5965  0.4747
15996TIP3    H269480   5.346   2.077   1.380  1.4595  0.6576 -0.9674
15997TIP3   OH269481   1.188   0.891  15.808  0.2048 -0.1330 -0.2686
15997TIP3    H169482   1.134   0.822  15.845  0.5033  0.2704  0.9601
15997TIP3    H269483   1.141   0.972  15.829  0.0643  0.0720 -1.3359
15998TIP3   OH269484   3.449   4.624  11.846  0.0658  0.4735 -0.0922
15998TIP3    H169485   3.469   4.634  11.753 -0.8495 -1.7529 -0.5497
15998TIP3    H269486   3.464   4.531  11.864  0.1324  0.8552  1.9748
15999TIP3   OH269487   3.742   3.577  14.786 -0.1307 -0.2160 -0.6898
15999TIP3    H169488   3.759   3.495  14.740 -2.8869 -2.2989  1.8048
15999TIP3    H269489   3.824   3.598  14.830  0.9469 -0.9939 -2.2915
16000TIP3   OH269490   0.329   5.061   4.898 -0.4205 -0.4545  0.3633
16000TIP3    H169491   0.277   5.017   4.830 -0.9404  0.2243  0.3233
16000TIP3    H269492   0.268   5.123   4.937  0.1432 -0.2177  0.8490
16001TIP3   OH269493   2.165   6.288  11.184  0.0070 -0.1603  0.0344
16001TIP3    H169494   2.151   6.382  11.194 -0.5480 -0.1258 -1.0757
16001TIP3    H269495   2.158   6.253  11.274  1.2109  0.9706  0.5853
16002TIP3   OH269496   5.523   3.061  11.100  0.0101 -0.1880 -0.2531
16002TIP3    H169497   5.454   3.018  11.150 -0.0001  0.1789  0.0522
16002TIP3    H269498   5.502   3.043  11.008 -0.2835 -0.3893 -0.1435
16003TIP3   OH269499   3.075   4.715  14.128 -0.0823 -0.0959 -0.4965
16003TIP3    H169500   3.077   4.644  14.064  0.2810  0.0008 -0.5962
16003TIP3    H269501   3.073   4.672  14.213  3.2140 -0.2542 -0.4512
16004TIP3   OH269502   0.489   1.316  16.714  0.9653  0.4967  0.0178
16004TIP3    H169503   0.435   1.348  16.642  1.6359 -2.1677 -1.7348
16004TIP3    H269504   0.428   1.304  16.787 -0.3559 -0.0678 -1.1628
16005TIP3   OH269505   1.291   3.279   5.007  0.5648  0.1030  0.1881
16005TIP3    H169506   1.228   3.321   4.948 -0.4113 -0.8432  0.5299
16005TIP3    H269507   1.254   3.292   5.094  2.0274  1.5408  0.6170
16006TIP3   OH269508   1.685   0.618  12.388 -0.7422 -0.0914 -0.1624
16006TIP3    H169509   1.611   0.602  12.329 -1.5944  0.9120  0.6144
16006TIP3    H269510   1.645   0.621  12.475  0.5273 -1.7711  0.4991
16007TIP3   OH269511   2.119   4.306  12.850 -0.1114  0.0560  0.3734
16007TIP3    H169512   2.087   4.230  12.899 -1.1678  1.4679  1.9349
16007TIP3    H269513   2.075   4.381  12.890 -1.8578  1.2146 -3.4276
16008TIP3   OH269514   2.492   2.572   0.951  0.7670 -0.7761 -0.0876
16008TIP3    H169515   2.411   2.597   0.995  1.5534 -2.7164  2.5724
16008TIP3    H269516   2.465   2.556   0.860 -1.5358  0.0668  0.4069
16009TIP3   OH269517   5.275   3.645   3.991  0.3360  0.2728  0.4585
16009TIP3    H169518   5.248   3.704   4.062 -2.5468 -2.6624  1.9518
16009TIP3    H269519   5.234   3.683   3.913 -0.9556  0.6140  1.2825
16010TIP3   OH269520   5.537   2.191   0.260  0.9576  0.0352  0.1601
16010TIP3    H169521   5.542   2.095   0.262  0.0153 -0.0448 -0.8543
16010TIP3    H269522   5.551   2.214   0.168 -0.4491  0.7692  0.1188
16011TIP3   OH269523   6.670   5.945  17.011 -0.2019 -0.1345 -0.8935
16011TIP3    H169524   6.731   5.875  16.990 -1.8498 -1.8231 -0.1699
16011TIP3    H269525   6.584   5.908  16.995 -1.1668  1.2541  0.8869
16012TIP3   OH269526   6.794   1.819   3.866  0.3848  0.1420  0.7900
16012TIP3    H169527   6.873   1.771   3.889  0.3388  0.5392  1.8238
16012TIP3    H269528   6.733   1.801   3.938 -0.8063 -0.9146 -0.4528
16013TIP3   OH269529   2.801   2.152   4.954 -0.4419 -0.2494  0.3901
16013TIP3    H169530   2.827   2.239   4.983 -2.4276  0.6934 -0.5399
16013TIP3    H269531   2.775   2.107   5.035  0.4354  0.0553  0.8544
16014TIP3   OH269532   2.191   2.325  13.228  0.4610 -0.2890 -0.2896
16014TIP3    H169533   2.110   2.357  13.190  1.3692  1.5988 -0.7178
16014TIP3    H269534   2.168   2.301  13.317 -0.6923 -0.2831 -0.5823
16015TIP3   OH269535   3.455   5.416  14.851  1.4747  0.1896  0.3290
16015TIP3    H169536   3.453   5.352  14.780  2.4198  0.5237  0.0050
16015TIP3    H269537   3.446   5.501  14.807 -0.1980  0.2773  0.7846
16016TIP3   OH269538   2.420   1.491  15.013 -0.0921 -0.4910 -0.5687
16016TIP3    H169539   2.371   1.448  14.943 -0.9998  0.3967 -0.4731
16016TIP3    H269540   2.354   1.536  15.066  0.8386  1.0223 -0.6624
16017TIP3   OH269541   3.172   3.202   5.985 -0.2117 -0.9347 -0.0509
16017TIP3    H169542   3.080   3.227   5.977  0.1621  0.5077  0.0797
16017TIP3    H269543   3.185   3.135   5.918 -0.7280  0.6798 -1.7807
16018TIP3   OH269544   4.226   6.294   4.666  0.1597  0.2962  0.3319
16018TIP3    H169545   4.197   6.242   4.590 -0.0620  0.2430  0.4532
16018TIP3    H269546   4.314   6.262   4.684 -0.2745 -0.6000  0.9025
16019TIP3   OH269547   3.283   0.234   3.292 -0.2061 -0.7744 -0.5944
16019TIP3    H169548   3.230   0.194   3.362  0.0498 -0.9879 -0.5218
16019TIP3    H269549   3.363   0.263   3.336 -0.3013 -0.3719 -0.6885
16020TIP3   OH269550   6.690   4.656   2.428  0.0473 -0.2878 -0.7333
16020TIP3    H169551   6.782   4.638   2.451  0.0206  0.7518  0.2347
16020TIP3    H269552   6.665   4.584   2.370  2.1765  0.6112 -2.8778
16021TIP3   OH269553   2.538   1.506   3.352 -0.1979 -0.1230  0.1146
16021TIP3    H169554   2.545   1.513   3.447 -0.2179 -1.8060  0.2490
16021TIP3    H269555   2.551   1.595   3.321  1.2855  0.2092  1.6111
16022TIP3   OH269556   2.746   2.087   0.837  0.1777 -0.0353 -0.0121
16022TIP3    H169557   2.709   2.023   0.899 -1.0438 -1.0148 -1.6898
16022TIP3    H269558   2.840   2.070   0.838  0.1941  0.0597  1.6610
16023TIP3   OH269559   0.733   2.882   1.765 -0.4369 -0.3359  0.9524
16023TIP3    H169560   0.802   2.828   1.803  2.3438  1.4196 -1.4080
16023TIP3    H269561   0.679   2.820   1.715  2.4732 -1.0963 -1.4053
16024TIP3   OH269562   2.999   1.287  15.764  0.0207 -0.2998  0.2508
16024TIP3    H169563   2.908   1.274  15.791 -0.7971  2.0734 -1.1811
16024TIP3    H269564   3.015   1.380  15.778  1.4974 -0.2333 -1.6613
16025TIP3   OH269565   1.282   3.586  14.130  1.0089 -0.0761  0.0532
16025TIP3    H169566   1.278   3.621  14.220 -0.2169 -0.0837  0.0083
16025TIP3    H269567   1.332   3.652  14.082 -0.4945  1.2016  0.1870
16026TIP3   OH269568   2.903   1.018   1.067  0.1198 -0.1704 -0.2959
16026TIP3    H169569   2.912   1.074   0.990  0.0317 -1.2457 -1.1061
16026TIP3    H269570   2.989   1.019   1.109  0.2591  0.1548 -0.5912
16027TIP3   OH269571   1.324   5.067   5.899 -0.2292  0.1868  0.2245
16027TIP3    H169572   1.300   5.039   5.988 -1.5878  0.7402  0.0428
16027TIP3    H269573   1.247   5.115   5.867  0.0943 -0.3453 -1.4006
16028TIP3   OH269574   3.832   6.485   4.459 -0.6326 -0.1519  0.3971
16028TIP3    H169575   3.847   6.409   4.517  0.6188 -0.5927 -0.4909
16028TIP3    H269576   3.803   6.446   4.376 -2.1641  0.4708  0.6250
16029TIP3   OH269577   3.417   1.505   2.613 -0.4074 -0.3118  0.0872
16029TIP3    H169578   3.443   1.501   2.705 -2.7150 -1.0086  0.7456
16029TIP3    H269579   3.328   1.469   2.612 -0.0978 -1.0814 -2.5458
16030TIP3   OH269580   0.482   2.645  13.821  0.4768 -0.0755  0.6979
16030TIP3    H169581   0.390   2.620  13.820  0.8223 -1.3330  0.5112
16030TIP3    H269582   0.512   2.619  13.908  1.2535 -1.8629 -0.0808
16031TIP3   OH269583   3.924   2.405   2.337 -0.1288  0.5033  0.3191
16031TIP3    H169584   3.976   2.345   2.284 -0.3400 -0.0949  0.7896
16031TIP3    H269585   3.852   2.431   2.280 -0.4049 -0.2083  0.3447
16032TIP3   OH269586   5.153   5.324   3.178 -0.2647  0.3764  0.6001
16032TIP3    H169587   5.072   5.374   3.166  0.6813  1.8475  0.2273
16032TIP3    H269588   5.137   5.242   3.132 -0.7339  1.5668 -1.4215
16033TIP3   OH269589   3.412   4.522   1.405  0.3249  0.4535 -0.4124
16033TIP3    H169590   3.494   4.532   1.453  0.5114  0.6951 -0.7782
16033TIP3    H269591   3.429   4.452   1.343  0.4519  0.9180 -0.9051
16034TIP3   OH269592   1.168   0.945  13.157  0.0168 -0.2904 -0.3616
16034TIP3    H169593   1.147   0.882  13.227  2.3528  0.5908  1.1907
16034TIP3    H269594   1.255   0.919  13.127 -0.4591  0.1072 -2.1225
16035TIP3   OH269595   5.093   1.366   2.695  0.2917 -0.2131  0.8075
16035TIP3    H169596   5.121   1.391   2.783  0.6721  0.8107  0.3975
16035TIP3    H269597   5.131   1.432   2.637 -1.7057  0.3609  0.0918
16036TIP3   OH269598   2.501   2.259  12.531  0.0447 -0.2272  0.2437
16036TIP3    H169599   2.429   2.322  12.543  0.2303 -0.3861  2.3682
16036TIP3    H269600   2.576   2.300  12.575  0.9916 -0.5404 -1.0481
16037TIP3   OH269601   3.446   4.919  13.523  0.7471  0.2389 -0.0475
16037TIP3    H169602   3.365   4.872  13.544  0.8797  0.6663  1.4452
16037TIP3    H269603   3.485   4.869  13.451 -1.2545  0.4971 -1.3620
16038TIP3   OH269604   0.110   6.186  15.363 -0.7781 -0.2445 -0.0683
16038TIP3    H169605   0.193   6.231  15.351 -0.8752 -0.0662 -0.0596
16038TIP3    H269606   0.056   6.214  15.289 -0.1544 -1.8874 -1.1913
16039TIP3   OH269607   4.865   3.137  14.832  0.2061 -0.6079  0.4508
16039TIP3    H169608   4.836   3.068  14.892  0.1791 -0.0006  1.1396
16039TIP3    H269609   4.823   3.217  14.864  1.1569 -0.0553  0.3537
16040TIP3   OH269610   5.320   4.605   2.997  0.5005 -0.2537  0.1322
16040TIP3    H169611   5.229   4.626   3.017  0.0633  0.0576 -2.0704
16040TIP3    H269612   5.362   4.689   2.980  0.2699 -0.6274 -2.5052
16041TIP3   OH269613   5.820   1.933  16.339  0.9868 -0.2359  0.2773
16041TIP3    H169614   5.841   1.910  16.249  2.1195 -0.3121  0.5593
16041TIP3    H269615   5.740   1.883  16.358  0.9570 -0.5162 -0.5507
16042TIP3   OH269616   1.668   5.340  15.221  0.0968 -0.1060  0.8997
16042TIP3    H169617   1.723   5.378  15.153 -0.5256  0.0441  0.4766
16042TIP3    H269618   1.590   5.396  15.223 -0.6131 -1.0536  0.6083
16043TIP3   OH269619   2.339   0.228  14.111 -0.0935  0.4582  0.0881
16043TIP3    H169620   2.363   0.157  14.170  1.7264  0.5864 -0.4666
16043TIP3    H269621   2.422   0.273  14.092 -0.8070  1.0908 -1.6803
16044TIP3   OH269622   3.849   4.192   3.659 -0.4575  0.0850  0.0772
16044TIP3    H169623   3.943   4.182   3.640 -0.2284  2.6731 -0.4498
16044TIP3    H269624   3.842   4.176   3.753  0.5168 -0.2341  0.1027
16045TIP3   OH269625   5.316   6.592   2.128  0.2211 -0.5375 -0.0058
16045TIP3    H169626   5.276   6.624   2.209  0.5626 -2.1064  0.8121
16045TIP3    H269627   5.266   6.632   2.058 -1.0217 -0.3221  0.9971
16046TIP3   OH269628   0.092   6.601  17.172 -0.1653  0.1269  0.1960
16046TIP3    H169629   0.037   6.584  17.095 -1.0425  1.2059  0.5785
16046TIP3    H269630   0.130   6.687  17.156  0.4247 -0.0646  0.5366
16047TIP3   OH269631   3.948   4.554   1.547 -0.3777 -0.2645 -0.2712
16047TIP3    H169632   3.998   4.607   1.610  1.0004 -0.3778 -1.2610
16047TIP3    H269633   3.873   4.523   1.597  0.6979 -0.3466  1.3377
16048TIP3   OH269634   1.935   2.418  12.082  0.0038 -0.4742  0.1332
16048TIP3    H169635   1.923   2.468  12.001 -2.1446 -1.9832 -0.5126
16048TIP3    H269636   1.951   2.485  12.148 -0.6148  0.9368 -1.1139
16049TIP3   OH269637   3.985   3.593  14.907 -0.2308  0.1032  0.3396
16049TIP3    H169638   4.046   3.618  14.976 -0.4664  1.1537  0.1633
16049TIP3    H269639   3.954   3.506  14.934  0.4925  0.0432  0.9967
16050TIP3   OH269640   4.023   4.792   3.850  0.0899 -0.1091 -0.5418
16050TIP3    H169641   4.110   4.757   3.831  0.4330  0.4670 -0.0498
16050TIP3    H269642   4.037   4.852   3.923 -0.8666 -0.7162  0.1560
16051TIP3   OH269643   0.048   0.520  12.418  0.2959 -0.1817  0.1427
16051TIP3    H169644   0.043   0.562  12.332  0.9498  1.3032  0.8091
16051TIP3    H269645   0.140   0.531  12.444  0.1837 -0.9575  0.8543
16052TIP3   OH269646   5.270   3.349   1.668 -0.5362  0.7042  0.3834
16052TIP3    H169647   5.253   3.441   1.647 -4.3992  0.1318  0.6455
16052TIP3    H269648   5.287   3.308   1.584  0.4297  1.4770  0.1833
16053TIP3   OH269649   6.680   6.317  13.740  0.1097 -0.2856  0.2145
16053TIP3    H169650   6.660   6.393  13.685  1.0839 -0.6364 -0.6446
16053TIP3    H269651   6.612   6.318  13.808 -0.0635  1.1680  0.0364
16054TIP3   OH269652   5.482   5.530   2.280 -0.0724 -0.0475 -0.1163
16054TIP3    H169653   5.403   5.561   2.324  1.6177  2.5232  1.2502
16054TIP3    H269654   5.466   5.548   2.187 -0.5721  1.7144  0.2878
16055TIP3   OH269655   6.704   0.565   4.729  0.0777  0.0666  0.0359
16055TIP3    H169656   6.711   0.637   4.666  0.3783  2.4619  2.7363
16055TIP3    H269657   6.793   0.552   4.761 -0.5527  0.9366  2.1964
16056TIP3   OH269658   0.866   5.170   3.061 -0.0292 -0.0103  0.3071
16056TIP3    H169659   0.867   5.086   3.107  0.7515  0.2536  0.7820
16056TIP3    H269660   0.959   5.192   3.050 -0.2040 -0.0219 -1.3129
16057TIP3   OH269661   3.743   5.797   5.039 -0.1137  0.0606 -0.0141
16057TIP3    H169662   3.796   5.734   5.087 -0.1464 -0.3441 -0.5072
16057TIP3    H269663   3.799   5.875   5.032  0.0041  0.0143  0.4108
16058TIP3   OH269664   2.732   6.470  13.315  0.2089 -0.0475  0.3578
16058TIP3    H169665   2.753   6.378  13.335  2.1315 -0.1407 -1.9217
16058TIP3    H269666   2.790   6.521  13.371  1.1207 -0.2675 -0.3695
16059TIP3   OH269667   4.197   3.280   5.607 -0.0476  0.3765  0.0658
16059TIP3    H169668   4.213   3.374   5.606  0.9937  0.2046 -0.2799
16059TIP3    H269669   4.248   3.247   5.681  0.4364 -0.0457 -0.4435
16060TIP3   OH269670   5.868   1.154  15.668  0.3357 -0.3097 -0.1995
16060TIP3    H169671   5.919   1.235  15.674 -1.6990  1.2196 -2.8886
16060TIP3    H269672   5.802   1.163  15.737 -0.9501  1.1467 -1.5741
16061TIP3   OH269673   0.937   4.576   2.648  0.0837  0.3513 -0.2062
16061TIP3    H169674   0.932   4.492   2.694 -1.4006  0.1515 -0.6968
16061TIP3    H269675   0.927   4.641   2.717 -0.5840  0.0815 -0.0439
16062TIP3   OH269676   1.288   0.498   1.471  0.4566  0.3028  0.1032
16062TIP3    H169677   1.352   0.559   1.507  0.1586  0.1594  0.8951
16062TIP3    H269678   1.248   0.458   1.548 -0.6767  0.4858 -0.3825
16063TIP3   OH269679   0.226   2.052   6.094  0.9150  0.1972 -0.3300
16063TIP3    H169680   0.272   1.968   6.095  0.0017 -0.2974  0.1282
16063TIP3    H269681   0.253   2.095   6.175 -1.1222 -1.0185  1.0241
16064TIP3   OH269682   3.397   5.446  13.985  0.7458 -0.4102 -0.3607
16064TIP3    H169683   3.462   5.384  13.954  0.6336 -0.3317 -0.7610
16064TIP3    H269684   3.447   5.516  14.026  0.8807 -0.6829 -0.0654
16065TIP3   OH269685   5.464   2.551  13.926  0.0952 -0.4726  0.3738
16065TIP3    H169686   5.505   2.510  13.849 -1.4489 -0.2696 -0.5802
16065TIP3    H269687   5.534   2.603  13.966  0.7785 -0.1352 -1.2255
16066TIP3   OH269688   5.935   3.004   3.862 -0.4151  0.1219 -0.2411
16066TIP3    H169689   6.030   3.011   3.855 -0.3426  0.7469  1.2387
16066TIP3    H269690   5.912   3.057   3.938 -1.5195 -3.1626  1.8262
16067TIP3   OH269691   1.768   2.680   5.599  0.0072  0.3326 -0.5519
16067TIP3    H169692   1.753   2.588   5.581 -0.6822  0.5877 -1.3390
16067TIP3    H269693   1.699   2.726   5.551 -0.7235  1.1693  1.2275
16068TIP3   OH269694   1.491   6.058   4.359  0.2372  0.0971  0.2192
16068TIP3    H169695   1.511   5.968   4.385  0.5069  0.2070  0.3897
16068TIP3    H269696   1.535   6.068   4.274 -0.3664 -0.1537 -0.1244
16069TIP3   OH269697   0.442   4.480   6.034  0.2300  0.8349 -0.0328
16069TIP3    H169698   0.533   4.462   6.058  0.1163  0.9071  0.4552
16069TIP3    H269699   0.447   4.559   5.980  0.6982 -0.4731 -1.9639
16070TIP3   OH269700   1.502   1.805   4.856 -0.4198  0.4788  0.3206
16070TIP3    H169701   1.479   1.733   4.915  1.1403 -0.2389  0.0976
16070TIP3    H269702   1.476   1.774   4.769 -0.7886  0.6582  0.3674
16071TIP3   OH269703   5.470   6.139  16.511  0.0453 -0.4355 -0.0347
16071TIP3    H169704   5.508   6.218  16.549  2.0309 -2.0432  1.4460
16071TIP3    H269705   5.376   6.148  16.525  0.4674  0.4326  2.4864
16072TIP3   OH269706   5.556   2.066  11.258 -0.7459  0.2934 -0.1474
16072TIP3    H169707   5.579   2.120  11.182 -0.5343  0.8834  0.3281
16072TIP3    H269708   5.589   2.116  11.333 -2.2272  0.3990  0.4352
16073TIP3   OH269709   3.960   1.289  11.423 -0.2156  0.3328  0.2527
16073TIP3    H169710   4.002   1.245  11.350 -1.2934  2.5111 -1.7435
16073TIP3    H269711   4.029   1.342  11.463 -0.0964  0.6900 -0.4335
16074TIP3   OH269712   5.599   1.341  12.847 -0.0134 -0.6852  0.6006
16074TIP3    H169713   5.582   1.247  12.838 -1.2866 -0.4535  0.5117
16074TIP3    H269714   5.589   1.358  12.940  0.2262 -0.6350  0.6188
16075TIP3   OH269715   2.399   1.828   3.847  0.3258 -0.1937 -0.4039
16075TIP3    H169716   2.473   1.888   3.848  1.3796 -1.4344 -1.6216
16075TIP3    H269717   2.382   1.811   3.754 -0.7243 -0.8306 -0.1099
16076TIP3   OH269718   3.929   2.020  13.592 -0.2586 -0.0911 -0.6850
16076TIP3    H169719   3.956   2.048  13.679 -1.2143  0.3689 -0.5383
16076TIP3    H269720   4.002   2.045  13.535  0.7073 -1.0802  0.0897
16077TIP3   OH269721   4.724   5.404   2.001  0.0481  0.2039  0.2968
16077TIP3    H169722   4.783   5.445   2.065  0.4521  0.6244 -0.3326
16077TIP3    H269723   4.667   5.475   1.972 -1.3118 -0.3828  1.4958
16078TIP3   OH269724   5.534   0.267   2.674  0.2843  0.5561 -0.0208
16078TIP3    H169725   5.483   0.211   2.616  0.8234  0.0674 -0.0275
16078TIP3    H269726   5.471   0.332   2.707 -0.5050 -0.5120  0.5834
16079TIP3   OH269727   0.769   4.830   4.545 -0.8094 -0.3803  0.0253
16079TIP3    H169728   0.809   4.917   4.545  2.0380 -1.6025  0.0093
16079TIP3    H269729   0.812   4.785   4.472 -0.8553 -2.3684  1.1866
16080TIP3   OH269730   4.316   0.111  15.303  0.6620  0.0912  0.1914
16080TIP3    H169731   4.339   0.123  15.211  2.1788 -0.1680  0.5292
16080TIP3    H269732   4.352   0.188  15.346 -0.0205  0.1947  0.5835
16081TIP3   OH269733   6.796   4.207   4.403 -0.2090  0.0460 -0.3249
16081TIP3    H169734   6.878   4.159   4.416 -1.2536 -2.1629 -1.5259
16081TIP3    H269735   6.815   4.296   4.431  2.4675 -0.5438 -0.1694
16082TIP3   OH269736   2.627   1.797   3.252  0.2304  0.3156  0.1100
16082TIP3    H169737   2.678   1.818   3.174  1.3819  1.0159  1.0273
16082TIP3    H269738   2.598   1.882   3.285  0.8203  0.1197  1.1431
16083TIP3   OH269739   1.623   0.460  12.895 -0.7759 -0.4653  0.2208
16083TIP3    H169740   1.711   0.465  12.932  0.2838 -1.3819 -2.0617
16083TIP3    H269741   1.581   0.389  12.942  0.3214 -1.1751  0.1602
16084TIP3   OH269742   0.962   1.515   3.861  0.0793 -0.1094  0.4256
16084TIP3    H169743   0.922   1.544   3.778  2.5866  0.6735 -0.5474
16084TIP3    H269744   0.982   1.596   3.908 -0.7049 -0.5364  1.5106
16085TIP3   OH269745   3.216   5.463   6.612  0.1953  0.3370 -0.3011
16085TIP3    H169746   3.165   5.384   6.627  0.1873  1.0406  3.8919
16085TIP3    H269747   3.307   5.432   6.610  0.0948  0.0325 -0.2468
16086TIP3   OH269748   4.318   6.463  11.318 -0.2981 -0.0602  0.1244
16086TIP3    H169749   4.312   6.556  11.338  2.8408  0.3196 -0.4173
16086TIP3    H269750   4.380   6.428  11.381 -2.1598 -2.0460  0.9478
16087TIP3   OH269751   0.441   6.045   4.057  0.3307 -0.0595 -0.1783
16087TIP3    H169752   0.391   6.107   4.004 -1.6868 -0.3015  1.4026
16087TIP3    H269753   0.444   5.965   4.003  0.5190  0.5035 -1.0114
16088TIP3   OH269754   3.342   4.201   4.554 -0.5906 -0.2299 -0.1004
16088TIP3    H169755   3.351   4.288   4.514 -0.8036 -0.0204  0.2978
16088TIP3    H269756   3.251   4.177   4.537 -0.2591 -0.8228 -1.0912
16089TIP3   OH269757   1.255   1.737  16.257  0.0048  0.2942  0.2247
16089TIP3    H169758   1.262   1.660  16.314 -1.5068  0.3793  0.5571
16089TIP3    H269759   1.242   1.810  16.318  1.9125  0.9102 -0.0555
16090TIP3   OH269760   4.264   2.406   4.287  0.2289  0.3621  0.3425
16090TIP3    H169761   4.339   2.466   4.287 -0.1406  0.8679 -1.4307
16090TIP3    H269762   4.303   2.319   4.273  0.5122  0.5866 -0.2648
16091TIP3   OH269763   4.991   3.006  10.723 -0.0132 -0.1856  0.4401
16091TIP3    H169764   4.938   2.934  10.689 -0.3633  0.7642 -1.1071
16091TIP3    H269765   5.080   2.987  10.692 -0.0579 -0.1145  0.2615
16092TIP3   OH269766   4.211   6.004   6.508  0.0834 -0.1857  0.3337
16092TIP3    H169767   4.292   5.995   6.558 -0.2422 -0.0476  0.8952
16092TIP3    H269768   4.152   6.053   6.566 -1.0833 -2.0081  0.7448
16093TIP3   OH269769   5.393   3.203  13.236 -0.1655  0.3694 -0.1977
16093TIP3    H169770   5.368   3.267  13.303  0.1139  0.5113 -0.2274
16093TIP3    H269771   5.324   3.210  13.170 -1.8941 -1.6416  1.3022
16094TIP3   OH269772   3.765   5.740   5.799  0.3016 -0.5003  0.2910
16094TIP3    H169773   3.677   5.739   5.761 -0.9791  0.4047  3.0652
16094TIP3    H269774   3.804   5.822   5.767 -0.2628 -0.3683 -0.0767
16095TIP3   OH269775   0.166   2.436  17.153  0.3484  0.2046 -0.3468
16095TIP3    H169776   0.252   2.410  17.120 -0.3813  0.0484 -2.2028
16095TIP3    H269777   0.172   2.530  17.167  0.9925  0.1015  0.0791
16096TIP3   OH269778   0.320   4.089   1.022  0.6064 -0.0826  0.3764
16096TIP3    H169779   0.343   4.141   0.946 -0.9552  1.0467  0.6620
16096TIP3    H269780   0.354   4.139   1.097  0.0007  0.0114  0.5875
16097TIP3   OH269781   2.981   5.249  14.801  0.1417  0.2343  0.1093
16097TIP3    H169782   2.959   5.197  14.723 -0.5221  1.9496 -0.8677
16097TIP3    H269783   3.074   5.268  14.790 -0.3058  1.8186 -1.0994
16098TIP3   OH269784   5.592   6.741   1.751  0.1076 -0.7442  0.0121
16098TIP3    H169785   5.545   6.748   1.667  1.0585 -1.1067 -0.5616
16098TIP3    H269786   5.661   6.677   1.734  0.2589 -0.8728  1.1038
16099TIP3   OH269787   0.111   0.084  13.946 -0.2411 -0.0052  0.0082
16099TIP3    H169788   0.017   0.101  13.958  0.0065  2.2803 -1.0387
16099TIP3    H269789   0.125   0.093  13.852  1.0490 -0.2452  0.1783
16100TIP3   OH269790   3.686   4.752   0.388 -0.6453 -0.6986  1.1538
16100TIP3    H169791   3.621   4.711   0.444 -1.1670 -2.1906 -0.5108
16100TIP3    H269792   3.756   4.687   0.381  0.8943  0.7206  2.5888
16101TIP3   OH269793   1.690   5.569   5.853 -0.1886  0.2324 -0.3072
16101TIP3    H169794   1.680   5.507   5.924  1.1668 -0.3206 -0.5794
16101TIP3    H269795   1.784   5.584   5.847 -0.3826  1.2068 -1.1864
16102TIP3   OH269796   2.059   5.184  11.187 -0.1694  0.3107 -1.0125
16102TIP3    H169797   2.085   5.098  11.221 -2.5885  0.2788  0.8251
16102TIP3    H269798   2.081   5.245  11.257 -3.6102  0.4592  0.0067
16103TIP3   OH269799   5.230   3.195  16.817  0.1323 -0.6149 -0.3279
16103TIP3    H169800   5.210   3.178  16.909 -1.3585  0.4176 -0.4370
16103TIP3    H269801   5.322   3.172  16.808  0.2823 -0.7792  1.4219
16104TIP3   OH269802   2.685   1.893   3.019 -0.3750 -0.0003 -0.4493
16104TIP3    H169803   2.642   1.974   3.048 -1.2174 -0.1450 -1.2512
16104TIP3    H269804   2.765   1.922   2.975 -0.0027  0.3154  0.4244
16105TIP3   OH269805   0.333   0.842  12.028  0.8311 -0.4011 -0.3388
16105TIP3    H169806   0.302   0.754  12.051  1.0398 -0.8206 -1.5899
16105TIP3    H269807   0.417   0.850  12.073  1.3780 -1.3231 -1.1589
16106TIP3   OH269808   6.465   6.400  15.365  0.4266 -0.1516 -0.4376
16106TIP3    H169809   6.409   6.329  15.396 -1.5798  1.8915  0.7398
16106TIP3    H269810   6.549   6.385  15.409  0.1032 -1.9207 -0.3937
16107TIP3   OH269811   0.208   5.898   4.323  0.6505 -0.0701 -0.2646
16107TIP3    H169812   0.146   5.944   4.266  0.3743 -0.5775 -0.3750
16107TIP3    H269813   0.269   5.856   4.263  2.2872  2.0531 -0.1223
16108TIP3   OH269814   3.197   2.823   2.825  0.1794 -0.0345  0.1288
16108TIP3    H169815   3.128   2.764   2.794 -2.4455  3.4170 -0.9639
16108TIP3    H269816   3.150   2.903   2.849  3.8337  2.3802 -0.4632
16109TIP3   OH269817   1.482   3.164   2.425 -0.4909 -0.5797  0.1504
16109TIP3    H169818   1.410   3.102   2.437  0.8450 -2.4129 -1.0883
16109TIP3    H269819   1.552   3.131   2.481 -0.3160  0.7112  0.6973
16110TIP3   OH269820   4.239   5.560   2.054  0.4832 -0.5836  0.0088
16110TIP3    H169821   4.225   5.624   2.124 -1.0797  2.1084 -2.6777
16110TIP3    H269822   4.189   5.483   2.081 -0.2352  0.4797  1.7401
16111TIP3   OH269823   1.744   4.681  16.085  0.5509 -0.2227 -0.4538
16111TIP3    H169824   1.651   4.697  16.073  0.2213  0.9892  3.0680
16111TIP3    H269825   1.751   4.588  16.107 -0.1794  0.2239  1.8213
16112TIP3   OH269826   3.406   5.582  16.924  0.5894 -0.0921  0.1923
16112TIP3    H169827   3.351   5.506  16.904 -0.4790  0.7100  0.0320
16112TIP3    H269828   3.428   5.618  16.838  0.8920 -0.0866  0.2746
16113TIP3   OH269829   6.619   4.136  15.358  0.9539 -0.7786  0.5173
16113TIP3    H169830   6.661   4.217  15.385  0.8402 -0.8276  0.8381
16113TIP3    H269831   6.687   4.088  15.309  0.3222  0.5707 -1.7663
16114TIP3   OH269832   2.169   1.756   4.510 -0.0884  0.4581  0.5443
16114TIP3    H169833   2.105   1.726   4.446  1.0870 -0.2431 -0.3125
16114TIP3    H269834   2.229   1.813   4.460  0.4067  0.4963  1.1703
16115TIP3   OH269835   3.094   1.615   5.871 -0.3635 -0.6240 -0.3603
16115TIP3    H169836   3.118   1.643   5.960 -1.4581 -1.9425  0.3675
16115TIP3    H269837   3.161   1.654   5.815 -0.8758  2.0109  0.7936
16116TIP3   OH269838   0.925   5.934  17.269 -0.6244 -0.2458 -0.2628
16116TIP3    H169839   0.955   6.006  17.324 -0.4176 -0.6186  0.1209
16116TIP3    H269840   0.996   5.870  17.271 -1.5510 -1.2975  0.9525
16117TIP3   OH269841   5.235   4.909   4.918 -0.4317 -0.3301  0.2528
16117TIP3    H169842   5.219   4.982   4.859  0.3425 -0.2942  0.0724
16117TIP3    H269843   5.227   4.946   5.006 -1.2084 -0.2970  0.1674
16118TIP3   OH269844   5.842   4.818  12.940 -0.4895 -0.3052  0.0139
16118TIP3    H169845   5.895   4.739  12.936 -0.9655 -0.5502 -2.0680
16118TIP3    H269846   5.761   4.791  12.985 -0.3254 -0.7953  0.0154
16119TIP3   OH269847   0.741   1.360   0.664 -0.4936 -0.0419  0.6252
16119TIP3    H169848   0.832   1.383   0.681 -0.0790 -1.4162  0.3436
16119TIP3    H269849   0.719   1.405   0.583  0.0264  0.0794  0.5509
16120TIP3   OH269850   1.764   1.704  15.732 -0.7577 -0.0669 -0.0989
16120TIP3    H169851   1.785   1.781  15.680 -2.2690  1.0694  0.9645
16120TIP3    H269852   1.706   1.652  15.676 -1.1828  0.4295 -0.1182
16121TIP3   OH269853   5.174   4.714   4.727 -0.3492 -0.0520 -0.6499
16121TIP3    H169854   5.186   4.776   4.799  0.0163  1.0250 -1.6331
16121TIP3    H269855   5.257   4.667   4.722 -0.0732  0.4774 -0.9486
16122TIP3   OH269856   2.910   5.925  12.675  0.2485  0.4711  0.4563
16122TIP3    H169857   2.915   6.019  12.654  0.2294  0.5341  0.7345
16122TIP3    H269858   2.894   5.883  12.591  0.6295  0.6892  0.2734
16123TIP3   OH269859   0.401   4.177  16.005 -0.6677 -0.3273  0.0852
16123TIP3    H169860   0.375   4.269  16.001 -2.7280 -0.8234  1.2393
16123TIP3    H269861   0.437   4.165  16.092  0.0525 -0.5096 -0.2304
16124TIP3   OH269862   2.756   1.695   0.646 -0.4024  0.3692 -0.0302
16124TIP3    H169863   2.722   1.606   0.655 -0.0836  0.3552  1.1638
16124TIP3    H269864   2.685   1.744   0.605 -0.7628 -0.3218 -0.2428
16125TIP3   OH269865   0.621   4.798   6.145  0.0320  0.3431  0.0977
16125TIP3    H169866   0.665   4.805   6.060 -2.0841  0.6289 -1.0120
16125TIP3    H269867   0.683   4.836   6.207  1.3704  0.6690 -1.3927
16126TIP3   OH269868   2.829   0.805  12.372 -0.0023 -0.1798  0.0152
16126TIP3    H169869   2.780   0.751  12.434 -1.7227 -0.1357 -1.2828
16126TIP3    H269870   2.829   0.754  12.291 -2.2449  2.0136 -1.4380
16127TIP3   OH269871   6.215   3.981  10.480 -0.6433  0.0092  0.2944
16127TIP3    H169872   6.298   4.009  10.440 -0.6849 -0.0874  0.1419
16127TIP3    H269873   6.224   4.006  10.572 -1.4053  2.1595 -0.1846
16128TIP3   OH269874   2.560   0.345   2.596 -0.1000  0.5109  0.5936
16128TIP3    H169875   2.644   0.324   2.555 -0.6266  0.3774 -0.4371
16128TIP3    H269876   2.547   0.275   2.660  1.1069  1.1536  1.5661
16129TIP3   OH269877   2.872   2.580   3.003  0.0645 -0.1970  0.4260
16129TIP3    H169878   2.942   2.568   3.067 -0.8033  2.6381  1.9809
16129TIP3    H269879   2.839   2.491   2.987  3.2860 -1.4550  0.4277
16130TIP3   OH269880   6.611   3.514   2.138 -0.6011  0.2474 -0.3628
16130TIP3    H169881   6.703   3.508   2.163  0.1851 -1.5695 -3.4263
16130TIP3    H269882   6.608   3.582   2.071 -1.6094  0.6934  0.1133
16131TIP3   OH269883   3.661   6.338   2.544 -0.0816 -0.0684 -0.5729
16131TIP3    H169884   3.707   6.367   2.623 -0.7065 -0.5613 -0.0154
16131TIP3    H269885   3.568   6.339   2.569 -0.2376 -0.7811 -1.1152
16132TIP3   OH269886   0.116   3.785   0.979 -0.0456 -0.4006 -0.8934
16132TIP3    H169887   0.108   3.741   0.894 -0.1141 -0.5711 -0.7999
16132TIP3    H269888   0.161   3.722   1.034  2.6536  0.8284 -1.6122
16133TIP3   OH269889   2.809   5.745   5.751  0.8046  0.6206 -0.1138
16133TIP3    H169890   2.775   5.833   5.736  0.7022  0.5334 -0.4034
16133TIP3    H269891   2.731   5.690   5.762  0.8965  1.0167  2.7911
16134TIP3   OH269892   4.792   4.159   2.739  0.1815  0.0703 -0.0293
16134TIP3    H169893   4.789   4.224   2.670  0.0766 -1.1882 -1.2400
16134TIP3    H269894   4.744   4.198   2.812 -0.1813  1.1870 -0.8667
16135TIP3   OH269895   5.305   3.917  12.565 -0.1198 -0.2144  0.7732
16135TIP3    H169896   5.322   3.853  12.635  0.5743 -1.7834 -0.7877
16135TIP3    H269897   5.216   3.947  12.582 -0.2433 -1.1394  1.8952
16136TIP3   OH269898   2.331   4.180   5.344 -0.1324  0.2165 -0.0261
16136TIP3    H169899   2.401   4.203   5.405  0.5222 -1.2045 -0.2444
16136TIP3    H269900   2.250   4.197   5.394  0.3985 -3.0588  2.0775
16137TIP3   OH269901   4.625   2.584  14.123  0.3255 -0.2637 -0.0584
16137TIP3    H169902   4.641   2.661  14.177  0.1094  0.9201 -1.6327
16137TIP3    H269903   4.574   2.526  14.179  0.3445  0.8068  1.1026
16138TIP3   OH269904   6.520   2.703  15.579 -0.3443  0.3492 -0.1451
16138TIP3    H169905   6.536   2.726  15.671 -2.0629 -0.8506  0.4920
16138TIP3    H269906   6.605   2.677  15.545  0.5544  2.0208  0.7326
16139TIP3   OH269907   5.096   0.852  14.313 -0.0985  0.1696  0.0069
16139TIP3    H169908   5.159   0.896  14.371  0.2814  0.8484 -0.9123
16139TIP3    H269909   5.011   0.884  14.342  0.0812  0.4055  0.2803
16140TIP3   OH269910   1.095   3.551   1.024 -0.0002  0.5802 -0.4309
16140TIP3    H169911   1.080   3.626   1.081  0.0084  0.0908  0.2234
16140TIP3    H269912   1.188   3.533   1.032 -0.0941  0.1901 -0.1908
16141TIP3   OH269913   2.419   5.882   4.043 -0.4995 -0.4434  0.5736
16141TIP3    H169914   2.462   5.966   4.027 -1.5502  0.3964  2.0672
16141TIP3    H269915   2.491   5.824   4.071  0.2443 -0.0820 -0.5701
16142TIP3   OH269916   4.563   6.777   2.771 -0.1865  0.3297  0.3470
16142TIP3    H169917   4.510   6.700   2.788 -0.1470 -0.1606 -1.6333
16142TIP3    H269918   4.645   6.760   2.819 -0.0983 -0.9700 -0.2187
16143TIP3   OH269919   4.126   6.012   2.821 -0.7000  0.4094  0.3639
16143TIP3    H169920   4.113   5.931   2.870 -0.3743 -0.1645 -0.4989
16143TIP3    H269921   4.220   6.026   2.822 -0.5625 -0.3215 -1.2371
16144TIP3   OH269922   0.118   0.110  15.680  0.0412  0.2584 -0.0515
16144TIP3    H169923   0.045   0.163  15.711 -0.9770 -0.4728 -1.1639
16144TIP3    H269924   0.077   0.039  15.631  1.4485 -0.7681  0.2185
16145TIP3   OH269925   0.599   1.374   3.465  0.1901 -0.1860  0.4203
16145TIP3    H169926   0.571   1.440   3.529  3.0274  1.8385 -0.3755
16145TIP3    H269927   0.575   1.411   3.380  1.1759 -0.4673  0.0107
16146TIP3   OH269928   6.166   5.940  11.771 -0.0551  0.0748  0.1550
16146TIP3    H169929   6.240   5.997  11.795 -0.5625  0.0542  1.8252
16146TIP3    H269930   6.202   5.851  11.779  0.1748  0.0992 -0.5514
16147TIP3   OH269931   5.362   0.642  12.767 -0.3043  0.3713 -0.3374
16147TIP3    H169932   5.448   0.599  12.766 -0.7023 -0.4208 -1.6213
16147TIP3    H269933   5.334   0.636  12.858  0.3467 -0.7003 -0.1938
16148TIP3   OH269934   0.516   3.223   3.313 -0.1081  0.2473 -0.2525
16148TIP3    H169935   0.445   3.286   3.325 -0.5861 -0.5086  1.0405
16148TIP3    H269936   0.487   3.169   3.240 -0.7558  0.0983  0.1095
16149TIP3   OH269937   0.348   2.542  16.613  0.1791  0.7990 -0.4851
16149TIP3    H169938   0.254   2.532  16.628  0.2565 -0.5912 -0.8812
16149TIP3    H269939   0.359   2.636  16.597 -1.0146  1.1082  0.3958
16150TIP3   OH269940   6.579   3.932   2.429 -0.0589  0.2959  0.6767
16150TIP3    H169941   6.509   3.919   2.365  0.2494 -1.0053  0.5974
16150TIP3    H269942   6.536   3.977   2.502 -0.3249  2.1634 -0.5911
16151TIP3   OH269943   5.044   3.603   5.154  0.0960 -0.0948  0.1917
16151TIP3    H169944   5.103   3.665   5.112 -1.1731  0.9522 -0.0663
16151TIP3    H269945   4.966   3.602   5.097 -1.1618  0.4557  1.8680
16152TIP3   OH269946   3.195   1.252   0.364  0.5597  0.5274  0.0127
16152TIP3    H169947   3.265   1.274   0.426 -0.0163 -1.3731  1.3631
16152TIP3    H269948   3.177   1.335   0.319  2.4957  1.4335  0.8326
16153TIP3   OH269949   2.370   1.485   2.313  0.4537  0.4030 -0.3824
16153TIP3    H169950   2.377   1.578   2.291  1.7317  0.4800  0.2818
16153TIP3    H269951   2.404   1.479   2.402 -0.8376 -0.5119  0.0675
16154TIP3   OH269952   3.260   2.814  15.325  0.2315 -0.1739  0.2772
16154TIP3    H169953   3.348   2.853  15.319  0.4610 -0.9452 -2.2560
16154TIP3    H269954   3.277   2.722  15.349  0.3170 -0.9159 -2.4755
16155TIP3   OH269955   4.468   2.618   5.627  0.2207 -0.1517  0.3821
16155TIP3    H169956   4.452   2.649   5.538  1.2963 -0.2514  0.1484
16155TIP3    H269957   4.466   2.522   5.619  1.4366 -0.1713  0.2491
16156TIP3   OH269958   1.892   6.727   2.341 -0.6114  0.2395  0.1844
16156TIP3    H169959   1.856   6.688   2.262  1.5104 -0.8629 -0.2768
16156TIP3    H269960   1.954   6.662   2.374  0.1618  1.6136  1.5211
16157TIP3   OH269961   4.125   5.342  16.606 -0.0665 -0.0614  0.4451
16157TIP3    H169962   4.061   5.373  16.670  0.0434 -0.3864  0.7122
16157TIP3    H269963   4.206   5.387  16.629 -0.5013  1.3634 -0.6967
16158TIP3   OH269964   3.539   1.037  12.035  0.2915  0.1171 -0.1496
16158TIP3    H169965   3.503   0.972  12.095  1.3215 -0.2942  0.0271
16158TIP3    H269966   3.567   1.109  12.091 -0.6617  0.6347 -0.3287
16159TIP3   OH269967   4.014   1.663   5.559  0.6887 -0.3904  0.4680
16159TIP3    H169968   4.010   1.645   5.465 -2.3283 -1.1515  0.6725
16159TIP3    H269969   4.061   1.745   5.566  0.1034  0.1729 -1.8071
16160TIP3   OH269970   2.585   3.346   5.949 -0.4367 -0.0320  0.3920
16160TIP3    H169971   2.495   3.354   5.981 -1.0099 -2.3723 -0.4829
16160TIP3    H269972   2.626   3.283   6.008  0.1435 -0.2154 -0.1973
16161TIP3   OH269973   3.364   5.093   6.212 -0.3149 -0.7080 -0.0842
16161TIP3    H169974   3.374   5.182   6.245 -0.0512 -0.7544 -0.0312
16161TIP3    H269975   3.439   5.046   6.248  0.2749 -0.6268 -1.1723
16162TIP3   OH269976   5.015   3.867   4.527 -0.1660 -0.4683 -0.1254
16162TIP3    H169977   5.039   3.955   4.498  2.2266 -1.3257 -0.8461
16162TIP3    H269978   5.098   3.818   4.527 -1.2845 -2.4288  1.2991
16163TIP3   OH269979   0.627   0.529   6.124 -0.4081  0.1524 -0.3536
16163TIP3    H169980   0.681   0.451   6.131 -0.6471 -0.1914 -2.0384
16163TIP3    H269981   0.618   0.561   6.214 -0.0318 -1.5587  0.3102
16164TIP3   OH269982   0.322   0.895  15.277  0.0917 -0.2274 -0.2269
16164TIP3    H169983   0.402   0.868  15.320  0.1437 -1.0716 -0.8502
16164TIP3    H269984   0.330   0.990  15.268  2.0257 -0.5498 -2.2848
16165TIP3   OH269985   2.633   2.092  12.015  0.2337 -0.0941  0.0613
16165TIP3    H169986   2.599   2.096  11.925 -0.4454 -1.3912  0.2425
16165TIP3    H269987   2.555   2.085  12.069  0.6562  0.4139  0.7396
16166TIP3   OH269988   1.688   3.206  11.073 -0.3391 -0.2624 -0.1002
16166TIP3    H169989   1.628   3.193  11.000  0.2853  0.0337 -0.6739
16166TIP3    H269990   1.755   3.139  11.061 -0.0071  0.0587 -0.0378
16167TIP3   OH269991   3.159   4.445  11.739  0.1279  0.3387  0.0565
16167TIP3    H169992   3.115   4.508  11.681 -2.3160 -1.1464  0.2487
16167TIP3    H269993   3.098   4.372  11.746  1.4952 -0.6194  2.4969
16168TIP3   OH269994   1.284   4.112  16.735 -0.1106  0.6927 -0.0088
16168TIP3    H169995   1.347   4.182  16.752  0.3269 -0.0067  1.3366
16168TIP3    H269996   1.311   4.074  16.652  1.0951  0.5705  0.4309
16169TIP3   OH269997   4.291   5.660   1.551 -0.3615  0.3213  0.0808
16169TIP3    H169998   4.212   5.610   1.531 -0.1512  0.4176 -1.0148
16169TIP3    H269999   4.323   5.623   1.633 -1.6753  0.4417  0.6620
16170TIP3   OH270000   0.105   3.670   4.565 -0.1153 -0.0797 -0.1485
16170TIP3    H170001   0.082   3.750   4.613  4.6923  1.3156  0.1288
16170TIP3    H270002   0.079   3.599   4.624 -0.3138  1.4382  1.6611
16171TIP3   OH270003   4.447   0.175   1.115 -0.6735  0.8040 -0.0386
16171TIP3    H170004   4.397   0.116   1.171 -0.0807  0.5063  0.1825
16171TIP3    H270005   4.408   0.165   1.028  0.4030 -1.0744 -0.3380
16172TIP3   OH270006   2.234   5.350   3.370  0.4005 -0.2365  0.6380
16172TIP3    H170007   2.175   5.406   3.320  0.4829  1.1707  2.0672
16172TIP3    H270008   2.274   5.292   3.305 -0.4358  0.7017 -0.7291
16173TIP3   OH270009   6.495   0.999  15.381  0.1243  0.1584 -0.7468
16173TIP3    H170010   6.494   1.088  15.346  1.5977  0.2194 -0.6473
16173TIP3    H270011   6.581   0.990  15.423  0.9477 -2.1143 -2.8295
16174TIP3   OH270012   6.411   5.422   2.274  0.7461 -0.6513 -0.7927
16174TIP3    H170013   6.480   5.401   2.210  0.0692 -0.6050 -1.5482
16174TIP3    H270014   6.342   5.358   2.256  0.2542 -0.1856 -0.5756
16175TIP3   OH270015   5.879   5.450   1.094  0.3111 -0.2615  0.9023
16175TIP3    H170016   5.930   5.369   1.097  2.0727  0.8572  1.4522
16175TIP3    H270017   5.847   5.455   1.004  3.0544  0.1800 -0.0778
16176TIP3   OH270018   3.053   6.465  12.653 -0.0664  1.0192  0.1456
16176TIP3    H170019   3.128   6.410  12.677  0.1704  0.1923 -2.4031
16176TIP3    H270020   3.092   6.545  12.618 -0.2653 -0.2164 -3.0936
16177TIP3   OH270021   6.812   2.218   2.720  0.3441 -0.7367 -0.1545
16177TIP3    H170022   6.804   2.123   2.722 -1.3006 -0.6380 -1.3248
16177TIP3    H270023   6.838   2.242   2.809 -0.2380 -2.1921  0.4118
16178TIP3   OH270024   2.826   3.563  15.366  0.3702 -0.2247  0.1623
16178TIP3    H170025   2.874   3.481  15.378  0.9969 -0.0362 -0.9839
16178TIP3    H270026   2.784   3.553  15.280  0.6282  0.7464 -0.0738
16179TIP3   OH270027   0.003   0.810  15.249 -0.2251 -0.4325  0.1686
16179TIP3    H170028   0.083   0.760  15.235 -0.4729 -0.2216 -2.1738
16179TIP3    H270029  -0.030   0.780  15.334  1.7129 -1.3500  0.6187
16180TIP3   OH270030   0.993   3.813   2.572  0.0204 -0.1737  0.4558
16180TIP3    H170031   0.916   3.866   2.553 -0.9425 -2.2331 -1.7402
16180TIP3    H270032   1.067   3.864   2.540 -0.7312  0.5052 -0.1989
16181TIP3   OH270033   4.228   4.715  12.258  0.0486 -0.0713 -0.1590
16181TIP3    H170034   4.277   4.772  12.200 -1.2520  0.6690 -0.5618
16181TIP3    H270035   4.195   4.645  12.202  0.9698 -0.7892  0.1865
16182TIP3   OH270036   1.755   0.012   1.711  0.7155 -0.2652 -0.3623
16182TIP3    H170037   1.767  -0.080   1.736  0.1391  0.0699  1.1824
16182TIP3    H270038   1.667   0.015   1.675  1.3882 -0.6608 -2.1002
16183TIP3   OH270039   1.963   2.038  11.682 -0.2608 -0.1674 -0.5594
16183TIP3    H170040   1.883   2.037  11.631 -0.9716  0.4102  0.5213
16183TIP3    H270041   1.964   2.124  11.723  0.6461 -0.3660 -0.1559
16184TIP3   OH270042   0.931   4.144   4.625  0.1872 -0.5187 -0.3295
16184TIP3    H170043   0.916   4.188   4.709 -0.2221 -0.4064 -0.4626
16184TIP3    H270044   0.928   4.051   4.646 -2.3773 -0.5214 -0.6492
16185TIP3   OH270045   1.625   0.069  14.072  0.5343  0.3430 -0.1425
16185TIP3    H170046   1.684   0.059  13.997 -0.5350  0.4060 -1.0169
16185TIP3    H270047   1.633  -0.014  14.120  1.8900  0.6479  0.1746
16186TIP3   OH270048   3.799   3.748   0.617  0.2418 -0.5700  0.5667
16186TIP3    H170049   3.747   3.676   0.653  0.6383 -0.0126  2.3094
16186TIP3    H270050   3.737   3.802   0.569 -0.6233 -0.4567  1.7862
16187TIP3   OH270051   1.579   6.543   2.881 -0.1025 -0.3931  0.3503
16187TIP3    H170052   1.623   6.538   2.796 -1.8226 -0.2155 -0.5524
16187TIP3    H270053   1.503   6.485   2.872 -0.4085 -0.2023  1.6944
16188TIP3   OH270054   4.384   4.966   1.823  0.5346 -0.4078 -0.5802
16188TIP3    H170055   4.305   4.982   1.772  0.8194  1.2200 -0.5461
16188TIP3    H270056   4.407   4.876   1.804 -1.0184 -0.7243 -1.0251
16189TIP3   OH270057   0.776   3.991  11.832 -0.3034 -0.0142 -0.1308
16189TIP3    H170058   0.810   4.080  11.847  2.6461 -1.0615 -0.3402
16189TIP3    H270059   0.809   3.966  11.746 -1.1448 -1.3222 -0.0916
16190TIP3   OH270060   2.539   4.291   6.242  0.7493  0.3904  0.8052
16190TIP3    H170061   2.631   4.290   6.213  0.2299  0.2001 -0.9061
16190TIP3    H270062   2.500   4.363   6.194 -0.5715 -1.0809 -0.3831
16191TIP3   OH270063   4.231   0.337   0.933 -0.1389  0.3556  0.2516
16191TIP3    H170064   4.168   0.390   0.885  0.3068 -0.0521 -0.8232
16191TIP3    H270065   4.184   0.257   0.955 -0.1219  0.2115 -0.2178
16192TIP3   OH270066   3.432   3.191  15.969 -0.2073 -0.2993 -0.0210
16192TIP3    H170067   3.355   3.247  15.962  0.4078  0.5164 -0.4348
16192TIP3    H270068   3.447   3.182  16.063 -0.7373 -0.3672  0.0565
16193TIP3   OH270069   6.543   0.977   4.050  0.4089 -0.5505  0.1964
16193TIP3    H170070   6.463   1.014   4.012 -0.3391 -0.9441  1.3511
16193TIP3    H270071   6.520   0.960   4.142  2.9111  2.7002  1.5290
16194TIP3   OH270072   2.043   1.506  10.956 -0.4400  0.2656 -0.0848
16194TIP3    H170073   2.089   1.527  10.874  0.1785  0.0149  0.1978
16194TIP3    H270074   2.102   1.447  11.002 -0.8663  0.2726  0.4693
16195TIP3   OH270075   2.353   0.428  15.627 -0.3991 -0.1079  0.8023
16195TIP3    H170076   2.422   0.398  15.568 -0.6601 -0.6867  0.7959
16195TIP3    H270077   2.400   0.459  15.704 -0.1314 -0.4975  0.7977
16196TIP3   OH270078   4.128   1.012  17.083 -0.3170  0.4158  0.1668
16196TIP3    H170079   4.202   1.004  17.142  0.1528  0.9120 -0.3540
16196TIP3    H270080   4.130   0.933  17.030  0.6888  1.0927 -0.8153
16197TIP3   OH270081   5.325   3.292   4.351  0.0100  0.2491 -0.1418
16197TIP3    H170082   5.324   3.388   4.345 -0.7967  0.2151 -0.6399
16197TIP3    H270083   5.235   3.266   4.331  0.3347 -0.6370 -0.4810
16198TIP3   OH270084   2.039   3.864   0.697  0.6424  0.9649 -0.4532
16198TIP3    H170085   2.121   3.903   0.666  0.5736  1.5179  0.0415
16198TIP3    H270086   2.022   3.908   0.780 -0.0004  0.6329 -0.4060
16199TIP3   OH270087   1.446   1.108   2.655 -0.3086 -0.1646 -0.0315
16199TIP3    H170088   1.405   1.056   2.586  1.9701  0.5559 -1.9978
16199TIP3    H270089   1.508   1.049   2.697 -0.7298 -0.2183  0.5221
16200TIP3   OH270090   5.182   2.570  15.201 -0.2262 -0.2848 -0.1268
16200TIP3    H170091   5.139   2.559  15.116  2.3714  1.1327 -1.6887
16200TIP3    H270092   5.143   2.650  15.237 -0.2730 -0.0460 -0.6946
16201TIP3   OH270093   0.915   3.596  14.465 -0.4873  0.7396 -0.6152
16201TIP3    H170094   0.881   3.653  14.534  1.5906  0.5127  0.6530
16201TIP3    H270095   0.907   3.648  14.385 -2.6880  1.1128 -0.1906
16202TIP3   OH270096   4.962   4.032  14.229  0.4033 -0.0813  0.2630
16202TIP3    H170097   4.892   3.981  14.269 -0.4198 -0.5337 -1.6896
16202TIP3    H270098   5.042   3.999  14.269 -0.2864 -1.5124  0.4678
16203TIP3   OH270099   1.086   1.209  14.709  0.1018  0.1974  0.1570
16203TIP3    H170100   1.120   1.172  14.627  0.7596 -1.3441  1.1225
16203TIP3    H270101   0.991   1.210  14.697  0.2308  0.7143 -0.9291
16204TIP3   OH270102   4.254   1.431   3.155  0.8465  0.3054  0.2505
16204TIP3    H170103   4.324   1.495   3.159 -1.1357  2.4898  0.7921
16204TIP3    H270104   4.186   1.466   3.212 -0.8689 -1.5333 -0.6301
16205TIP3   OH270105   4.860   3.844   2.656  0.4364 -0.6478 -0.0707
16205TIP3    H170106   4.942   3.854   2.705 -0.0303  0.9274  0.4057
16205TIP3    H270107   4.800   3.803   2.718  0.1110  0.5323  0.4010
16206TIP3   OH270108   0.102   1.717   5.969 -0.0103 -0.2859  0.4523
16206TIP3    H170109   0.094   1.646   5.904  0.0013 -0.0630  0.2072
16206TIP3    H270110   0.131   1.673   6.049  0.3613 -0.5064  0.1979
16207TIP3   OH270111   2.937   3.438   2.117  0.0362  0.5069 -0.5086
16207TIP3    H170112   3.031   3.428   2.136 -0.3395 -1.4364  0.4341
16207TIP3    H270113   2.893   3.394   2.189 -1.6118  1.4597 -0.9292
16208TIP3   OH270114   5.816   2.299  15.785 -0.5777  0.1692 -0.0791
16208TIP3    H170115   5.838   2.209  15.807 -0.3482 -0.3430 -2.2365
16208TIP3    H270116   5.835   2.349  15.864 -1.3468 -1.7669  1.3531
16209TIP3   OH270117   6.079   0.499  16.531 -0.1434 -0.2895  0.6816
16209TIP3    H170118   6.105   0.496  16.439 -0.8240  1.7405  0.3868
16209TIP3    H270119   5.987   0.473  16.530 -0.1708 -0.1961  0.7706
16210TIP3   OH270120   2.881   2.726   4.588 -0.1532 -0.0196  0.0361
16210TIP3    H170121   2.928   2.697   4.509  0.2923 -1.8148  0.9333
16210TIP3    H270122   2.793   2.748   4.556 -0.4901 -2.3414 -0.7205
16211TIP3   OH270123   5.067   0.161  13.606 -0.1636  0.0890  0.0734
16211TIP3    H170124   5.103   0.250  13.612  0.0604 -0.0960  2.0012
16211TIP3    H270125   5.050   0.148  13.513  1.6823  1.4129 -0.4902
16212TIP3   OH270126   4.604   0.627  13.804 -0.4948 -0.0541 -0.1748
16212TIP3    H170127   4.564   0.645  13.889  0.4680  0.1546  0.2428
16212TIP3    H270128   4.660   0.551  13.819  0.3931  0.5441 -0.3862
16213TIP3   OH270129   4.457   3.362   0.754 -0.2297 -0.2695  0.3589
16213TIP3    H170130   4.417   3.283   0.717  0.6715  1.4400 -4.6198
16213TIP3    H270131   4.546   3.362   0.718  0.2470  2.2636  1.4605
16214TIP3   OH270132   4.092   0.628   0.839  0.2440  0.2891  0.0237
16214TIP3    H170133   4.014   0.683   0.849 -0.4501 -0.8892  1.1671
16214TIP3    H270134   4.059   0.547   0.800  0.9221 -0.1576  0.3738
16215TIP3   OH270135   2.063   3.885   0.346 -0.5866 -0.4461  0.4437
16215TIP3    H170136   2.116   3.891   0.425  0.2643 -1.5730 -0.0208
16215TIP3    H270137   2.118   3.838   0.284 -0.9049  1.1846 -1.1061
16216TIP3   OH270138   5.544   6.093   4.921 -0.7287 -0.1705  0.3417
16216TIP3    H170139   5.524   5.999   4.923  0.6741 -0.5771 -2.0896
16216TIP3    H270140   5.478   6.130   4.861 -0.6266  0.2160  0.4667
16217TIP3   OH270141   1.516   0.438  12.098  0.3210  0.4603 -0.1374
16217TIP3    H170142   1.443   0.479  12.052  1.6008  0.4068 -2.2907
16217TIP3    H270143   1.557   0.382  12.032  2.2067  0.3604  1.0819
16218TIP3   OH270144   1.750   6.510   4.652  0.1241  0.6164 -0.3311
16218TIP3    H170145   1.825   6.505   4.593  0.4782  1.2895  0.0634
16218TIP3    H270146   1.777   6.458   4.728 -0.6820 -1.0111 -1.1299
16219TIP3   OH270147   1.029   6.787  16.646  0.5192  0.6081 -0.3760
16219TIP3    H170148   1.049   6.859  16.586 -3.6152  1.3122 -1.0427
16219TIP3    H270149   1.093   6.719  16.624  2.9031  3.1166 -1.4200
16220TIP3   OH270150   3.734   6.358  16.234 -0.1218  0.1784 -0.3271
16220TIP3    H170151   3.669   6.295  16.202  1.2311 -1.0345 -0.7732
16220TIP3    H270152   3.767   6.319  16.315  0.4819  0.4862 -0.4286
16221TIP3   OH270153   6.668   3.901   6.446 -0.0165 -0.1191 -0.2136
16221TIP3    H170154   6.705   3.836   6.505  0.3771 -0.6348 -1.0340
16221TIP3    H270155   6.627   3.965   6.505  2.6178  0.7561  0.7334
16222TIP3   OH270156   5.656   2.638   2.009  0.6429 -0.4019  0.0780
16222TIP3    H170157   5.667   2.663   2.101 -0.1318 -1.5813  0.5034
16222TIP3    H270158   5.589   2.698   1.975 -0.7126 -1.4380  0.9001
16223TIP3   OH270159   2.033   1.697  13.343  0.1738 -0.0263 -0.6053
16223TIP3    H170160   2.123   1.713  13.369  0.0308 -1.1479  0.6725
16223TIP3    H270161   1.990   1.668  13.424 -1.3143  0.4609 -1.2039
16224TIP3   OH270162   4.573   5.746   1.764 -0.4581 -0.0672  0.0772
16224TIP3    H170163   4.668   5.743   1.761 -0.3922  1.9333 -1.8868
16224TIP3    H270164   4.553   5.828   1.810 -1.2709 -1.4033  2.1690
16225TIP3   OH270165   1.027   1.113  10.398 -0.4249 -0.5099  0.2599
16225TIP3    H170166   0.965   1.102  10.326  0.4569 -0.8490 -0.4580
16225TIP3    H270167   1.054   1.204  10.392  1.7589 -1.2456 -1.5887
16226TIP3   OH270168   5.250   5.671   2.360 -0.0067 -0.2268 -0.4616
16226TIP3    H170169   5.248   5.752   2.309  0.5223 -0.5839 -1.0660
16226TIP3    H270170   5.252   5.699   2.451  0.7702  0.4417 -0.6845
16227TIP3   OH270171   1.854   6.364   4.877  0.0128  0.0636  0.3677
16227TIP3    H170172   1.842   6.317   4.960  2.2539  0.7396  1.1361
16227TIP3    H270173   1.940   6.335   4.846 -0.6335  0.1256 -1.5360
16228TIP3   OH270174   1.449   3.032   2.939  0.2349 -0.0815  0.5157
16228TIP3    H170175   1.419   3.072   2.857  1.6118  0.5705  0.3169
16228TIP3    H270176   1.387   3.062   3.005 -0.2497  0.2689 -0.1013
16229TIP3   OH270177   1.592   6.421  13.705  0.6660  0.1746  0.3569
16229TIP3    H170178   1.594   6.420  13.609  0.3191 -0.6431  0.3531
16229TIP3    H270179   1.664   6.478  13.730  2.0674 -1.2643 -0.3416
16230TIP3   OH270180   3.299   0.971   0.450 -0.4693  0.1819 -0.2136
16230TIP3    H170181   3.328   0.897   0.504 -0.2626  0.1698 -0.3405
16230TIP3    H270182   3.297   0.936   0.361 -1.0725  0.1251 -0.1787
16231TIP3   OH270183   1.539   1.698   0.119 -0.5543 -0.7134  0.3890
16231TIP3    H170184   1.539   1.789   0.149  1.4245 -0.4695 -0.2748
16231TIP3    H270185   1.618   1.661   0.157 -0.7170 -1.8208 -0.3526
16232TIP3   OH270186   5.344   5.825  16.369 -0.0200 -0.2238 -0.2429
16232TIP3    H170187   5.395   5.840  16.448  0.5517 -1.1474 -0.4230
16232TIP3    H270188   5.342   5.729  16.360 -0.2320 -0.1339 -1.2397
16233TIP3   OH270189   1.756   1.825   3.995  0.4830  0.2169 -0.1011
16233TIP3    H170190   1.766   1.821   4.090 -1.7346 -0.2783  0.1477
16233TIP3    H270191   1.742   1.918   3.977  2.5843  0.5406 -0.1568
16234TIP3   OH270192   1.759   1.976   2.516 -0.1582  0.0987 -0.4405
16234TIP3    H170193   1.671   1.997   2.547  0.0169 -0.0058  0.1412
16234TIP3    H270194   1.783   1.896   2.564  0.9726  1.1577  0.8143
16235TIP3   OH270195   1.707   6.424  17.049  0.3695 -0.4159  0.0746
16235TIP3    H170196   1.679   6.454  16.962  2.9375 -2.0591 -1.3736
16235TIP3    H270197   1.671   6.336  17.056  1.1591 -0.7313  0.1841
16236TIP3   OH270198   6.126   4.547  17.012 -0.0124  0.7842 -0.0500
16236TIP3    H170199   6.111   4.460  17.050 -0.2716  0.0873 -1.6509
16236TIP3    H270200   6.219   4.563  17.023  1.2260 -2.1652 -4.5013
16237TIP3   OH270201   0.965   3.577  17.160  0.3946  0.1499  0.3808
16237TIP3    H170202   0.990   3.575  17.067 -0.4716  1.4462  0.1046
16237TIP3    H270203   1.039   3.538  17.206  0.7792 -0.6229 -0.8686
16238TIP3   OH270204   2.226   0.286  14.412 -0.1052  0.1795 -0.0151
16238TIP3    H170205   2.276   0.250  14.338 -0.9985  0.9785 -1.0076
16238TIP3    H270206   2.216   0.211  14.471 -0.3108 -0.7556 -1.1906
16239TIP3   OH270207   4.339   1.433   5.147  0.4437  0.2160 -0.3169
16239TIP3    H170208   4.321   1.501   5.081  0.5025  0.5984  0.0539
16239TIP3    H270209   4.288   1.358   5.119  1.8105 -0.2007 -1.7499
16240TIP3   OH270210   6.229   6.083  15.780 -0.3862 -0.2905 -0.2820
16240TIP3    H170211   6.147   6.094  15.731 -0.9003 -1.6123  0.2457
16240TIP3    H270212   6.269   6.004  15.743 -0.4724 -0.9445  0.9886
16241TIP3   OH270213   6.716   4.481  11.469 -0.1124  0.0691  0.0471
16241TIP3    H170214   6.739   4.518  11.554  0.2402 -0.4767  0.1924
16241TIP3    H270215   6.633   4.436  11.485  0.2537 -0.5392  0.2451
16242TIP3   OH270216   3.533   3.383   4.767 -0.2126  0.1492 -0.0236
16242TIP3    H170217   3.481   3.342   4.698 -2.6671  2.1821  0.5532
16242TIP3    H270218   3.614   3.408   4.725 -1.3500  0.5946 -1.9961
16243TIP3   OH270219   4.524   2.129  11.765 -0.3054 -0.3818 -0.0396
16243TIP3    H170220   4.588   2.059  11.749  0.4295  0.1875  0.3731
16243TIP3    H270221   4.564   2.183  11.833 -0.4043  1.0179 -1.0685
16244TIP3   OH270222   3.521   4.011  13.629  0.1333  0.1314  0.1811
16244TIP3    H170223   3.446   3.992  13.685 -0.1373 -0.5120 -0.4010
16244TIP3    H270224   3.585   4.050  13.688 -1.8134  3.6963  0.1385
16245TIP3   OH270225   0.614   0.849  15.658  0.0048  0.9184  0.7141
16245TIP3    H170226   0.637   0.874  15.748 -0.4219  3.2252  0.2142
16245TIP3    H270227   0.532   0.895  15.641 -0.1269  0.1677 -0.7454
16246TIP3   OH270228   1.437   6.517  14.810  0.0962  0.5633 -0.7023
16246TIP3    H170229   1.441   6.477  14.896  1.1773  0.1455 -0.9439
16246TIP3    H270230   1.527   6.513  14.777 -0.5706 -0.7190 -2.4787
16247TIP3   OH270231   3.997   3.806   1.915  0.2334  0.0414 -0.2605
16247TIP3    H170232   3.929   3.871   1.932  0.8310  0.1568  1.9075
16247TIP3    H270233   4.066   3.854   1.868 -0.4710  0.3229 -1.0036
16248TIP3   OH270234   6.343   1.790  16.602  0.4958  0.6040 -0.2813
16248TIP3    H170235   6.393   1.720  16.644  0.5420  1.1395  0.5770
16248TIP3    H270236   6.252   1.764  16.612  0.5925 -0.5376 -2.1408
16249TIP3   OH270237   2.868   2.892   4.966  0.1825 -0.4317  0.1990
16249TIP3    H170238   2.891   2.832   4.894  1.5000 -0.6525  0.7836
16249TIP3    H270239   2.854   2.835   5.041  1.2189 -0.0350  0.7027
16250TIP3   OH270240   6.081   4.810  13.649 -0.5925 -0.1395  0.1076
16250TIP3    H170241   6.052   4.898  13.671 -0.3726  0.6058 -2.3968
16250TIP3    H270242   6.012   4.753  13.683 -0.1060  0.8599  2.8897
16251TIP3   OH270243   0.754   3.018  11.099  0.3689 -0.2238  0.0540
16251TIP3    H170244   0.783   3.011  11.008 -0.8900  2.4771 -0.6226
16251TIP3    H270245   0.660   3.036  11.093  0.1942 -0.4047  1.8987
16252TIP3   OH270246   4.692   1.110   4.848  0.0436  0.0653  0.2284
16252TIP3    H170247   4.694   1.160   4.929  1.0062  1.1096 -0.4280
16252TIP3    H270248   4.728   1.024   4.871  2.8144  1.2284  0.3364
16253TIP3   OH270249   5.672   6.594   5.855  0.1667  0.0476  0.4804
16253TIP3    H170250   5.621   6.550   5.923 -0.9466  0.1767 -0.2548
16253TIP3    H270251   5.607   6.642   5.803  1.0372  0.2231 -0.4759
16254TIP3   OH270252   3.371   6.441  12.081  0.7523  0.3800  0.7551
16254TIP3    H170253   3.374   6.386  12.003  3.4995  0.9509  0.4131
16254TIP3    H270254   3.303   6.505  12.062 -1.9293 -2.3116  0.8217
16255TIP3   OH270255   5.635   4.249   3.787  0.0928 -0.1497 -0.1963
16255TIP3    H170256   5.540   4.253   3.795  0.0602 -0.9010 -0.1514
16255TIP3    H270257   5.651   4.203   3.704  0.3967 -1.9542  0.8343
16256TIP3   OH270258   5.647   4.649  12.652  0.3771  0.0693  0.7602
16256TIP3    H170259   5.615   4.622  12.738 -0.2698  2.7215  1.4152
16256TIP3    H270260   5.634   4.573  12.596  1.4662 -1.9261  3.1642
16257TIP3   OH270261   6.320   0.754   2.012 -0.1380 -0.2581  0.1687
16257TIP3    H170262   6.233   0.733   1.980  0.0935  0.4532 -0.9423
16257TIP3    H270263   6.379   0.702   1.958  0.2192  0.4912 -0.1665
16258TIP3   OH270264   1.568   1.128   1.659  0.7156 -1.0337  0.2137
16258TIP3    H170265   1.635   1.183   1.700 -2.0655  2.2761  0.6185
16258TIP3    H270266   1.580   1.141   1.565  1.7257 -1.8341  0.2291
16259TIP3   OH270267   6.237   6.626  16.401 -0.2036  0.4057 -0.1564
16259TIP3    H170268   6.275   6.623  16.314  0.1380  0.4278 -0.0090
16259TIP3    H270269   6.246   6.718  16.428 -0.1888  0.3711 -0.0428
16260TIP3   OH270270   1.477   6.533   5.437 -0.0229 -0.1227 -0.8180
16260TIP3    H170271   1.431   6.561   5.517  1.8181  1.8452 -0.3918
16260TIP3    H270272   1.558   6.493   5.469  0.5326  0.3097 -1.6775
16261TIP3   OH270273   1.031   1.940  12.104 -0.1753 -0.1253  0.3190
16261TIP3    H170274   1.002   1.994  12.030  0.2716 -0.1715  0.1120
16261TIP3    H270275   1.068   2.003  12.165  3.6910 -0.5254 -1.4722
16262TIP3   OH270276   0.997   2.319   3.544  0.7182  0.2471 -0.2943
16262TIP3    H170277   0.968   2.283   3.627  1.3014  1.2487  0.3543
16262TIP3    H270278   0.978   2.413   3.551 -0.6689  0.1057 -1.8912
16263TIP3   OH270279   4.375   6.423   2.208  0.3349 -0.0406  0.2593
16263TIP3    H170280   4.464   6.460   2.206 -0.1154  1.0332 -1.2218
16263TIP3    H270281   4.329   6.469   2.137 -0.9140 -1.8157 -0.1102
16264TIP3   OH270282   3.356   4.210  15.110  0.7806 -0.2085 -0.0679
16264TIP3    H170283   3.356   4.228  15.204 -1.0424  0.6896 -0.2252
16264TIP3    H270284   3.283   4.150  15.096 -0.5176  1.5934 -1.2420
16265TIP3   OH270285   3.607   4.229  14.443 -0.0764  0.4863  0.7000
16265TIP3    H170286   3.521   4.228  14.486 -1.5492  3.9406 -1.8942
16265TIP3    H270287   3.632   4.321  14.441  3.6806 -0.4335  1.2248
16266TIP3   OH270288   2.891   2.932   3.304 -0.3510  0.2833  0.0192
16266TIP3    H170289   2.958   2.890   3.358 -2.0484 -0.2082  1.7963
16266TIP3    H270290   2.903   3.026   3.321  1.4328  0.3655 -1.5558
16267TIP3   OH270291   1.090   3.089   6.690 -0.0617 -0.5516 -0.0743
16267TIP3    H170292   1.061   3.173   6.654  1.7966 -0.2707 -0.9910
16267TIP3    H270293   1.028   3.070   6.760  0.6810  2.6305  1.5645
16268TIP3   OH270294   5.043   2.970  14.991 -0.0593  0.1062  0.5689
16268TIP3    H170295   4.982   2.914  15.039 -0.2402 -0.7443 -0.6331
16268TIP3    H270296   5.048   2.931  14.904 -0.8928  2.4811 -0.5693
16269TIP3   OH270297   3.249   6.164  14.246 -0.3978  0.5029 -0.0488
16269TIP3    H170298   3.315   6.176  14.178 -0.1624 -0.1743  0.0575
16269TIP3    H270299   3.299   6.149  14.326 -0.6820  0.2679  0.0868
16270TIP3   OH270300   0.732   0.916  12.638 -0.3396  0.4999  1.0672
16270TIP3    H170301   0.740   0.838  12.693  1.3790 -0.6847 -0.8067
16270TIP3    H270302   0.639   0.917  12.613 -0.2889 -1.2352  0.7056
16271TIP3   OH270303   4.769   3.441  16.041  0.1647 -0.0262  0.5263
16271TIP3    H170304   4.777   3.346  16.049  0.2253  0.0448  1.4354
16271TIP3    H270305   4.846   3.476  16.087 -0.2967  0.4704  0.9386
16272TIP3   OH270306   4.244   5.402   2.309 -0.4135 -0.1452 -0.1829
16272TIP3    H170307   4.329   5.359   2.300 -0.0346  0.4553  0.4542
16272TIP3    H270308   4.257   5.468   2.378 -1.1132  0.6574 -0.7980
16273TIP3   OH270309   1.466   5.894   1.148 -0.4287 -0.0207  0.3121
16273TIP3    H170310   1.561   5.889   1.148 -0.4441 -0.4598 -1.2752
16273TIP3    H270311   1.447   5.987   1.135 -0.2046 -0.1435 -0.9907
16274TIP3   OH270312   4.177   3.934   0.944 -0.7633 -0.3139  0.2178
16274TIP3    H170313   4.170   3.934   1.040  1.4216  0.4229  0.3935
16274TIP3    H270314   4.161   3.843   0.919  0.1186 -0.7995  1.3970
16275TIP3   OH270315   3.844   2.415  14.122  0.1003 -0.0400  0.1526
16275TIP3    H170316   3.843   2.401  14.217 -0.6083  0.9441  0.3004
16275TIP3    H270317   3.911   2.482  14.109 -0.0728  0.1031 -0.0020
16276TIP3   OH270318   4.895   3.984  13.448  0.0294 -0.2036  0.5420
16276TIP3    H170319   4.916   3.952  13.361 -1.5818 -2.9602  1.1245
16276TIP3    H270320   4.980   3.994  13.491  0.7979  0.7135 -1.1565
16277TIP3   OH270321   4.929   0.817   0.751  0.0928 -0.5831  0.1941
16277TIP3    H170322   5.009   0.856   0.714  0.2634  0.6494  1.8362
16277TIP3    H270323   4.960   0.739   0.797 -0.0549 -1.8220 -1.7277
16278TIP3   OH270324   6.109   5.705   5.459  0.2519 -0.8268 -0.1753
16278TIP3    H170325   6.171   5.774   5.484 -1.3499  0.6519 -0.1490
16278TIP3    H270326   6.094   5.719   5.366 -0.5009 -0.7684 -0.0518
16279TIP3   OH270327   1.102   0.255   2.366  0.1507  0.3561  0.0902
16279TIP3    H170328   1.077   0.272   2.275 -0.6457  2.6079  0.7019
16279TIP3    H270329   1.023   0.218   2.405  0.2186  0.2239  0.1036
16280TIP3   OH270330   0.026   6.815  15.921 -0.6346 -0.1061 -0.2791
16280TIP3    H170331   0.020   6.888  15.983  1.4409  0.2440 -0.4448
16280TIP3    H270332   0.030   6.857  15.836 -3.0717 -0.5753 -0.6626
16281TIP3   OH270333   0.810   5.560  11.500  0.0463 -0.3318 -0.4169
16281TIP3    H170334   0.878   5.502  11.466 -0.9095 -1.5536 -0.2559
16281TIP3    H270335   0.824   5.560  11.595  0.8738  0.7572 -0.5318
16282TIP3   OH270336   1.921   5.545   2.223  0.1060 -0.1084 -0.0137
16282TIP3    H170337   1.928   5.640   2.228  0.7661 -0.2283  1.6778
16282TIP3    H270338   1.936   5.515   2.313 -0.7264 -1.7719 -0.4129
16283TIP3   OH270339   1.782   3.286   2.695  0.1825  0.3263  0.4729
16283TIP3    H170340   1.878   3.287   2.689  0.0926  1.0024 -0.8604
16283TIP3    H270341   1.761   3.198   2.726  1.0783 -0.7508 -1.9337
16284TIP3   OH270342   1.701   4.217  13.899 -0.5029  0.7571  0.5428
16284TIP3    H170343   1.703   4.267  13.980 -0.4595  0.3921  0.7641
16284TIP3    H270344   1.610   4.223  13.870  0.0218  3.1618 -0.7978
16285TIP3   OH270345   5.190   3.939   1.812  0.1223  0.1822  0.3727
16285TIP3    H170346   5.282   3.938   1.785  0.1072  0.8115  0.2908
16285TIP3    H270347   5.147   3.875   1.756 -0.2724  2.7794 -2.3968
16286TIP3   OH270348   6.691   0.809  11.156  0.2398 -0.0258 -0.1467
16286TIP3    H170349   6.612   0.766  11.123 -0.0892  0.9887 -0.6793
16286TIP3    H270350   6.707   0.881  11.095  0.9951  0.3982  0.5418
16287TIP3   OH270351   6.412   3.557   2.340  0.3615  1.0891  0.3728
16287TIP3    H170352   6.367   3.480   2.375 -0.9381  1.9403  0.6374
16287TIP3    H270353   6.477   3.522   2.279 -4.2994 -0.1000 -4.3158
16288TIP3   OH270354   1.763   0.389   0.513 -0.5227  0.4142  0.7624
16288TIP3    H170355   1.699   0.319   0.502 -1.3588  1.1584  0.7995
16288TIP3    H270356   1.845   0.352   0.481 -1.4587  0.2201 -1.4830
16289TIP3   OH270357   0.854   0.207   1.718  0.5412 -0.1682  0.5402
16289TIP3    H170358   0.931   0.200   1.775  1.2575  1.8361 -0.1439
16289TIP3    H270359   0.788   0.249   1.773  0.9566  0.9637  0.2053
16290TIP3   OH270360   0.210   5.114  16.738  0.2757 -0.1755 -0.1938
16290TIP3    H170361   0.149   5.042  16.756  1.4182 -0.9361  0.7193
16290TIP3    H270362   0.179   5.151  16.656 -1.7124 -0.2224  0.4940
16291TIP3   OH270363   6.727   6.678  14.802  0.6014  0.0056  0.1144
16291TIP3    H170364   6.749   6.739  14.731 -1.1183 -0.4327 -0.8232
16291TIP3    H270365   6.799   6.688  14.864  2.2167  0.3234 -1.7300
16292TIP3   OH270366   3.377   2.654  13.956  0.1471  0.5690  0.2727
16292TIP3    H170367   3.291   2.659  13.996 -0.5687 -0.9432 -1.0228
16292TIP3    H270368   3.433   2.615  14.024 -0.5673 -0.0023  0.5342
16293TIP3   OH270369   1.811   1.690  12.830 -0.4468  0.0552 -0.1423
16293TIP3    H170370   1.873   1.689  12.903 -0.9011  1.1474  0.2532
16293TIP3    H270371   1.855   1.637  12.762 -0.4234 -1.7329  1.2182
16294TIP3   OH270372   1.993   3.085  12.111  0.8518  0.1082 -0.0171
16294TIP3    H170373   1.939   3.012  12.080 -0.6194  0.9323  0.5312
16294TIP3    H270374   1.994   3.147  12.039 -1.9248  1.6757  1.2229
16295TIP3   OH270375   3.157   0.346   0.680 -0.6059  0.0712 -0.7302
16295TIP3    H170376   3.123   0.374   0.595  2.0213 -0.2967 -1.9441
16295TIP3    H270377   3.201   0.423   0.714 -0.0883 -0.3156 -0.5243
16296TIP3   OH270378   3.883   4.324  15.571 -0.6479  0.5367  0.4346
16296TIP3    H170379   3.913   4.406  15.533 -0.2010  0.1069 -0.1481
16296TIP3    H270380   3.789   4.322  15.552 -0.5720  0.6962  0.0297
16297TIP3   OH270381   1.619   3.934   0.691 -0.1764  0.0543 -0.5134
16297TIP3    H170382   1.541   3.985   0.669 -0.3674 -0.2713 -0.5934
16297TIP3    H270383   1.671   3.934   0.611 -0.7409 -0.8942 -0.8861
16298TIP3   OH270384   1.621   0.291   0.233  0.0146 -0.7328 -0.5176
16298TIP3    H170385   1.698   0.336   0.199  1.0321  0.2366  2.8991
16298TIP3    H270386   1.653   0.204   0.258 -0.2487 -0.7361 -0.1873
16299TIP3   OH270387   5.148   3.514  13.719 -0.7788  0.4217 -0.1879
16299TIP3    H170388   5.184   3.426  13.709 -0.0380  0.5286  1.4259
16299TIP3    H270389   5.222   3.568  13.746 -1.3905  1.3778 -0.3770
16300TIP3   OH270390   2.576   6.587   0.200  0.1686  0.1434 -0.2854
16300TIP3    H170391   2.485   6.617   0.207  0.0161 -0.0631 -1.3015
16300TIP3    H270392   2.605   6.578   0.290 -0.7741  0.3664  0.0489
16301TIP3   OH270393   4.111   5.344  14.251 -0.0347 -0.0829  0.4701
16301TIP3    H170394   4.032   5.290  14.259  0.3874 -0.7133  0.4150
16301TIP3    H270395   4.181   5.289  14.286  0.3769  0.4834  0.5337
16302TIP3   OH270396   6.779   2.065  14.057 -0.3352  0.2362  0.0261
16302TIP3    H170397   6.694   2.082  14.096 -0.3526  1.7025 -0.6346
16302TIP3    H270398   6.763   2.070  13.962  0.4065  0.0901 -0.1086
16303TIP3   OH270399   3.372   4.025   0.091  0.5753 -0.0735  0.4326
16303TIP3    H170400   3.314   3.965   0.044 -0.3490 -0.8562  2.5082
16303TIP3    H270401   3.457   3.980   0.090  0.3698 -0.4660  0.2185
16304TIP3   OH270402   1.794   4.689  17.225  0.9776 -0.6072  0.0505
16304TIP3    H170403   1.749   4.684  17.141  0.0685 -0.8377  0.5370
16304TIP3    H270404   1.849   4.611  17.228 -0.1066 -1.3708  0.2947
16305TIP3   OH270405   6.403   0.455  16.169  0.2813  0.0440  0.1098
16305TIP3    H170406   6.440   0.377  16.210  0.4687  0.3226  0.4796
16305TIP3    H270407   6.459   0.527  16.201 -0.6680  0.4899  0.7860
16306TIP3   OH270408   4.365   3.520   2.217  0.2817  0.5514  0.7729
16306TIP3    H170409   4.366   3.613   2.236 -0.2377  0.5683  0.7384
16306TIP3    H270410   4.411   3.512   2.133  0.4423  0.7561  0.8417
16307TIP3   OH270411   3.342   1.853  11.889 -0.1409  0.1410 -0.2457
16307TIP3    H170412   3.387   1.937  11.898  1.4036 -0.6676 -0.2787
16307TIP3    H270413   3.286   1.864  11.812 -0.5246  1.3878  0.2027
16308TIP3   OH270414   5.757   0.397   0.913 -0.2503 -0.1974 -0.9500
16308TIP3    H170415   5.720   0.469   0.964 -0.9360 -1.6163  0.6108
16308TIP3    H270416   5.701   0.391   0.836 -1.7265 -0.6407  0.1252
16309TIP3   OH270417   3.800   0.242  16.613  0.0347 -0.4421 -0.3262
16309TIP3    H170418   3.822   0.209  16.700  0.4419 -0.8398 -0.5753
16309TIP3    H270419   3.712   0.209  16.596  0.0865 -0.6443 -0.1999
16310TIP3   OH270420   6.358   2.465  13.634  0.6021 -0.2150  0.2032
16310TIP3    H170421   6.376   2.385  13.684 -1.9117  0.0132  1.5482
16310TIP3    H270422   6.265   2.484  13.651  0.7175  2.0440 -1.4506
16311TIP3   OH270423   3.059   5.450   0.942  0.3051 -0.8187 -0.3491
16311TIP3    H170424   3.072   5.359   0.968 -0.5611 -0.4875  1.3179
16311TIP3    H270425   2.965   5.460   0.933  0.4263 -0.2163 -1.0425
16312TIP3   OH270426   1.610   0.987  13.807  0.2560  0.0762 -0.0810
16312TIP3    H170427   1.662   0.930  13.750  1.8996  3.0399 -1.7302
16312TIP3    H270428   1.544   1.025  13.749 -1.1817 -0.5634  1.1094
16313TIP3   OH270429   2.378   5.830  13.662  0.3652  0.3009 -0.5777
16313TIP3    H170430   2.452   5.781  13.625  0.6454 -0.7294  1.2701
16313TIP3    H270431   2.301   5.779  13.640  0.4383  0.1738 -0.5387
16314TIP3   OH270432   5.135   6.517  11.108  0.1928  0.5950  0.3038
16314TIP3    H170433   5.075   6.487  11.040  1.1241 -2.8592  0.9535
16314TIP3    H270434   5.210   6.551  11.059  0.9673 -2.0931 -0.4554
16315TIP3   OH270435   5.262   3.838   0.554  0.6693 -0.1319 -0.7505
16315TIP3    H170436   5.245   3.745   0.539  0.0784 -0.5894  2.3833
16315TIP3    H270437   5.354   3.849   0.532  0.9285 -1.6154 -0.4628
16316TIP3   OH270438   6.333   3.284  14.101 -0.1690 -0.2199  0.2332
16316TIP3    H170439   6.329   3.376  14.073  0.6981 -0.5589 -1.0609
16316TIP3    H270440   6.426   3.267  14.115 -0.3151 -0.9322  0.3511
16317TIP3   OH270441   0.898   1.710  11.574 -0.1373  0.0897 -0.7300
16317TIP3    H170442   0.961   1.765  11.619 -1.1528 -1.2271  2.4540
16317TIP3    H270443   0.814   1.732  11.615 -1.0397 -1.4480 -1.7174
16318TIP3   OH270444   4.283   6.203  15.318  0.1004  0.1627  0.6465
16318TIP3    H170445   4.297   6.168  15.230 -0.3103  0.4399  0.4657
16318TIP3    H270446   4.301   6.297  15.309  0.1559  0.1744  0.8823
16319TIP3   OH270447   0.730   4.402  11.837  0.2983  0.8500 -0.4165
16319TIP3    H170448   0.683   4.438  11.762  0.2431  0.6116 -0.4958
16319TIP3    H270449   0.823   4.416  11.816  0.3707 -0.9455 -1.4152
16320TIP3   OH270450   0.875   0.226   3.664  0.3816  0.1258 -0.0821
16320TIP3    H170451   0.919   0.222   3.748 -0.2099  1.7459  0.3191
16320TIP3    H270452   0.837   0.313   3.661  0.0036 -0.0834 -1.8337
16321TIP3   OH270453   3.908   5.087  15.130 -0.4027 -0.1156  0.2584
16321TIP3    H170454   3.942   5.053  15.213 -2.1458 -0.8579  0.6952
16321TIP3    H270455   3.842   5.152  15.155 -0.6360 -0.0370 -0.5436
16322TIP3   OH270456   1.768   0.294   6.058  0.3138  0.2114  0.1383
16322TIP3    H170457   1.851   0.258   6.089  1.2584  0.3625 -2.0799
16322TIP3    H270458   1.728   0.222   6.010 -0.4442  0.4081  0.4740
16323TIP3   OH270459   1.933   3.624   1.931 -0.4447  0.1819  0.2193
16323TIP3    H170460   1.926   3.543   1.980 -0.0924  0.4782  0.7640
16323TIP3    H270461   1.844   3.642   1.900 -0.3772 -0.8133 -0.5609
16324TIP3   OH270462   0.801   0.128  17.246  0.8676 -0.4859  0.3210
16324TIP3    H170463   0.732   0.158  17.305 -0.8024  0.2648 -1.9691
16324TIP3    H270464   0.789   0.034  17.240  2.3085 -0.8685  2.7135
16325TIP3   OH270465   2.374   5.986   1.998  0.0621  0.1429 -0.4633
16325TIP3    H170466   2.341   6.005   2.086 -0.9780 -2.5061 -0.2125
16325TIP3    H270467   2.466   6.011   2.001 -0.2858  1.3226  0.9844
16326TIP3   OH270468   3.160   1.025  15.605 -0.4694  0.6724 -0.1865
16326TIP3    H170469   3.226   0.969  15.647 -2.6610 -0.1157  2.3480
16326TIP3    H270470   3.132   1.085  15.674 -2.1911  1.2009 -1.3161
16327TIP3   OH270471   5.837   3.063  10.921 -0.8630  0.3125  0.3487
16327TIP3    H170472   5.929   3.089  10.923 -1.2007  1.6235 -0.3747
16327TIP3    H270473   5.790   3.139  10.957 -1.8217  0.4891 -1.2300
16328TIP3   OH270474   6.336   4.230   2.697 -0.0927  0.3797  0.1252
16328TIP3    H170475   6.408   4.187   2.743 -0.3858  0.8378  1.0282
16328TIP3    H270476   6.353   4.323   2.709 -0.5717  0.4925 -0.0718
16329TIP3   OH270477   4.021   0.779  11.216 -0.6339  0.4193  0.1918
16329TIP3    H170478   4.091   0.844  11.222 -1.5394  1.4086  0.3586
16329TIP3    H270479   3.973   0.804  11.138 -0.4560 -0.6046 -0.2420
16330TIP3   OH270480   2.073   0.809   1.313  0.0745  0.4426 -0.4366
16330TIP3    H170481   2.152   0.761   1.286  0.6916  1.3253 -0.2416
16330TIP3    H270482   2.090   0.834   1.404 -0.2067  1.1005 -0.5657
16331TIP3   OH270483   2.611   6.127   5.268  0.1135 -0.0193 -0.0444
16331TIP3    H170484   2.643   6.202   5.218 -1.4944  0.9263  0.3131
16331TIP3    H270485   2.563   6.074   5.204  0.8680 -0.5275 -0.1991
16332TIP3   OH270486   0.442   1.039   3.272 -0.3272  0.0346 -0.1403
16332TIP3    H170487   0.362   1.021   3.321  1.1524  1.5820  2.9752
16332TIP3    H270488   0.426   1.123   3.229 -0.2982  0.4719  0.6958
16333TIP3   OH270489   1.395   0.540  16.205 -0.1299  0.1040 -0.2092
16333TIP3    H170490   1.462   0.488  16.249  0.9273 -0.1515 -2.0860
16333TIP3    H270491   1.335   0.475  16.168  0.6479  0.2255 -1.7084
16334TIP3   OH270492   3.414   3.886  16.739  0.2690  0.2239  0.1672
16334TIP3    H170493   3.381   3.882  16.649  1.9714 -2.7397 -0.3807
16334TIP3    H270494   3.342   3.850  16.792 -0.7676  2.0519  0.0223
16335TIP3   OH270495   5.032   6.105   6.609  0.0410 -0.1197 -0.9446
16335TIP3    H170496   4.945   6.134   6.637 -0.1555 -0.6502 -1.0076
16335TIP3    H270497   5.022   6.011   6.593  0.7161 -0.2511 -0.5941
16336TIP3   OH270498   2.343   5.334   3.081  0.3020 -0.0237 -0.2971
16336TIP3    H170499   2.375   5.251   3.118 -1.7216  0.2368  2.1194
16336TIP3    H270500   2.400   5.401   3.118  1.0875 -0.1627 -1.2089
16337TIP3   OH270501   3.099   4.436  11.178 -0.3599  0.2899  0.8831
16337TIP3    H170502   3.085   4.398  11.092 -0.5435  2.2537  0.0085
16337TIP3    H270503   3.022   4.490  11.193  1.5253  3.2253  0.4264
16338TIP3   OH270504   2.419   2.381   5.918  0.4864  0.9791 -0.0506
16338TIP3    H170505   2.483   2.434   5.964  1.0400 -0.4432  0.8656
16338TIP3    H270506   2.396   2.312   5.980 -1.9717  1.4845 -0.3590
16339TIP3   OH270507   1.425   4.542   0.643  0.1992  0.4748 -0.0611
16339TIP3    H170508   1.446   4.605   0.711  0.4041  1.1279 -0.7206
16339TIP3    H270509   1.508   4.498   0.624  0.4231  1.1911 -0.7848
16340TIP3   OH270510   1.846   1.809   7.061  0.3227  0.6404 -0.3213
16340TIP3    H170511   1.884   1.869   6.996 -1.2684  1.7541 -0.2536
16340TIP3    H270512   1.772   1.769   7.016 -0.1102  0.5853  0.4404
16341TIP3   OH270513   2.546   5.321  16.236  0.3087 -0.5667  0.5649
16341TIP3    H170514   2.593   5.260  16.180  0.3379 -0.4405  0.4535
16341TIP3    H270515   2.614   5.373  16.278  0.2408  0.1426 -0.1893
16342TIP3   OH270516   4.250   5.819  16.937 -0.1067 -0.4529  0.0429
16342TIP3    H170517   4.196   5.897  16.952  0.2208  0.0083 -1.1276
16342TIP3    H270518   4.205   5.772  16.867  1.6183  0.5342 -1.7719
16343TIP3   OH270519   5.061   5.631  17.286  0.5423 -0.0296 -0.2665
16343TIP3    H170520   5.128   5.585  17.234  0.9052 -0.6278  0.7205
16343TIP3    H270521   5.032   5.566  17.350 -0.1112  0.6201  0.1016
16344TIP3   OH270522   1.466   2.569   2.066  0.0438 -0.0444  0.2035
16344TIP3    H170523   1.503   2.586   2.153  1.1651 -1.0379 -0.0595
16344TIP3    H270524   1.533   2.601   2.005 -0.2465 -0.3597 -0.2854
16345TIP3   OH270525   4.257   0.864   0.613  0.0040 -0.1490 -0.3154
16345TIP3    H170526   4.322   0.850   0.682  0.6412 -2.1729 -1.3072
16345TIP3    H270527   4.308   0.882   0.534 -0.5885 -2.8362 -1.3423
16346TIP3   OH270528   1.888   1.097  14.796  0.3629 -0.4115  0.5182
16346TIP3    H170529   1.957   1.139  14.745  0.8435 -0.7140  0.9155
16346TIP3    H270530   1.860   1.164  14.859 -1.6189  0.6489 -1.4227
16347TIP3   OH270531   6.185   4.397  16.624 -0.0822 -0.0674 -0.2334
16347TIP3    H170532   6.152   4.465  16.683  2.0879  0.5988  0.2250
16347TIP3    H270533   6.184   4.317  16.676  0.0906  0.1668  0.1283
16348TIP3   OH270534   2.038   3.166  12.510 -0.0185  0.3210 -0.5501
16348TIP3    H170535   2.062   3.194  12.422 -1.9043  0.8925 -0.8991
16348TIP3    H270536   2.113   3.192  12.564  1.1571 -0.0494 -1.9722
16349TIP3   OH270537   4.420   3.949  14.422  0.6376 -0.4833  0.1983
16349TIP3    H170538   4.497   3.903  14.454  0.3426 -0.6937  0.6070
16349TIP3    H270539   4.399   4.013  14.489 -0.1444 -1.1136  0.5701
16350TIP3   OH270540   2.318   4.942  15.032  0.0957 -0.0636 -0.0237
16350TIP3    H170541   2.398   4.932  15.084  0.2391  0.2789 -0.1775
16350TIP3    H270542   2.263   5.000  15.084  0.3239  0.4495 -0.3505
16351TIP3   OH270543   0.823   5.443   0.634  0.2264  0.1463  0.3522
16351TIP3    H170544   0.903   5.494   0.621 -1.0243  1.6630 -1.5702
16351TIP3    H270545   0.766   5.501   0.685 -0.3229 -0.2586  0.1983
16352TIP3   OH270546   2.857   0.595  15.793  0.1590 -0.2109  0.3557
16352TIP3    H170547   2.778   0.544  15.774  0.9561 -1.5271  0.4501
16352TIP3    H270548   2.929   0.539  15.762  0.9706  1.6633 -1.2008
16353TIP3   OH270549   1.521   3.712   2.161 -0.1046 -0.0473  0.0044
16353TIP3    H170550   1.615   3.695   2.173  0.2722  1.1407 -1.1016
16353TIP3    H270551   1.479   3.628   2.178  1.4893 -1.5098 -2.8810
16354TIP3   OH270552   0.553   2.143  11.427 -0.0246 -0.0883  0.0321
16354TIP3    H170553   0.622   2.199  11.390  1.5568 -1.2810  1.1350
16354TIP3    H270554   0.560   2.155  11.521  0.0665 -1.8630  0.2524
16355TIP3   OH270555   2.836   2.032   1.476  0.0294 -0.4750  0.1006
16355TIP3    H170556   2.807   2.053   1.387 -0.8972  2.1607  0.9910
16355TIP3    H270557   2.768   1.974   1.511  0.3215 -1.3957 -0.8257
16356TIP3   OH270558   4.393   3.230  10.892 -0.2619  0.8497  0.1162
16356TIP3    H170559   4.316   3.271  10.854 -0.7502  1.7661  1.9885
16356TIP3    H270560   4.426   3.296  10.955  1.7733  0.3000 -0.3325
16357TIP3   OH270561   4.543   4.374  16.284  0.2651  0.0926 -0.3727
16357TIP3    H170562   4.544   4.314  16.209 -0.2533 -0.1697 -0.1751
16357TIP3    H270563   4.547   4.461  16.246  2.0307 -0.0935 -0.6257
16358TIP3   OH270564   4.683   0.144  17.037 -0.2148  0.3986 -0.7165
16358TIP3    H170565   4.720   0.122  16.951  0.6109 -0.2034 -0.2085
16358TIP3    H270566   4.589   0.149  17.021 -0.0549  0.4877 -1.7026
16359TIP3   OH270567   4.506   2.796   3.337  0.1554  0.2710 -0.6352
16359TIP3    H170568   4.538   2.718   3.291 -1.1200  0.4007 -1.7724
16359TIP3    H270569   4.411   2.792   3.327 -0.1711  0.2471  2.1353
16360TIP3   OH270570   2.255   5.334  15.785 -0.0828  0.1220  0.0438
16360TIP3    H170571   2.270   5.243  15.761 -2.3655 -0.4683  0.7587
16360TIP3    H270572   2.243   5.380  15.702  0.2485 -0.3790 -0.2836
16361TIP3   OH270573   4.838   0.925  13.169  1.0159  0.2637  0.1494
16361TIP3    H170574   4.861   0.862  13.237  0.5765  0.6088  0.6244
16361TIP3    H270575   4.921   0.960  13.138  1.3119 -1.1475 -0.6881
16362TIP3   OH270576   5.345   5.846   6.418  0.2260  0.3371 -0.3768
16362TIP3    H170577   5.309   5.925   6.458 -0.6922 -1.0846  1.7275
16362TIP3    H270578   5.289   5.829   6.342 -1.3086  0.1887  0.7671
16363TIP3   OH270579   0.193   2.528  12.027 -0.3082 -0.1158  0.0285
16363TIP3    H170580   0.161   2.522  11.937 -1.0428  0.3790  0.2510
16363TIP3    H270581   0.145   2.460  12.074  1.0264 -1.2527 -0.2166
16364TIP3   OH270582   5.854   6.138  17.249 -0.2271  0.1785 -0.6124
16364TIP3    H170583   5.899   6.120  17.166  2.9005  1.9620  0.6084
16364TIP3    H270584   5.780   6.194  17.224  0.5128  0.4681 -2.2214
16365TIP3   OH270585   6.529   2.980  16.604  0.2698  0.5578  0.0108
16365TIP3    H170586   6.597   3.028  16.557  0.8715  0.3987  0.7028
16365TIP3    H270587   6.446   3.012  16.568  0.7422 -0.4262 -1.9958
16366TIP3   OH270588   4.931   3.348  17.229 -0.3067  0.1695 -0.1096
16366TIP3    H170589   5.021   3.380  17.222 -1.4312  3.3991 -0.7413
16366TIP3    H270590   4.931   3.265  17.183  2.1473  0.5947 -0.9295
16367TIP3   OH270591   3.892   4.666   4.712 -0.6118 -0.7682  0.1639
16367TIP3    H170592   3.894   4.757   4.682 -3.3135 -0.6772  0.1542
16367TIP3    H270593   3.905   4.614   4.632 -0.2578 -0.4238 -0.0046
16368TIP3   OH270594   2.359   5.676  16.858  0.7051  0.4773 -0.0397
16368TIP3    H170595   2.335   5.592  16.896 -0.0684 -0.0555 -1.6468
16368TIP3    H270596   2.454   5.670  16.846  0.8682  0.4308  1.2472
16369TIP3   OH270597   5.361   0.900   4.470 -0.0744  0.4616  0.1223
16369TIP3    H170598   5.270   0.892   4.501 -0.5680  1.4072 -1.0560
16369TIP3    H270599   5.380   0.816   4.429 -1.0231  0.8893 -1.2084
16370TIP3   OH270600   4.162   3.892   0.227  0.3163 -0.0749 -0.4996
16370TIP3    H170601   4.215   3.929   0.297  1.2378  0.1327 -1.2860
16370TIP3    H270602   4.104   3.829   0.270  0.5909  0.3494  0.4870
16371TIP3   OH270603   0.720   1.016   2.455  0.2759 -0.4025 -0.1116
16371TIP3    H170604   0.777   0.997   2.529  0.2748 -1.1866 -0.3085
16371TIP3    H270605   0.662   0.940   2.449 -1.3337  0.7412  0.5918
16372TIP3   OH270606   6.345   6.654  14.242  0.5675 -0.4314 -0.1897
16372TIP3    H170607   6.439   6.663  14.224  0.3534  1.1491 -0.5434
16372TIP3    H270608   6.333   6.560  14.258  2.7925 -0.2209  3.1727
16373TIP3   OH270609   5.752   6.718   0.904 -0.0816  0.2847 -0.2543
16373TIP3    H170610   5.727   6.810   0.912 -0.4457 -0.0286  3.0720
16373TIP3    H270611   5.848   6.718   0.910 -0.0898  0.4307 -0.1212
16374TIP3   OH270612   5.271   3.683  17.276 -0.0172  0.0414 -0.7062
16374TIP3    H170613   5.272   3.588  17.286 -0.7442  0.2460  1.4549
16374TIP3    H270614   5.232   3.716  17.357 -0.8839  2.1257 -1.9191
16375TIP3   OH270615   3.116   5.028  10.765  0.2550  0.3238  0.3255
16375TIP3    H170616   3.146   5.061  10.680 -3.5261 -0.0670 -1.2990
16375TIP3    H270617   3.062   4.952  10.743 -1.7255  0.8948  2.9899
16376TIP3   OH270618   5.943   4.470  14.820 -0.4045  0.4495 -0.1112
16376TIP3    H170619   6.037   4.454  14.824 -0.4850  0.1407  0.5449
16376TIP3    H270620   5.927   4.539  14.884 -1.2717 -2.5436  3.0181
16377TIP3   OH270621   6.103   5.931  15.232 -0.2911 -0.3553 -0.1265
16377TIP3    H170622   6.173   5.943  15.296  0.7635 -0.0375 -1.2982
16377TIP3    H270623   6.040   6.000  15.251 -0.5033 -0.9105  1.2122
16378TIP3   OH270624   1.769   2.057  13.586  0.1220 -0.2759 -0.0604
16378TIP3    H170625   1.828   2.084  13.657  1.0386 -0.7701 -0.6325
16378TIP3    H270626   1.759   1.963  13.597 -1.1316 -0.0963  0.4523
16379TIP3   OH270627   2.573   1.143  13.695  0.1002 -0.2118  0.2141
16379TIP3    H170628   2.548   1.222  13.648  1.4328  0.4317  0.5517
16379TIP3    H270629   2.660   1.122  13.660 -0.4340 -1.7968 -0.2117
16380TIP3   OH270630   3.496   5.342  16.548  0.1467  0.7532  0.7560
16380TIP3    H170631   3.407   5.368  16.573 -0.7827  0.0228 -1.6242
16380TIP3    H270632   3.514   5.265  16.601 -1.7220 -0.6778 -0.6101
16381TIP3   OH270633   2.321   2.578  13.260  0.8204  0.3332 -0.5970
16381TIP3    H170634   2.307   2.485  13.249 -0.5908  0.0619  2.8735
16381TIP3    H270635   2.409   2.585  13.299  0.8699  0.4537 -0.7274
16382TIP3   OH270636   3.011   3.666   0.884  0.1667  0.2095 -0.1105
16382TIP3    H170637   3.021   3.744   0.939 -1.6799 -0.3241  1.0340
16382TIP3    H270638   2.938   3.687   0.826 -0.0664 -0.5037 -0.0831
16383TIP3   OH270639   3.931   0.570  10.966  0.4781 -0.3810  0.6990
16383TIP3    H170640   4.015   0.595  10.928 -0.7901 -1.1348 -2.8679
16383TIP3    H270641   3.908   0.488  10.921 -2.5065  0.2345  0.9758
16384TIP3   OH270642   3.744   1.454   1.444 -0.1492  0.0113 -0.5309
16384TIP3    H170643   3.795   1.402   1.507  1.2962  0.6679 -1.1305
16384TIP3    H270644   3.760   1.545   1.470  1.1582  0.3267 -2.3334
16385TIP3   OH270645   5.826   2.055   2.958  0.3374  0.7493 -0.6378
16385TIP3    H170646   5.789   1.993   2.896  2.2800  0.7085 -1.7862
16385TIP3    H270647   5.864   2.124   2.903  0.8877  1.3968  0.5374
16386TIP3   OH270648   1.218   3.973  15.676 -0.1580 -0.4390 -0.5728
16386TIP3    H170649   1.231   4.006  15.587  0.7025 -1.0348 -0.6696
16386TIP3    H270650   1.168   4.042  15.719  1.5478  0.9780 -0.7977
16387TIP3   OH270651   1.661   1.530   4.552 -0.2026  0.6122  0.2989
16387TIP3    H170652   1.588   1.477   4.585 -1.2142  2.2523  0.7824
16387TIP3    H270653   1.652   1.527   4.457  0.3106 -0.8343  0.2848
16388TIP3   OH270654   5.221   3.631   1.699 -0.6404  0.6837 -0.2661
16388TIP3    H170655   5.264   3.708   1.661  1.5771 -0.9558 -1.1334
16388TIP3    H270656   5.133   3.632   1.661  0.6561  0.6014 -3.3985
16389TIP3   OH270657   3.989   3.613   3.822  0.6312  1.2690 -0.3795
16389TIP3    H170658   3.992   3.629   3.728 -0.9272  1.5179 -0.3889
16389TIP3    H270659   3.910   3.561   3.836  1.0968  0.8403  0.7315
16390TIP3   OH270660   5.585   5.644  16.993  0.2103 -0.2894  0.2036
16390TIP3    H170661   5.595   5.740  16.995  1.5825 -0.4169 -0.4346
16390TIP3    H270662   5.498   5.631  16.956  0.2523  0.7082 -0.2779
16391TIP3   OH270663   0.602   1.821   4.249 -0.2514 -0.3595  0.2006
16391TIP3    H170664   0.610   1.725   4.252 -1.4654 -0.5479 -1.5752
16391TIP3    H270665   0.600   1.848   4.341  1.0152 -1.9514  0.7149
16392TIP3   OH270666   3.331   2.074  13.336  0.1704 -0.1608  0.0124
16392TIP3    H170667   3.276   2.149  13.309  0.0104 -0.4282 -0.4171
16392TIP3    H270668   3.289   2.041  13.415  1.5177  1.5766  1.4762
16393TIP3   OH270669   5.092   5.455  11.038 -0.3910  0.3270  0.2715
16393TIP3    H170670   5.115   5.416  10.954  2.1696 -0.3552  1.2312
16393TIP3    H270671   5.105   5.384  11.101 -0.0201  1.4949  1.5237
16394TIP3   OH270672   1.793   1.516  10.825 -0.0110  0.4036 -0.9091
16394TIP3    H170673   1.777   1.608  10.844  1.5101  0.5365 -0.1784
16394TIP3    H270674   1.861   1.490  10.887 -2.2306 -1.9143  0.6151
16395TIP3   OH270675   4.913   0.159  16.137  0.2341  0.4041 -0.0509
16395TIP3    H170676   4.896   0.123  16.225 -1.0486  0.9673 -0.0598
16395TIP3    H270677   4.973   0.097  16.098 -3.2390 -2.7364 -0.6919
16396TIP3   OH270678   2.459   3.674  15.205  0.1080 -0.2113 -0.0207
16396TIP3    H170679   2.456   3.635  15.293 -1.4061  0.5227  0.2729
16396TIP3    H270680   2.381   3.640  15.161  1.2251 -1.1299 -1.3393
16397TIP3   OH270681   5.473   0.274  12.599 -0.2099  0.3216 -0.6151
16397TIP3    H170682   5.523   0.196  12.622 -1.7306 -0.4543  0.1933
16397TIP3    H270683   5.406   0.280  12.667 -0.2295  2.2370 -0.7788
16398TIP3   OH270684   1.124   3.004   5.474 -0.1034  0.3928  0.1935
16398TIP3    H170685   1.143   2.913   5.497  0.9541  0.6944  0.5330
16398TIP3    H270686   1.142   3.010   5.381  1.4245  0.6499  0.4912
16399TIP3   OH270687   0.307   3.492   1.509 -0.0092 -0.7885  0.4975
16399TIP3    H170688   0.326   3.451   1.424 -1.0086 -1.9817  0.8316
16399TIP3    H270689   0.309   3.419   1.571  0.0035 -0.0299  1.3881
16400TIP3   OH270690   1.719   6.111  15.941 -0.0147  0.4588  0.4158
16400TIP3    H170691   1.628   6.101  15.967 -0.1488  0.6835  0.0541
16400TIP3    H270692   1.726   6.063  15.858  0.1144  0.7034  0.2817
16401TIP3   OH270693   2.079   6.045   3.503  0.0102  1.0573  0.6277
16401TIP3    H170694   2.073   6.121   3.560  0.4049  2.0563 -0.6494
16401TIP3    H270695   2.061   6.079   3.415  0.6479 -0.2374 -0.0180
16402TIP3   OH270696   1.345   5.059   0.302 -0.6000  0.1858  0.1759
16402TIP3    H170697   1.432   5.087   0.331 -0.5044  1.4258 -1.2151
16402TIP3    H270698   1.300   5.031   0.382  1.2148 -0.8695  0.8518
16403TIP3   OH270699   6.304   6.113   5.227 -0.4402  0.4234  0.4523
16403TIP3    H170700   6.279   6.192   5.275 -1.6063  0.7322 -0.6649
16403TIP3    H270701   6.222   6.068   5.208 -0.1276  0.9375 -2.3517
16404TIP3   OH270702   4.371   2.492  11.041 -0.4353  0.8346 -0.2746
16404TIP3    H170703   4.297   2.527  10.993 -0.5743  0.6430 -0.1972
16404TIP3    H270704   4.371   2.399  11.022 -0.8583  0.6505  0.5829
16405TIP3   OH270705   0.413   4.976  11.827 -0.2995 -0.4765  0.7435
16405TIP3    H170706   0.370   5.039  11.769 -0.2675 -0.2280  0.9927
16405TIP3    H270707   0.476   5.027  11.876  0.6424 -0.9243  0.0212
16406TIP3   OH270708   1.649   1.044  14.602  0.0660 -0.0175  0.4037
16406TIP3    H170709   1.713   1.068  14.669  1.2155 -0.7892 -0.4083
16406TIP3    H270710   1.664   1.106  14.531  0.5471 -0.8071 -0.1802
16407TIP3   OH270711   4.485   4.082   5.240  0.1669 -0.1793 -0.5075
16407TIP3    H170712   4.398   4.045   5.225  1.2672 -2.6151 -1.0773
16407TIP3    H270713   4.476   4.174   5.217 -2.5723 -0.1158  0.6440
16408TIP3   OH270714   1.688   0.659  11.952  0.2768 -0.0457  0.4929
16408TIP3    H170715   1.708   0.624  12.038  0.7960 -1.7517 -0.3028
16408TIP3    H270716   1.739   0.605  11.891  1.1437  2.0927 -0.7804
16409TIP3   OH270717   4.607   5.529   3.471  0.0351  0.2821  0.1993
16409TIP3    H170718   4.668   5.601   3.489 -0.7242  0.8599  0.5103
16409TIP3    H270719   4.526   5.573   3.445 -0.5018 -0.4561  0.6050
16410TIP3   OH270720   3.214   1.203  13.788 -0.2919 -0.6312  0.4279
16410TIP3    H170721   3.284   1.265  13.767  1.2017 -1.7440  1.9110
16410TIP3    H270722   3.185   1.170  13.703  1.1744 -0.3082 -0.2195
16411TIP3   OH270723   5.915   3.859   3.714  0.2066 -0.0697 -0.1960
16411TIP3    H170724   5.942   3.950   3.700 -0.5123  0.5613  2.1955
16411TIP3    H270725   5.980   3.823   3.774 -0.7288 -0.4412  0.6228
16412TIP3   OH270726   2.784   4.518  11.402 -0.7835 -0.2286 -0.1064
16412TIP3    H170727   2.734   4.436  11.409 -1.5330  0.1622 -0.8200
16412TIP3    H270728   2.807   4.524  11.309 -0.2601  0.0936  0.0454
16413TIP3   OH270729   6.444   2.636  14.406 -0.1137  0.9756  0.2010
16413TIP3    H170730   6.388   2.657  14.481  1.1464  2.9733  0.6041
16413TIP3    H270731   6.525   2.604  14.445  0.0078  0.6218 -0.3445
16414TIP3   OH270732   1.985   5.966  14.634 -0.7100 -0.6622 -0.1678
16414TIP3    H170733   2.057   6.007  14.586  0.1657  1.0182  2.4609
16414TIP3    H270734   1.933   6.039  14.666 -1.1236 -1.7225  1.6398
16415TIP3   OH270735   0.506   2.403   1.356 -0.0042  0.1691 -0.0573
16415TIP3    H170736   0.515   2.398   1.451  0.2942 -1.2036 -0.1548
16415TIP3    H270737   0.578   2.460   1.328  0.5657 -0.3085  0.4348
16416TIP3   OH270738   5.366   5.273   4.595  0.1019  0.4704 -0.0912
16416TIP3    H170739   5.299   5.282   4.527  1.2912 -1.7085 -1.6344
16416TIP3    H270740   5.359   5.182   4.623  0.9716  0.8195  1.2899
16417TIP3   OH270741   3.135   1.000   3.560 -0.5202 -0.1643  0.4488
16417TIP3    H170742   3.194   1.011   3.486 -1.8237 -1.0507 -0.7634
16417TIP3    H270743   3.069   1.069   3.548 -1.1414 -0.7685  0.3752
16418TIP3   OH270744   0.595   4.511  16.615 -0.0823 -0.2149  0.1686
16418TIP3    H170745   0.509   4.518  16.573  0.6165  0.8999 -1.1111
16418TIP3    H270746   0.597   4.422  16.650 -1.4568 -0.5106 -0.4568
16419TIP3   OH270747   3.522   3.859   1.832 -0.0327 -0.4555 -0.4347
16419TIP3    H170748   3.576   3.863   1.753 -0.1055  0.0896 -0.4564
16419TIP3    H270749   3.433   3.843   1.800 -0.8092  3.9160 -0.7754
16420TIP3   OH270750   2.500   6.487   4.438 -0.2410 -0.4865  0.0665
16420TIP3    H170751   2.551   6.562   4.407  2.1949 -2.2021 -0.2040
16420TIP3    H270752   2.451   6.521   4.513 -2.6796  2.5289 -2.7774
16421TIP3   OH270753   4.539   3.246  13.569  0.1689  0.0137  0.3598
16421TIP3    H170754   4.572   3.156  13.563  0.9143  0.2483  0.9422
16421TIP3    H270755   4.592   3.295  13.506 -1.6059 -0.3342 -1.4861
16422TIP3   OH270756   0.573   0.256  13.475  0.3636 -0.2145 -0.3098
16422TIP3    H170757   0.639   0.186  13.470  0.9638  0.4522 -1.9200
16422TIP3    H270758   0.500   0.223  13.422  0.8520  0.5756 -1.4970
16423TIP3   OH270759   2.957   4.730   3.302 -0.0965 -0.0465  0.8006
16423TIP3    H170760   2.976   4.754   3.212 -2.5683  1.6249  0.6930
16423TIP3    H270761   2.923   4.810   3.342 -2.8187 -1.7807  2.1074
16424TIP3   OH270762   5.763   4.792  13.354 -0.6695 -0.1760  0.0701
16424TIP3    H170763   5.724   4.788  13.441  0.9608  1.3241  0.9252
16424TIP3    H270764   5.851   4.755  13.365 -0.9800 -1.3669 -1.2862
16425TIP3   OH270765   3.017   6.495   4.025  0.3214  0.3619 -0.0621
16425TIP3    H170766   3.086   6.561   4.031  1.4652 -1.0111  2.8028
16425TIP3    H270767   2.950   6.525   4.088 -1.0028  0.8804 -1.6934
16426TIP3   OH270768   6.618   6.604   4.230  0.2330 -0.2387 -0.6656
16426TIP3    H170769   6.668   6.626   4.308  0.6279 -0.8417 -0.7460
16426TIP3    H270770   6.628   6.680   4.173 -1.4876  0.9703  0.5595
16427TIP3   OH270771   3.607   4.128  15.047 -0.4769 -0.3958  0.1873
16427TIP3    H170772   3.514   4.128  15.071 -0.3711  1.8668  0.7552
16427TIP3    H270773   3.631   4.221  15.046  1.7797 -0.9537  0.0349
16428TIP3   OH270774   1.176   5.607  12.809  0.0244 -0.3195  0.3103
16428TIP3    H170775   1.262   5.614  12.849  0.0972 -0.2539  0.1400
16428TIP3    H270776   1.190   5.559  12.727 -0.5116 -2.8189  1.6179
16429TIP3   OH270777   2.361   3.359  10.764 -0.0356  0.1762  0.2690
16429TIP3    H170778   2.330   3.389  10.849  0.1365  0.7754  0.1187
16429TIP3    H270779   2.383   3.439  10.716 -0.0985 -0.1604 -0.3264
16430TIP3   OH270780   2.612   5.134   5.632  0.3576 -0.4727 -0.1613
16430TIP3    H170781   2.532   5.185   5.638 -0.3024 -1.2191 -2.1348
16430TIP3    H270782   2.673   5.189   5.583  0.6407 -0.3978  0.2712
16431TIP3   OH270783   1.164   2.483  11.845  0.0742  0.3285  0.5948
16431TIP3    H170784   1.253   2.490  11.811 -0.3012 -1.5289 -0.8783
16431TIP3    H270785   1.109   2.486  11.767 -1.0300 -0.3847  1.3396
16432TIP3   OH270786   2.566   6.763   4.371 -0.5385  0.0648 -0.1449
16432TIP3    H170787   2.586   6.808   4.289 -0.3348 -2.6424 -1.6654
16432TIP3    H270788   2.620   6.808   4.437  0.1938  1.5422 -1.6995
16433TIP3   OH270789   5.960   3.663  15.186 -0.2494 -0.0927  0.4897
16433TIP3    H170790   6.034   3.708  15.146 -1.3252  1.3165  0.0295
16433TIP3    H270791   5.983   3.570  15.183  1.1540  0.2752 -0.3166
16434TIP3   OH270792   0.397   4.699  16.276  0.1648 -0.1129  0.2537
16434TIP3    H170793   0.478   4.665  16.237 -0.3477  0.6645 -1.5453
16434TIP3    H270794   0.426   4.764  16.339  0.9521  0.2600 -0.4807
16435TIP3   OH270795   5.894   4.291  12.393  0.0055 -0.1853  0.2036
16435TIP3    H170796   5.942   4.265  12.314 -2.1036  1.4580 -1.6842
16435TIP3    H270797   5.962   4.314  12.456  1.7329  1.0693 -2.0266
16436TIP3   OH270798   1.012   1.759   5.183 -0.6147  0.1006 -0.4276
16436TIP3    H170799   1.018   1.711   5.266  0.3140 -1.4428 -1.3792
16436TIP3    H270800   1.036   1.849   5.207 -1.8467  0.0077  1.2643
16437TIP3   OH270801   6.053   5.310   4.675  0.7879 -0.2235  0.0787
16437TIP3    H170802   6.135   5.334   4.631  0.7016 -0.2054 -0.0703
16437TIP3    H270803   5.998   5.273   4.606  0.5120  0.1514  0.0940
16438TIP3   OH270804   5.088   2.839   4.199  0.0925 -0.8906  0.3123
16438TIP3    H170805   5.151   2.814   4.266  0.8630  0.2314  0.0282
16438TIP3    H270806   5.139   2.844   4.118 -0.6090 -1.1733 -0.1584
16439TIP3   OH270807   4.644   1.874   3.641  0.0396  0.4242 -0.8158
16439TIP3    H170808   4.590   1.811   3.690  0.9856 -0.2772 -0.6658
16439TIP3    H270809   4.653   1.835   3.554 -0.0054  0.7197 -0.9511
16440TIP3   OH270810   1.891   3.027  10.949  0.8708  0.3616  0.0058
16440TIP3    H170811   1.935   3.105  10.918  1.4037 -0.5982 -1.7396
16440TIP3    H270812   1.962   2.967  10.975  0.4716  0.4651  1.3907
16441TIP3   OH270813   0.929   4.721  17.188 -0.1411  0.1792  0.1376
16441TIP3    H170814   0.983   4.792  17.155 -0.9195  0.8302  0.2342
16441TIP3    H270815   0.934   4.653  17.120  0.1142  0.5787 -0.2481
16442TIP3   OH270816   5.170   4.552   0.762  0.3385  0.2574  0.0019
16442TIP3    H170817   5.209   4.602   0.834 -0.0517 -0.7841  0.9383
16442TIP3    H270818   5.242   4.543   0.699  0.8578  0.6435  0.5276
16443TIP3   OH270819   1.340   6.380  13.053 -0.1424 -0.1224  0.1020
16443TIP3    H170820   1.302   6.387  13.141 -1.0803 -1.8773 -0.1549
16443TIP3    H270821   1.265   6.372  12.995  0.4661  1.2652 -0.9033
16444TIP3   OH270822   4.152   6.177   3.708  0.4890 -0.2772  0.0367
16444TIP3    H170823   4.081   6.162   3.770  0.7807  0.8209  0.6422
16444TIP3    H270824   4.117   6.242   3.647  1.0742  0.5152  0.5312
16445TIP3   OH270825   6.378   1.643  14.854  0.1030  0.3362  0.2124
16445TIP3    H170826   6.303   1.669  14.800  0.9350  0.4590 -0.9070
16445TIP3    H270827   6.362   1.550  14.873  0.5625 -0.1044 -1.5245
16446TIP3   OH270828   0.917   0.102  13.873  0.0257  0.3715  1.1680
16446TIP3    H170829   0.825   0.087  13.852  0.1174  0.2494  0.8559
16446TIP3    H270830   0.915   0.144  13.959 -0.3710  1.5032  0.6114
16447TIP3   OH270831   0.032   0.725  14.970 -0.0384 -0.2921  0.4320
16447TIP3    H170832   0.031   0.631  14.955  0.4534  0.0797 -2.1860
16447TIP3    H270833   0.031   0.735  15.065 -1.7360 -2.9112  0.7292
16448TIP3   OH270834   2.826   0.635   5.977  0.3816  0.4112 -0.5316
16448TIP3    H170835   2.797   0.704   5.917  0.4705 -0.1584 -1.2363
16448TIP3    H270836   2.864   0.682   6.051 -0.6288  1.1372 -0.4606
16449TIP3   OH270837   0.482   0.035  17.246 -0.1005 -0.7218 -0.2272
16449TIP3    H170838   0.534   0.091  17.303  0.2544 -1.1666 -0.1151
16449TIP3    H270839   0.391   0.062  17.262  0.0264 -0.5778  0.2584
16450TIP3   OH270840   2.046   0.449  16.936 -0.5926  0.2041 -0.0984
16450TIP3    H170841   2.121   0.442  16.995  0.9054 -1.5368 -2.1244
16450TIP3    H270842   1.978   0.491  16.988  1.6741  1.5353  1.8946
16451TIP3   OH270843   2.750   2.290   3.247 -0.6904 -0.0081  0.1108
16451TIP3    H170844   2.832   2.319   3.286 -1.6536 -0.0841  2.2708
16451TIP3    H270845   2.689   2.363   3.260 -0.2637  1.2396 -4.0605
16452TIP3   OH270846   3.786   1.605   4.117  0.1832 -0.6610 -0.1177
16452TIP3    H170847   3.819   1.637   4.201  1.6851 -0.8832 -0.5958
16452TIP3    H270848   3.700   1.568   4.138 -0.7047  1.7939  0.8012
16453TIP3   OH270849   1.474   4.721  12.621 -0.7540 -0.0330  0.0719
16453TIP3    H170850   1.475   4.632  12.654  0.4794 -0.1224 -0.1585
16453TIP3    H270851   1.411   4.720  12.549 -2.4504 -0.1532  1.5428
16454TIP3   OH270852   6.484   2.093   0.639  0.4024  0.0647 -0.4398
16454TIP3    H170853   6.412   2.104   0.577 -0.3071 -1.1587  0.1426
16454TIP3    H270854   6.550   2.044   0.592  0.6172  0.6854 -0.7908
16455TIP3   OH270855   0.378   6.254   2.400 -0.1840  0.3469 -0.7814
16455TIP3    H170856   0.467   6.283   2.381 -0.0905  0.3149 -0.3964
16455TIP3    H270857   0.368   6.174   2.348  1.0632 -1.3260  1.4755
16456TIP3   OH270858   5.986   6.036   4.090  0.1054  0.4112  0.4463
16456TIP3    H170859   5.902   5.995   4.108  0.4116  0.0519  1.1120
16456TIP3    H270860   6.050   5.975   4.127  0.6785  0.4854 -0.4121
16457TIP3   OH270861   2.025   3.185  16.708  0.0123  0.0966  0.2786
16457TIP3    H170862   1.939   3.207  16.671 -0.5491 -0.5669  1.1705
16457TIP3    H270863   2.009   3.106  16.759  1.3343 -0.4894 -0.2051
16458TIP3   OH270864   2.047   4.604  14.742 -0.6560 -0.0760  0.0523
16458TIP3    H170865   2.016   4.619  14.653  1.7698 -2.0457 -1.1938
16458TIP3    H270866   2.121   4.664  14.753  0.4339 -1.3683 -0.0803
16459TIP3   OH270867   5.309   6.426  15.073 -0.3139 -0.0586  0.1510
16459TIP3    H170868   5.260   6.493  15.025  0.4312  0.4976  0.1546
16459TIP3    H270869   5.299   6.451  15.165  2.1976  1.6369  0.0236
16460TIP3   OH270870   2.480   5.958   5.048 -0.2606 -0.1158  0.5177
16460TIP3    H170871   2.554   5.898   5.037 -0.5276 -0.4462  0.5194
16460TIP3    H270872   2.487   6.018   4.974  0.4156  0.2907  0.8979
16461TIP3   OH270873   4.427   2.652   5.345  0.4168 -0.2510  0.1570
16461TIP3    H170874   4.472   2.721   5.296 -1.9727  1.7604  0.6801
16461TIP3    H270875   4.334   2.671   5.334 -0.2431 -2.0020  2.2727
16462TIP3   OH270876   0.231   1.431  13.107 -0.5078  0.0498  0.2918
16462TIP3    H170877   0.309   1.486  13.096 -1.9689  2.1093  0.1463
16462TIP3    H270878   0.261   1.359  13.163  1.8787  0.0285 -0.9327
16463TIP3   OH270879   5.731   3.103  16.887 -0.0885  0.1498 -0.3285
16463TIP3    H170880   5.636   3.112  16.876 -0.1226  0.3699  0.1102
16463TIP3    H270881   5.764   3.086  16.799 -0.4180  1.2230 -0.6771
16464TIP3   OH270882   3.939   3.189   5.384 -0.0206  0.0499 -0.1603
16464TIP3    H170883   4.034   3.188   5.372  0.3904  0.7462  2.6461
16464TIP3    H270884   3.912   3.273   5.347  1.0300  1.6199  2.4948
16465TIP3   OH270885   6.637   3.271  14.781 -0.1268  0.9152 -0.7008
16465TIP3    H170886   6.590   3.342  14.737 -0.2979  1.6008  0.5514
16465TIP3    H270887   6.719   3.310  14.811 -0.4962  0.7636  0.5474
16466TIP3   OH270888   0.827   6.528  14.205 -0.3054 -0.2299  0.4807
16466TIP3    H170889   0.881   6.454  14.180 -0.7125 -0.6412  0.8252
16466TIP3    H270890   0.879   6.577  14.268  0.3024  0.2371 -0.3747
16467TIP3   OH270891   5.098   6.259  14.962 -0.2273  0.2043 -0.1984
16467TIP3    H170892   5.021   6.261  14.905  0.2905  0.1971 -0.9145
16467TIP3    H270893   5.166   6.218  14.908  0.3897  0.5770  0.2894
16468TIP3   OH270894   1.035   0.742  11.768 -0.3530 -0.5742  0.4733
16468TIP3    H170895   1.043   0.732  11.674 -1.3601 -0.1809  0.3410
16468TIP3    H270896   1.109   0.799  11.793  1.4023 -2.7111  0.2932
16469TIP3   OH270897   3.842   0.245   5.937 -0.3367  0.1245 -0.1501
16469TIP3    H170898   3.889   0.312   5.887  0.2444 -0.5561 -0.5216
16469TIP3    H270899   3.750   0.257   5.912 -0.2558  0.9079 -0.0655
16470TIP3   OH270900   5.812   4.672   0.906  0.3695  0.3155  0.0581
16470TIP3    H170901   5.780   4.668   0.816 -0.9198  1.3770  0.4470
16470TIP3    H270902   5.829   4.581   0.930  0.5839  0.0127 -1.2031
16471TIP3   OH270903   5.400   6.348   0.477 -0.0520  0.1039  0.4542
16471TIP3    H170904   5.389   6.328   0.570 -1.7631 -0.9791  0.0437
16471TIP3    H270905   5.348   6.427   0.463 -1.7834 -1.0981 -0.0592
16472TIP3   OH270906   0.448   4.925   2.466  0.3012  0.2071  0.1448
16472TIP3    H170907   0.521   4.954   2.521  0.2715  0.8544 -0.1480
16472TIP3    H270908   0.382   4.994   2.475 -0.1016 -0.1696  0.0757
16473TIP3   OH270909   3.569   1.031   0.735 -0.1469  0.3056 -0.0107
16473TIP3    H170910   3.645   1.067   0.781  0.1666  0.5912 -0.7482
16473TIP3    H270911   3.584   1.052   0.643 -1.6933  1.4122 -0.0377
16474TIP3   OH270912   1.828   2.682   3.974 -0.6522  0.3530  0.3102
16474TIP3    H170913   1.764   2.722   3.915 -0.5847 -0.5507 -0.3916
16474TIP3    H270914   1.819   2.731   4.056  0.2515  2.5345 -0.8817
16475TIP3   OH270915   6.688   0.465  13.589  0.1106 -0.2308  0.8688
16475TIP3    H170916   6.756   0.483  13.653  0.2205 -0.5614  0.8467
16475TIP3    H270917   6.707   0.523  13.515 -0.4777  0.7299  1.4593
16476TIP3   OH270918   6.551   0.184  16.809 -0.2902  0.2738 -0.4515
16476TIP3    H170919   6.557   0.278  16.824 -2.1179 -0.0415  2.6153
16476TIP3    H270920   6.622   0.165  16.747 -0.2379  3.7182 -1.5509
16477TIP3   OH270921   6.587   2.863   2.503  0.0191 -0.2194 -0.6420
16477TIP3    H170922   6.652   2.803   2.542 -0.4871  0.0054  0.5928
16477TIP3    H270923   6.514   2.861   2.565 -0.0664  1.5507 -0.6675
16478TIP3   OH270924   4.452   6.704   3.434 -0.3755 -0.0099 -0.2121
16478TIP3    H170925   4.423   6.778   3.382  0.6903 -0.1262 -0.9737
16478TIP3    H270926   4.401   6.710   3.515 -0.9970  0.9837 -0.6742
16479TIP3   OH270927   0.430   2.510  14.493 -0.5515 -1.1108  0.0810
16479TIP3    H170928   0.475   2.555  14.421 -0.9595 -0.5348  0.1828
16479TIP3    H270929   0.485   2.525  14.569 -0.5071 -1.0711  0.0403
16480TIP3   OH270930   0.274   6.499   1.497 -0.3801  0.5961 -0.1063
16480TIP3    H170931   0.212   6.431   1.469 -0.9447  0.7102  0.8267
16480TIP3    H270932   0.323   6.522   1.418 -0.1317 -0.9508 -0.4178
16481TIP3   OH270933   3.638   3.146   0.774 -0.6221  0.3746 -0.5352
16481TIP3    H170934   3.637   3.231   0.730 -0.0293  0.6142 -0.0899
16481TIP3    H270935   3.652   3.167   0.866  1.0873 -0.2920 -0.6307
16482TIP3   OH270936   2.249   3.574  14.487 -0.2945 -0.0104 -0.0437
16482TIP3    H170937   2.294   3.623  14.556 -0.1197  1.3342 -1.0874
16482TIP3    H270938   2.229   3.640  14.421 -3.5960 -0.6278  0.2838
16483TIP3   OH270939   0.922   1.860  16.027 -0.3142 -0.6176  0.2825
16483TIP3    H170940   0.998   1.859  15.969  0.0248 -2.6437  0.7084
16483TIP3    H270941   0.859   1.801  15.985 -1.8660  1.4467 -0.3300
16484TIP3   OH270942   3.989   1.119   5.413  0.4440 -0.2767  0.5974
16484TIP3    H170943   4.033   1.204   5.421  1.1141 -0.6429  0.8804
16484TIP3    H270944   4.060   1.055   5.416 -0.0089 -0.8238 -0.2280
16485TIP3   OH270945   5.070   5.296  15.849 -0.1607  0.2685  0.5927
16485TIP3    H170946   5.134   5.367  15.854 -1.6900  1.7105  0.1459
16485TIP3    H270947   5.021   5.313  15.769  1.7084 -3.2945 -1.4523
16486TIP3   OH270948   6.316   6.506  13.575  0.5581  0.8366  0.4748
16486TIP3    H170949   6.293   6.486  13.666 -0.1080 -1.9416 -0.2516
16486TIP3    H270950   6.411   6.516  13.576  0.5310  1.0567  1.5306
16487TIP3   OH270951   3.620   2.929   1.997  0.2272  1.0305  0.3502
16487TIP3    H170952   3.532   2.907   1.967  1.3256 -1.3380 -1.2990
16487TIP3    H270953   3.620   2.904   2.090  0.2869 -2.7360 -0.5723
16488TIP3   OH270954   5.198   0.524   6.173  0.3893  0.1844 -0.3182
16488TIP3    H170955   5.234   0.568   6.097  1.6056 -0.3444 -0.0708
16488TIP3    H270956   5.252   0.555   6.246  0.2204 -0.4628  0.0889
16489TIP3   OH270957   1.066   4.729   3.638 -0.3641 -0.0308  0.4408
16489TIP3    H170958   1.050   4.759   3.548 -1.0613  0.5099  0.7437
16489TIP3    H270959   1.004   4.658   3.650  0.7501 -1.1042 -0.0061
16490TIP3   OH270960   2.617   3.213  12.454 -0.3696  0.9267  0.4964
16490TIP3    H170961   2.585   3.172  12.534 -1.3777  1.3588  0.3290
16490TIP3    H270962   2.543   3.207  12.393  1.0248 -1.0518 -1.0205
16491TIP3   OH270963   2.029   0.201  14.901 -0.2669 -0.1261 -0.2221
16491TIP3    H170964   1.956   0.139  14.904 -1.2128  0.9914  0.3348
16491TIP3    H270965   2.010   0.256  14.825 -0.6119  0.8851  0.5854
16492TIP3   OH270966   6.306   1.362  14.664 -0.2302 -0.0347 -0.0755
16492TIP3    H170967   6.324   1.353  14.758  0.1867  0.3078 -0.1235
16492TIP3    H270968   6.310   1.272  14.631  0.7250 -0.0406  0.0364
16493TIP3   OH270969   2.368   6.212   1.579 -0.2101  0.1364  0.7149
16493TIP3    H170970   2.305   6.249   1.517 -0.9168 -0.4973  1.0429
16493TIP3    H270971   2.341   6.121   1.588  0.4833 -0.0185  1.2101
16494TIP3   OH270972   1.689   0.956   2.040  0.1932 -0.0548 -0.3938
16494TIP3    H170973   1.743   0.880   2.019  1.2518  0.5401  0.1389
16494TIP3    H270974   1.752   1.022   2.071 -0.6656  1.1530 -1.1955
16495TIP3   OH270975   6.575   5.701   5.091 -0.0813  0.4946  0.1161
16495TIP3    H170976   6.484   5.729   5.084 -0.2781 -0.3320 -0.6205
16495TIP3    H270977   6.580   5.654   5.175 -0.6257 -0.5517 -0.4347
16496TIP3   OH270978   6.017   2.202   0.924 -0.7116  0.0891 -0.2170
16496TIP3    H170979   6.033   2.282   0.875  1.3345  0.1356  0.4593
16496TIP3    H270980   6.098   2.189   0.975 -2.0259 -0.9842  1.6517
16497TIP3   OH270981   5.743   6.642  15.379  0.0946  0.7098 -0.5034
16497TIP3    H170982   5.713   6.645  15.288 -0.1663 -1.8311 -0.5316
16497TIP3    H270983   5.793   6.723  15.390 -0.7574  1.5536 -2.5852
16498TIP3   OH270984   0.226   3.924  13.758  0.6248 -0.3442 -0.0541
16498TIP3    H170985   0.248   3.852  13.698  0.6949  0.3372 -0.8614
16498TIP3    H270986   0.230   3.885  13.845  3.4533 -0.6557 -0.2840
16499TIP3   OH270987   4.156   0.568   3.613  0.3395  0.2815  0.1040
16499TIP3    H170988   4.170   0.647   3.561  0.6676 -0.5804 -1.1553
16499TIP3    H270989   4.223   0.507   3.581 -1.8384 -1.5427 -1.0663
16500TIP3   OH270990   4.406   5.422   2.590  0.6961  0.7856  0.2574
16500TIP3    H170991   4.466   5.355   2.557 -0.4104 -0.6661  1.1143
16500TIP3    H270992   4.392   5.480   2.516  0.8132 -0.5737 -0.8539
16501TIP3   OH270993   3.312   5.106   2.291 -0.1507 -0.7414  0.2692
16501TIP3    H170994   3.216   5.104   2.296 -0.2314 -0.3032 -1.0105
16501TIP3    H270995   3.337   5.014   2.297 -0.7653 -1.0259 -1.2856
16502TIP3   OH270996   3.190   5.744  14.160 -0.1928  0.0978  0.0089
16502TIP3    H170997   3.128   5.765  14.090 -0.8217 -0.1971  0.4704
16502TIP3    H270998   3.196   5.649  14.160  1.3720  0.1701 -0.9711
16503TIP3   OH270999   1.844   3.682  14.395  0.0582 -0.3120 -0.6988
16503TIP3    H171000   1.782   3.736  14.443  1.4122 -0.3448  1.1520
16503TIP3    H271001   1.797   3.599  14.380  0.0051 -0.7462  1.6569
16504TIP3   OH271002   5.212   2.463   3.560 -0.3098 -0.9438  0.5873
16504TIP3    H171003   5.249   2.529   3.618  0.8953 -1.0581 -0.0322
16504TIP3    H271004   5.145   2.509   3.510  0.3376 -0.2576  0.3476
16505TIP3   OH271005   6.097   2.268   3.748  0.8212  0.1503  0.0324
16505TIP3    H171006   6.108   2.186   3.700 -0.7048  0.1080 -0.2830
16505TIP3    H271007   6.134   2.335   3.691  0.0393 -0.0453 -0.7068
16506TIP3   OH271008   5.827   5.602  16.503 -1.0695 -0.1574  0.2636
16506TIP3    H171009   5.833   5.606  16.408 -0.3885 -2.2215  0.1961
16506TIP3    H271010   5.733   5.605  16.521 -1.3107 -1.7073 -0.6048
16507TIP3   OH271011   5.174   2.877  17.016  0.3129  0.2491  0.2279
16507TIP3    H171012   5.195   2.970  17.014  0.4042  0.2290  0.2448
16507TIP3    H271013   5.115   2.867  17.091 -0.6100  0.4826 -0.4676
16508TIP3   OH271014   4.485   1.765  15.925 -0.1840  0.2492 -0.1666
16508TIP3    H171015   4.491   1.774  16.020  0.7107  0.7168 -0.2719
16508TIP3    H271016   4.421   1.694  15.912  1.3923 -1.4144  0.8401
16509TIP3   OH271017   4.993   4.157   0.319 -0.0236  0.2950  0.1295
16509TIP3    H171018   4.911   4.196   0.348  0.4122 -1.0897  3.4268
16509TIP3    H271019   5.016   4.095   0.388  3.3907  0.0702 -1.1164
16510TIP3   OH271020   4.619   4.852   2.398  0.1313  0.3321  0.5115
16510TIP3    H171021   4.663   4.881   2.318 -0.9605 -0.7237 -0.4922
16510TIP3    H271022   4.583   4.767   2.376 -0.0367 -0.0580  2.2049
16511TIP3   OH271023   4.750   4.150   5.086 -0.2599 -0.0598 -0.3577
16511TIP3    H171024   4.820   4.206   5.120  0.3956 -1.1334  0.0821
16511TIP3    H271025   4.682   4.154   5.154  0.0205 -0.2416 -0.0622
16512TIP3   OH271026   4.988   1.673   5.781  0.4692 -0.6612  0.3966
16512TIP3    H171027   5.067   1.709   5.822  0.5178  0.0406 -0.3044
16512TIP3    H271028   5.007   1.580   5.770  0.8494 -0.6604  1.0488
16513TIP3   OH271029   0.972   0.233  11.590 -0.1227 -0.2559 -0.2642
16513TIP3    H171030   1.034   0.181  11.642  0.2408 -1.1326 -1.5738
16513TIP3    H271031   0.938   0.298  11.653 -0.7124 -2.1495  1.4307
16514TIP3   OH271032   2.091   5.576   0.242  0.1527 -0.8263 -0.1802
16514TIP3    H171033   2.064   5.519   0.314  0.2777 -1.3375 -0.5369
16514TIP3    H271034   2.090   5.519   0.165  1.3013 -0.6176 -0.3652
16515TIP3   OH271035   3.677   1.641  15.480 -0.5176  0.5601 -0.4348
16515TIP3    H171036   3.665   1.735  15.464 -0.0524  0.7433  0.2755
16515TIP3    H271037   3.710   1.607  15.397  1.8880  1.5166  0.0764
16516TIP3   OH271038   1.465   0.064   0.862  0.9029 -0.9968  0.3506
16516TIP3    H171039   1.450   0.156   0.840 -0.1178 -1.2504 -0.0377
16516TIP3    H271040   1.380   0.022   0.850  1.1286 -1.8023  1.4919
16517TIP3   OH271041   1.463   3.858  14.365  0.2429 -0.0782 -0.2800
16517TIP3    H171042   1.382   3.815  14.340  0.0006 -0.1095  0.5195
16517TIP3    H271043   1.510   3.793  14.417  1.1711 -0.3542 -1.4510
16518TIP3   OH271044   5.018   0.847   2.368 -0.2911 -0.7644 -0.2811
16518TIP3    H171045   5.012   0.942   2.384  1.1068 -0.6247 -0.5229
16518TIP3    H271046   5.111   0.831   2.357 -0.4939 -2.2423  0.1023
16519TIP3   OH271047   1.411   0.496  10.526 -0.3376 -0.5067  0.0335
16519TIP3    H171048   1.496   0.526  10.557 -0.7335  0.9326 -0.2167
16519TIP3    H271049   1.426   0.469  10.435 -0.6914  2.4968 -0.9881
16520TIP3   OH271050   3.103   0.336  11.208  0.0328 -0.0328  0.3152
16520TIP3    H171051   3.125   0.422  11.172 -1.9845  0.6871  0.7133
16520TIP3    H271052   3.044   0.298  11.143 -0.3588 -0.4411  0.9065
16521TIP3   OH271053   6.626   1.270  16.217 -0.0263 -0.0271  0.2948
16521TIP3    H171054   6.571   1.344  16.244  0.4999  0.6521 -0.4294
16521TIP3    H271055   6.614   1.205  16.285  2.7648  2.3648  3.2331
16522TIP3   OH271056   1.474   4.496   2.137 -0.0913 -0.5749 -0.3170
16522TIP3    H171057   1.434   4.546   2.209 -1.1128 -1.1221 -0.5038
16522TIP3    H271058   1.514   4.421   2.180 -1.0176 -1.0940 -0.3600
16523TIP3   OH271059   3.656   5.985   4.786  0.0754 -0.8424  0.1197
16523TIP3    H171060   3.675   6.068   4.831  0.5756  1.1273 -3.4983
16523TIP3    H271061   3.741   5.957   4.752 -0.7234 -0.7430 -2.0234
16524TIP3   OH271062   4.433   6.448  14.083 -0.0400  0.5858  0.5430
16524TIP3    H171063   4.358   6.498  14.052 -0.5125 -1.1982 -1.2576
16524TIP3    H271064   4.461   6.396  14.008  2.2014  0.2381  1.5539
16525TIP3   OH271065   2.106   3.879  16.229 -0.2909 -0.3147 -0.2366
16525TIP3    H171066   2.047   3.953  16.243 -1.2442 -1.0973 -0.0742
16525TIP3    H271067   2.182   3.917  16.184 -1.2146  0.5840 -1.0691
16526TIP3   OH271068   1.560   2.764   5.431 -0.2262  0.0574 -0.3061
16526TIP3    H171069   1.572   2.852   5.396  0.1972  0.3868  0.6539
16526TIP3    H271070   1.497   2.723   5.372 -1.0410  1.2749 -0.2984
16527TIP3   OH271071   0.953   2.336  13.366  0.0910  0.4214  0.2126
16527TIP3    H171072   0.952   2.379  13.451  2.3961 -0.7856  0.8920
16527TIP3    H271073   0.911   2.251  13.380  1.5764 -0.2948  0.4792
16528TIP3   OH271074   5.394   3.055  14.045 -0.4302 -0.1245 -0.0198
16528TIP3    H171075   5.339   3.009  14.108 -0.0147 -1.8025 -0.8683
16528TIP3    H271076   5.391   3.002  13.966  2.0970 -0.0701 -0.2072
16529TIP3   OH271077   1.218   6.289  12.782 -0.2967  0.1403 -0.4818
16529TIP3    H171078   1.166   6.210  12.769  1.2752 -0.9314 -0.4263
16529TIP3    H271079   1.159   6.361  12.759 -1.5985 -1.0673 -0.9799
16530TIP3   OH271080   6.008   3.623  10.463 -0.0724  0.1602 -0.3407
16530TIP3    H171081   6.054   3.694  10.418  1.4710  0.2046  1.2241
16530TIP3    H271082   5.960   3.577  10.394  3.3513 -0.6679 -2.2723
16531TIP3   OH271083   0.051   0.136  11.296  0.6157 -0.3865 -0.7965
16531TIP3    H171084   0.008   0.059  11.258  1.3964 -0.7884 -0.8578
16531TIP3    H271085  -0.021   0.185  11.337  0.0913 -1.0507 -0.9121
16532TIP3   OH271086   0.890   5.434   5.476 -0.0450 -0.2371 -0.3681
16532TIP3    H171087   0.842   5.516   5.489 -1.2440 -1.1052  0.9196
16532TIP3    H271088   0.979   5.461   5.456  0.2285  1.4198  2.7090
16533TIP3   OH271089   0.410   5.165  15.459  0.1588 -0.4034 -0.6489
16533TIP3    H171090   0.458   5.096  15.412  2.2729 -0.0847  0.9606
16533TIP3    H271091   0.464   5.184  15.536 -0.6568  2.7095 -0.7879
16534TIP3   OH271092   4.077   2.079  13.929 -0.3647 -0.0927 -0.2225
16534TIP3    H171093   4.058   2.102  14.020 -1.5044  1.7861 -0.9180
16534TIP3    H271094   4.150   2.017  13.935  0.1917  0.7303  1.9052
16535TIP3   OH271095   2.310   2.182   2.245 -0.3749  0.3674 -0.4555
16535TIP3    H171096   2.241   2.155   2.305 -1.8319  1.3329 -1.6645
16535TIP3    H271097   2.384   2.125   2.266 -1.6353 -0.8833  0.6519
16536TIP3   OH271098   1.458   5.510  15.200  0.4244 -0.1831  0.0368
16536TIP3    H171099   1.368   5.494  15.226  0.8522 -0.8359  1.1819
16536TIP3    H271100   1.454   5.586  15.143 -0.9177 -0.5847 -0.4185
16537TIP3   OH271101   3.504   1.112   2.554 -0.0575 -0.3266  0.0068
16537TIP3    H171102   3.449   1.176   2.508  0.8222  0.4252 -0.0143
16537TIP3    H271103   3.592   1.151   2.553  0.5731 -1.7363 -0.3847
16538TIP3   OH271104   2.990   4.582  13.277 -0.0962  0.9251 -0.4212
16538TIP3    H171105   3.000   4.493  13.312  0.2223  0.5928 -1.3487
16538TIP3    H271106   3.066   4.630  13.310  0.7025  0.3608 -1.4391
16539TIP3   OH271107   5.697   5.711  12.377 -0.1169 -1.1785 -0.2677
16539TIP3    H171108   5.644   5.666  12.311 -1.2525 -0.6698  0.2768
16539TIP3    H271109   5.706   5.647  12.448 -1.8328 -0.5130  0.5589
16540TIP3   OH271110   1.996   4.937   0.025 -0.1810  0.0671 -0.5151
16540TIP3    H171111   1.984   4.863   0.084 -0.6156 -0.4881 -1.2887
16540TIP3    H271112   2.027   4.899  -0.057  1.9762  1.0015 -0.1547
16541TIP3   OH271113   2.566   4.659   0.933  0.3011  0.1320  0.5779
16541TIP3    H171114   2.594   4.740   0.891  0.3655 -0.6278 -0.9242
16541TIP3    H271115   2.639   4.634   0.990  1.4739 -0.2805 -1.0497
16542TIP3   OH271116   1.590   0.698   0.073  0.6266 -0.1097 -0.4021
16542TIP3    H171117   1.631   0.783   0.061  1.4433 -0.5365 -0.6438
16542TIP3    H271118   1.657   0.644   0.116 -0.2231 -0.3445  0.6771
16543TIP3   OH271119   5.091   0.790   4.071 -0.0987  0.4533  0.4676
16543TIP3    H171120   5.017   0.827   4.120  0.3716  0.4217  1.2080
16543TIP3    H271121   5.168   0.832   4.108  0.2101  1.0315 -0.8088
16544TIP3   OH271122   1.509   0.614   2.444  0.3191  0.1256 -0.2171
16544TIP3    H171123   1.458   0.547   2.397  0.0053  0.0237  0.2644
16544TIP3    H271124   1.573   0.564   2.494 -0.0938  0.1622  0.3581
16545TIP3   OH271125   6.276   0.181   0.588 -0.2849 -0.4078  0.7595
16545TIP3    H171126   6.278   0.273   0.617  0.1709 -0.8651  2.2115
16545TIP3    H271127   6.201   0.144   0.635 -0.9298 -0.6074 -0.4040
16546TIP3   OH271128   3.763   6.565   3.118  0.0646  0.1349 -0.7221
16546TIP3    H171129   3.673   6.598   3.110 -0.1927 -0.5077 -0.5199
16546TIP3    H271130   3.818   6.643   3.109 -0.5548  0.7210  0.4210
16547TIP3   OH271131   2.173   4.607  17.131  0.0224 -0.2249 -0.6174
16547TIP3    H171132   2.086   4.580  17.159 -1.1529  2.9676 -1.0493
16547TIP3    H271133   2.192   4.551  17.055 -1.8081 -0.6648 -0.7595
16548TIP3   OH271134   1.670   0.735   5.824  0.3325 -0.5070 -0.2797
16548TIP3    H171135   1.641   0.648   5.851 -0.4240  0.1265  1.0043
16548TIP3    H271136   1.599   0.793   5.851  1.4029  0.6777  0.0267
16549TIP3   OH271137   0.695   1.642  11.122 -0.4066 -0.6098  0.1118
16549TIP3    H171138   0.630   1.681  11.181 -0.4186  0.4307 -0.5863
16549TIP3    H271139   0.656   1.650  11.035  0.2146 -0.9236 -0.1936
16550TIP3   OH271140   2.197   0.752  14.790 -0.3359 -0.3181 -0.2038
16550TIP3    H171141   2.148   0.770  14.710 -0.7610  0.0783  0.1452
16550TIP3    H271142   2.241   0.835  14.811  1.4869 -0.9967 -1.1950
16551TIP3   OH271143   1.732   1.446   3.123  0.2792 -0.1225 -0.0397
16551TIP3    H171144   1.714   1.368   3.174 -1.6131 -0.0669 -0.5856
16551TIP3    H271145   1.816   1.428   3.081  0.2399 -1.5317  0.4618
16552TIP3   OH271146   4.310   0.766   4.926 -0.0934  0.5517  0.0042
16552TIP3    H171147   4.267   0.795   5.006  1.4572  1.2856  0.5857
16552TIP3    H271148   4.382   0.711   4.955  0.0808  0.2785 -0.9193
16553TIP3   OH271149   6.378   0.013  13.389 -0.5852  0.8833  0.2345
16553TIP3    H171150   6.407  -0.049  13.322  0.0381 -0.5125  1.7556
16553TIP3    H271151   6.296   0.048  13.355 -0.9436 -0.7696 -0.6612
16554TIP3   OH271152   2.509   6.149  17.038  0.5818  0.7343 -0.6251
16554TIP3    H171153   2.433   6.198  17.006 -0.0488  1.5202  1.9869
16554TIP3    H271154   2.476   6.061  17.055  0.2404  1.0594  0.4483
16555TIP3   OH271155   4.845   4.129  16.060  0.1387 -0.0835 -0.2529
16555TIP3    H171156   4.750   4.132  16.052 -0.0958 -1.8657  1.5559
16555TIP3    H271157   4.865   4.037  16.073  2.2228  0.1406 -1.6446
16556TIP3   OH271158   5.320   2.223   4.003  0.0752  0.4429  0.0539
16556TIP3    H171159   5.255   2.289   3.980  0.6884  1.6236  1.6106
16556TIP3    H271160   5.383   2.270   4.059  1.7399 -0.8985 -0.6407
16557TIP3   OH271161   6.698   1.069  11.797  0.5636  0.4529 -0.1790
16557TIP3    H171162   6.664   1.145  11.750 -1.3918 -0.3155 -0.0811
16557TIP3    H271163   6.689   1.093  11.890 -1.2733 -0.3591 -0.1176
16558TIP3   OH271164   3.148   4.704   5.565  0.3817 -0.2599  0.9379
16558TIP3    H171165   3.063   4.670   5.538 -0.4431  0.2360  2.8370
16558TIP3    H271166   3.194   4.627   5.598  1.6599 -1.0045 -2.3523
16559TIP3   OH271167   0.332   5.814  13.024 -0.3155 -0.2050 -0.6040
16559TIP3    H171168   0.398   5.868  13.067  1.7038 -2.0786 -1.2618
16559TIP3    H271169   0.257   5.872  13.012  0.4895  1.4312  1.9313
16560TIP3   OH271170   0.460   6.669  12.361 -0.3598 -0.3165 -0.5001
16560TIP3    H171171   0.548   6.704  12.377 -0.3089 -0.4813 -0.4239
16560TIP3    H271172   0.456   6.658  12.266  0.4926 -2.4156 -0.3072
16561TIP3   OH271173   0.788   4.890   4.109  0.3159 -0.2363  0.0394
16561TIP3    H171174   0.782   4.984   4.093 -0.3701 -0.1084  1.0216
16561TIP3    H271175   0.836   4.856   4.034  1.3453  1.0195  0.1206
16562TIP3   OH271176   2.255   3.760   4.647  0.2609 -0.6310  0.2245
16562TIP3    H171177   2.230   3.728   4.560 -0.3635  3.8128 -1.3557
16562TIP3    H271178   2.351   3.764   4.644  0.3045 -1.5943  0.1760
16563TIP3   OH271179   5.981   1.446   4.658 -0.2106 -0.0184 -0.1609
16563TIP3    H171180   6.068   1.416   4.632  0.0534  0.8647 -0.3331
16563TIP3    H271181   5.965   1.403   4.742  0.3090 -0.3393 -0.2213
16564TIP3   OH271182   4.226   2.663   4.103  0.1238  0.1830 -0.3007
16564TIP3    H171183   4.284   2.596   4.138 -0.8865 -0.0188  1.0028
16564TIP3    H271184   4.275   2.745   4.114  0.5746 -0.1030 -0.1444
16565TIP3   OH271185   5.885   4.464  14.018 -0.2104  0.2276 -0.3505
16565TIP3    H171186   5.963   4.409  14.006  0.0070  0.4379  0.0774
16565TIP3    H271187   5.860   4.450  14.109 -1.0714 -0.3522 -0.6716
16566TIP3   OH271188   0.624   3.748   0.024  0.3116  0.3282 -0.4366
16566TIP3    H171189   0.557   3.681   0.032 -0.9590  1.7161  0.9483
16566TIP3    H271190   0.595   3.804  -0.047 -0.3047  1.2406  0.5158
16567TIP3   OH271191   4.777   6.230   3.292 -0.0210 -0.3073 -0.4023
16567TIP3    H171192   4.762   6.281   3.371 -1.0184 -0.4339 -0.4977
16567TIP3    H271193   4.865   6.194   3.302  0.3362  0.6884  0.0787
16568TIP3   OH271194   5.735   4.579   5.597  0.5673 -0.2647  0.8446
16568TIP3    H171195   5.765   4.602   5.685 -0.3355  0.9758  0.8539
16568TIP3    H271196   5.771   4.492   5.581 -1.7367 -1.8150  3.6310
16569TIP3   OH271197   2.822   0.767   4.195 -0.3784  0.2434 -0.0223
16569TIP3    H171198   2.759   0.721   4.250 -0.3037  0.4133  0.2011
16569TIP3    H271199   2.906   0.727   4.217  0.0799  2.2895  2.0921
16570TIP3   OH271200   4.573   3.247  16.574  0.2476 -0.0964 -0.7964
16570TIP3    H171201   4.603   3.170  16.620  0.4942  0.5959  0.2052
16570TIP3    H271202   4.488   3.267  16.613 -0.0177 -0.1151 -1.3538
16571TIP3   OH271203   3.106   3.208  11.511 -0.2425 -0.1830  0.3663
16571TIP3    H171204   3.177   3.145  11.521 -0.2111 -0.0275  1.1866
16571TIP3    H271205   3.069   3.216  11.599  0.3036  1.5716  0.4724
16572TIP3   OH271206   2.133   5.097  13.773  0.3748  0.4485  0.6084
16572TIP3    H171207   2.067   5.035  13.803  0.7080 -0.8740 -1.2654
16572TIP3    H271208   2.085   5.179  13.759 -0.1064  0.5873  2.8897
16573TIP3   OH271209   2.747   4.921  17.263  0.5436  0.0287 -0.2945
16573TIP3    H171210   2.671   4.951  17.214  1.9326  0.1482 -2.4286
16573TIP3    H271211   2.726   4.831  17.288 -0.1501 -0.0539 -1.1607
16574TIP3   OH271212   3.315   5.559   0.990 -0.0198 -0.2716  0.4152
16574TIP3    H171213   3.232   5.511   0.992  0.2141 -0.8162 -1.7837
16574TIP3    H271214   3.380   5.494   0.965  0.8920  0.4241  0.9519
16575TIP3   OH271215   1.080   3.749   6.294 -0.0451 -0.4346 -0.0138
16575TIP3    H171216   1.068   3.654   6.294  1.7797 -0.6984 -1.1281
16575TIP3    H271217   0.991   3.785   6.293 -0.7825 -2.0969  1.8484
16576TIP3   OH271218   6.675   3.916   0.988  0.2451  0.0930  0.0452
16576TIP3    H171219   6.590   3.900   1.028 -0.0578  0.6184 -0.3772
16576TIP3    H271220   6.726   3.837   1.005 -1.7619 -2.0531 -3.4506
16577TIP3   OH271221   1.621   4.590  11.475 -0.6737 -0.3984 -0.2231
16577TIP3    H171222   1.525   4.590  11.469 -0.6846  1.5339 -0.4211
16577TIP3    H271223   1.640   4.636  11.557  0.1070  1.2820 -1.3078
16578TIP3   OH271224   4.946   3.737  15.042  0.6353  0.6491 -0.2193
16578TIP3    H171225   5.003   3.680  15.093 -0.4899 -0.7483 -0.4925
16578TIP3    H271226   4.978   3.825  15.060 -0.0213  0.2370  3.2642
16579TIP3   OH271227   4.003   3.336  15.764 -0.0211  0.2645  0.1608
16579TIP3    H171228   3.941   3.298  15.701  1.4901  0.2401 -1.3260
16579TIP3    H271229   4.000   3.275  15.839 -0.5413 -0.6424 -0.5845
16580TIP3   OH271230   6.061   1.224  14.237  0.7121  0.1865  0.3047
16580TIP3    H171231   6.075   1.206  14.144 -0.3534 -0.3023  0.2332
16580TIP3    H271232   5.968   1.207  14.251  0.9602 -0.2027  1.5659
16581TIP3   OH271233   6.465   1.905   3.676 -0.3975  0.0766  0.2382
16581TIP3    H171234   6.383   1.869   3.643  0.4263 -0.9096 -0.7822
16581TIP3    H271235   6.506   1.945   3.600  1.1014 -1.4120  0.2373
16582TIP3   OH271236   3.043   4.345  16.112  0.2678  0.2596  0.6924
16582TIP3    H171237   3.026   4.362  16.020  1.7677 -0.9797  0.1750
16582TIP3    H271238   3.030   4.430  16.155  2.7530  1.6042 -1.1218
16583TIP3   OH271239   0.653   0.671   4.759  0.2001 -0.1433 -0.2914
16583TIP3    H171240   0.572   0.720   4.772 -0.9729 -2.2108  0.3325
16583TIP3    H271241   0.671   0.632   4.844  2.0869  0.6215 -0.3225
16584TIP3   OH271242   4.934   4.389  12.344  0.4952 -0.4479 -0.3332
16584TIP3    H171243   4.868   4.351  12.402 -0.0867  0.4105 -0.4169
16584TIP3    H271244   5.017   4.369  12.386  0.2207 -1.8783 -0.4183
16585TIP3   OH271245   5.553   1.238   4.290  0.1219  0.0703 -0.1174
16585TIP3    H171246   5.465   1.250   4.256  0.0874  1.5052  0.4226
16585TIP3    H271247   5.541   1.192   4.373 -0.2711  1.7357  0.7691
16586TIP3   OH271248   0.398   2.568   2.785 -0.3982 -0.1519 -0.0170
16586TIP3    H171249   0.433   2.653   2.810  0.0842 -0.0031 -1.1778
16586TIP3    H271250   0.353   2.583   2.701 -0.6768 -0.9505 -0.0227
16587TIP3   OH271251   3.467   5.835  11.843  0.2142 -0.4969  0.1032
16587TIP3    H171252   3.495   5.921  11.877  0.6666 -0.6115  0.0235
16587TIP3    H271253   3.481   5.775  11.917 -0.4285 -0.4408  0.2685
16588TIP3   OH271254   5.450   5.086  13.735  0.4609  0.5300  0.2329
16588TIP3    H171255   5.522   5.073  13.673  1.6956  1.3452  1.4721
16588TIP3    H271256   5.390   5.146  13.689  0.1589 -0.7548 -1.1061
16589TIP3   OH271257   2.958   4.734  15.258  0.2669 -0.2561 -0.5118
16589TIP3    H171258   2.873   4.690  15.266 -1.0038  1.5399 -3.2490
16589TIP3    H271259   2.941   4.825  15.282  1.3982  0.1222 -1.0997
16590TIP3   OH271260   3.123   2.622  16.418  0.1008  0.2455 -0.3984
16590TIP3    H171261   3.135   2.528  16.425 -1.5241  0.1289  1.2938
16590TIP3    H271262   3.028   2.635  16.425  0.2240  1.9364 -1.5277
16591TIP3   OH271263   1.791   0.934  12.286  0.1195  0.0814  0.1052
16591TIP3    H171264   1.704   0.935  12.247  0.9962  0.2796 -1.9124
16591TIP3    H271265   1.815   1.026  12.295  0.5313  0.0184 -0.3195
16592TIP3   OH271266   0.348   4.315   1.846  0.0586  0.2488 -0.0765
16592TIP3    H171267   0.343   4.401   1.806  1.3280  0.6832  0.6761
16592TIP3    H271268   0.426   4.318   1.902  1.3803 -2.0704 -1.6929
16593TIP3   OH271269   1.757   3.737   5.110  0.4068  0.1994 -0.4247
16593TIP3    H171270   1.848   3.743   5.141  0.3571  0.3544 -0.3118
16593TIP3    H271271   1.740   3.642   5.107  0.1714  0.2040  0.7292
16594TIP3   OH271272   1.215   3.466  14.809 -0.0282  0.3846  1.0198
16594TIP3    H171273   1.227   3.403  14.739 -2.1326  0.3876  0.6084
16594TIP3    H271274   1.156   3.532  14.772  2.0471  2.5761  1.4673
16595TIP3   OH271275   2.735   5.217  14.983 -0.2526 -1.3632  0.0961
16595TIP3    H171276   2.669   5.266  14.935  0.6632 -0.2404 -0.0398
16595TIP3    H271277   2.818   5.260  14.960  0.5257 -2.7690  0.2153
16596TIP3   OH271278   0.212   0.222   0.554  0.3676 -0.2705 -0.0319
16596TIP3    H171279   0.258   0.284   0.611 -0.6979  0.4113  0.1038
16596TIP3    H271280   0.120   0.243   0.566 -0.1391 -3.0597  1.3749
16597TIP3   OH271281   1.413   3.274   0.912  0.3149  0.1957  0.7155
16597TIP3    H171282   1.335   3.235   0.951  0.4228 -1.0211 -0.2579
16597TIP3    H271283   1.485   3.246   0.970  0.5852 -2.3096 -0.7892
16598TIP3   OH271284   2.710   2.503   6.661 -0.2838  0.2175 -0.0063
16598TIP3    H171285   2.797   2.480   6.692 -0.3197  1.9874  1.5113
16598TIP3    H271286   2.665   2.419   6.648  1.7784 -0.7166 -1.2799
16599TIP3   OH271287   0.817   2.015  15.080  0.1925 -0.2610  0.8804
16599TIP3    H171288   0.785   2.074  15.011 -4.1772 -1.1628  2.0137
16599TIP3    H271289   0.857   2.073  15.144 -1.0166  1.1746  0.3756
16600TIP3   OH271290   5.727   3.809   3.890  0.3360 -0.1253 -0.0108
16600TIP3    H171291   5.749   3.889   3.937  1.4687  0.5558 -1.6679
16600TIP3    H271292   5.788   3.807   3.816 -1.3265 -1.2427 -1.3840
16601TIP3   OH271293   5.428   3.191  16.243  0.2082 -0.4626  0.3200
16601TIP3    H171294   5.492   3.128  16.210 -0.5606 -0.5545 -1.0583
16601TIP3    H271295   5.343   3.155  16.214 -0.3045  0.6732  0.4064
16602TIP3   OH271296   3.545   2.028   2.672 -0.6950  0.6660 -0.3747
16602TIP3    H171297   3.521   2.057   2.584 -1.0951  0.1709 -0.4291
16602TIP3    H271298   3.486   1.955   2.690  1.0107 -0.8299 -0.6570
16603TIP3   OH271299   0.361   2.612   5.279 -0.1080 -0.4062 -0.5738
16603TIP3    H171300   0.340   2.597   5.371 -2.4179  0.8355 -0.8718
16603TIP3    H271301   0.406   2.696   5.278  0.7124 -0.8375 -0.4924
16604TIP3   OH271302   0.709   2.239   5.013 -0.1030 -0.0501  0.0241
16604TIP3    H171303   0.648   2.266   4.944 -1.2181 -0.3893  0.8444
16604TIP3    H271304   0.694   2.302   5.083  1.1939  0.4337 -0.1245
16605TIP3   OH271305   0.134   0.709  13.652 -0.0418  0.1075 -0.1627
16605TIP3    H171306   0.177   0.640  13.702 -0.3364  0.4560  0.5770
16605TIP3    H271307   0.175   0.705  13.565 -0.8386 -1.7073 -0.4718
16606TIP3   OH271308   2.265   0.648   3.784 -0.0666 -0.1302 -0.0177
16606TIP3    H171309   2.301   0.576   3.731 -1.5108 -1.7399  1.1337
16606TIP3    H271310   2.219   0.604   3.856 -2.4646  1.9132 -0.2342
16607TIP3   OH271311   4.771   0.216   5.012 -0.6916 -0.0144 -0.5236
16607TIP3    H171312   4.861   0.244   5.031 -0.1653  0.2808 -3.2594
16607TIP3    H271313   4.779   0.123   4.990 -0.8000  0.3525 -2.2099
16608TIP3   OH271314   4.857   0.969   4.146  0.0506  0.0830 -0.2710
16608TIP3    H171315   4.781   0.983   4.090  0.7691 -1.7049 -1.7848
16608TIP3    H271316   4.836   0.889   4.195 -0.1629  1.0937  1.3038
16609TIP3   OH271317   2.541   1.317   1.327 -0.1179  0.0438 -0.4374
16609TIP3    H171318   2.486   1.240   1.342  0.1768 -0.0098  0.4142
16609TIP3    H271319   2.528   1.372   1.404  1.3268 -0.1625 -0.0231
16610TIP3   OH271320   1.793   6.742   3.457 -0.1030 -0.0387 -0.2345
16610TIP3    H171321   1.887   6.756   3.457 -0.2519  1.0302 -1.0869
16610TIP3    H271322   1.768   6.743   3.549  1.1168 -3.2694  0.2050
16611TIP3   OH271323   2.617   4.959   4.899 -0.5983 -0.1615 -0.0748
16611TIP3    H171324   2.538   4.913   4.926 -1.1776 -0.2097 -1.7914
16611TIP3    H271325   2.672   4.891   4.859 -0.5453  0.2349 -0.6852
16612TIP3   OH271326   4.407   3.657  17.259  0.0638 -0.3088  0.1587
16612TIP3    H171327   4.434   3.749  17.250  0.8258 -0.3000  2.2876
16612TIP3    H271328   4.311   3.660  17.254  0.0736  0.6398  0.4526
16613TIP3   OH271329   4.312   3.022  12.073 -0.5283  0.2949  0.1994
16613TIP3    H171330   4.402   3.053  12.084 -0.2856 -0.3310 -0.0336
16613TIP3    H271331   4.293   2.973  12.153 -0.3906 -0.2437 -0.0984
16614TIP3   OH271332   5.270   0.666   3.432  0.3807  0.4441 -0.2850
16614TIP3    H171333   5.264   0.730   3.503 -0.8674 -1.0759  1.0172
16614TIP3    H271334   5.227   0.709   3.358 -0.0876  1.2760  0.4580
16615TIP3   OH271335   3.537   5.803  11.104 -0.3923 -0.7236  0.8464
16615TIP3    H171336   3.585   5.855  11.168 -1.4118  1.1219  0.1327
16615TIP3    H271337   3.449   5.794  11.141 -0.4850 -1.1670  0.5300
16616TIP3   OH271338   1.526   3.600  17.215 -0.0963  0.2149 -0.2039
16616TIP3    H171339   1.528   3.634  17.125  1.0945  2.5988  0.6985
16616TIP3    H271340   1.553   3.674  17.270 -0.9372 -1.1671  2.1497
16617TIP3   OH271341   4.585   0.622  13.507  0.2027 -0.3482 -0.2221
16617TIP3    H171342   4.588   0.637  13.601 -0.1317 -1.0281 -0.1044
16617TIP3    H271343   4.645   0.687  13.470 -0.3596  0.5232  0.3841
16618TIP3   OH271344   4.736   2.038   5.550 -0.1426  0.1316 -0.5190
16618TIP3    H171345   4.823   2.076   5.539 -0.6592  1.1429 -1.1689
16618TIP3    H271346   4.682   2.082   5.484 -1.4413  0.4437  0.7229
16619TIP3   OH271347   6.337   1.988  14.223  0.1358 -0.3511  1.3332
16619TIP3    H171348   6.426   2.023  14.221  0.7673 -1.9229  1.7937
16619TIP3    H271349   6.285   2.060  14.260  1.1585  0.6408  0.8952
16620TIP3   OH271350   5.215   5.094  15.730 -0.8963 -0.6051 -0.5656
16620TIP3    H171351   5.173   5.155  15.790 -1.8549 -0.2048 -1.6167
16620TIP3    H271352   5.225   5.144  15.648  0.8503 -0.9703 -0.5969
16621TIP3   OH271353   6.002   6.555   2.693 -0.5613  0.2586  0.5426
16621TIP3    H171354   5.954   6.569   2.612  0.7636  0.4365 -0.2144
16621TIP3    H271355   6.093   6.574   2.671  0.0442 -1.3191  1.6513
16622TIP3   OH271356   1.597   4.147  16.015  0.9509 -0.2383  0.1223
16622TIP3    H171357   1.684   4.149  15.976  0.3424 -0.9638 -1.3027
16622TIP3    H271358   1.537   4.163  15.942 -0.0324  2.4603  1.4651
16623TIP3   OH271359   5.237   1.922  16.865  0.0439  0.4304  0.8550
16623TIP3    H171360   5.207   1.906  16.955  0.2566 -2.5173  0.4509
16623TIP3    H271361   5.321   1.967  16.875 -0.3364  0.8784  2.1087
16624TIP3   OH271362   2.096   3.780   1.798  0.2168  0.1329  0.7631
16624TIP3    H171363   2.181   3.734   1.796  0.2027  0.1081  0.7208
16624TIP3    H271364   2.040   3.724   1.853  0.7292  1.0296  2.2248
16625TIP3   OH271365   2.439   4.729   2.022 -0.0139 -0.2357 -0.1682
16625TIP3    H171366   2.438   4.751   2.116 -1.4084  0.2999 -0.3046
16625TIP3    H271367   2.357   4.684   2.007 -0.0107  0.1016 -1.2429
16626TIP3   OH271368   3.859   5.799  16.394 -0.2456 -0.2669  0.2194
16626TIP3    H171369   3.783   5.853  16.373 -0.7853 -1.0402  0.1931
16626TIP3    H271370   3.934   5.857  16.378 -0.7539 -0.0004 -1.2726
16627TIP3   OH271371   1.860   2.875   0.069 -0.0370  0.3244 -0.3923
16627TIP3    H171372   1.922   2.802   0.063  2.2662  2.1303  0.9459
16627TIP3    H271373   1.826   2.871   0.158 -0.3772  0.5307 -0.5106
16628TIP3   OH271374   6.618   3.286   4.933 -0.1424 -0.0665  0.0989
16628TIP3    H171375   6.538   3.239   4.908 -1.4615  1.7269  0.7534
16628TIP3    H271376   6.647   3.242   5.013 -0.0946 -1.1649 -0.5179
16629TIP3   OH271377   3.066   6.032  10.781 -0.2886  0.2644 -0.0981
16629TIP3    H171378   3.108   6.048  10.866  0.6460  1.4345 -0.7625
16629TIP3    H271379   2.993   6.094  10.779 -0.0360  0.5550 -0.3352
16630TIP3   OH271380   0.167   1.703  14.689 -0.2940  1.1570 -0.6751
16630TIP3    H171381   0.139   1.779  14.740  0.4140  2.3944 -2.0691
16630TIP3    H271382   0.127   1.716  14.603 -0.6364 -0.3628 -0.7673
16631TIP3   OH271383   0.158   6.520   3.836  0.3006  0.0500  0.0139
16631TIP3    H171384   0.107   6.586   3.883  0.5248 -0.8994  1.5996
16631TIP3    H271385   0.159   6.551   3.745 -2.3040  0.5577  0.1263
16632TIP3   OH271386   3.178   6.779   5.524  0.5851  0.0952  0.3540
16632TIP3    H171387   3.132   6.848   5.477 -0.4690  1.0769  2.7452
16632TIP3    H271388   3.113   6.709   5.533  1.6559 -1.2791 -2.0881
16633TIP3   OH271389   0.061   6.536  15.873  0.4335  0.0138 -0.0912
16633TIP3    H171390   0.061   6.629  15.897 -1.0740  0.2984 -1.1060
16633TIP3    H271391   0.080   6.535  15.779  0.2020 -0.6913 -0.1369
16634TIP3   OH271392   2.766   3.157   2.489  0.2101 -0.0342  0.1407
16634TIP3    H171393   2.747   3.089   2.424 -1.4125  0.5354 -0.0014
16634TIP3    H271394   2.827   3.115   2.551  1.7778 -0.5688 -1.7355
16635TIP3   OH271395   1.912   2.588  14.005  0.6894 -0.3788  0.4474
16635TIP3    H171396   1.908   2.494  14.022  2.9920 -0.8786 -1.4470
16635TIP3    H271397   1.822   2.613  13.987  0.3331 -2.7237 -1.3204
16636TIP3   OH271398   6.042   1.582   5.651 -0.1184 -0.2814  0.0397
16636TIP3    H171399   6.109   1.638   5.690 -0.0340  0.3955 -1.0589
16636TIP3    H271400   6.010   1.529   5.723  1.1795 -0.1795  0.7062
16637TIP3   OH271401   4.017   2.212  12.573 -0.1070 -0.0418  0.3053
16637TIP3    H171402   3.954   2.142  12.589  0.7886 -0.9024  0.1127
16637TIP3    H271403   4.058   2.228  12.658  0.9880 -1.0363 -0.0197
16638TIP3   OH271404   0.852   3.902   1.017 -0.6821  0.1657 -0.4262
16638TIP3    H171405   0.945   3.905   0.995 -0.6151 -0.9643 -0.3089
16638TIP3    H271406   0.850   3.891   1.112 -0.9508  1.6035 -0.2566
16639TIP3   OH271407   6.495   5.475   4.908  0.2360  0.0539 -0.0140
16639TIP3    H171408   6.467   5.546   4.851  0.7788  0.2875  0.0126
16639TIP3    H271409   6.570   5.510   4.956 -0.2173 -0.1362  0.8508
16640TIP3   OH271410   2.025   3.367  11.941  0.4143 -0.3403  0.4424
16640TIP3    H171411   2.111   3.408  11.934  0.6039 -0.6710  0.7956
16640TIP3    H271412   1.995   3.390  12.029 -0.9102  1.7839 -0.5329
16641TIP3   OH271413   5.912   5.725   5.641  0.6468 -0.3012  0.6622
16641TIP3    H171414   5.874   5.639   5.661  2.9144 -1.3564  0.6142
16641TIP3    H271415   5.989   5.706   5.588 -0.1745  1.9459 -1.4485
16642TIP3   OH271416   2.866   5.115  11.025  0.0236  0.5530 -0.6531
16642TIP3    H171417   2.913   5.153  10.951 -0.4019 -1.3973 -1.9758
16642TIP3    H271418   2.930   5.059  11.068 -0.2557  0.2121 -0.6781
16643TIP3   OH271419   0.466   3.835   2.522  0.4603 -0.0737 -0.0402
16643TIP3    H171420   0.379   3.825   2.483 -0.7374  3.5437  1.5055
16643TIP3    H271421   0.482   3.929   2.519  3.9253 -0.6040  0.6368
16644TIP3   OH271422   6.568   0.964   4.919 -0.1983 -0.1969  0.0564
16644TIP3    H171423   6.478   0.948   4.948 -0.3197 -1.5272 -0.9772
16644TIP3    H271424   6.623   0.926   4.988 -0.4424 -0.4926  0.0885
16645TIP3   OH271425   1.390   5.153   2.060 -0.4134  0.1583  0.0110
16645TIP3    H171426   1.407   5.062   2.036 -0.2145  0.3968 -0.7751
16645TIP3    H271427   1.422   5.160   2.150  0.2180 -0.3754 -0.1620
16646TIP3   OH271428   1.165   5.212   2.481 -0.2050  0.2302  0.5896
16646TIP3    H171429   1.225   5.282   2.458 -0.5105  0.9005  1.8056
16646TIP3    H271430   1.190   5.139   2.424  2.4690  0.1366  1.8380
16647TIP3   OH271431   4.969   5.050   3.596 -0.2403  0.6912  0.2109
16647TIP3    H171432   4.952   4.962   3.630 -0.4902  0.2504 -1.0237
16647TIP3    H271433   4.887   5.097   3.609 -1.1753 -0.2439 -2.1023
16648TIP3   OH271434   2.554   2.621   2.001  0.5881 -0.4204  0.7069
16648TIP3    H171435   2.633   2.675   2.005  0.5553 -0.2691 -0.5063
16648TIP3    H271436   2.541   2.605   1.907 -1.4911  0.5500  0.8125
16649TIP3   OH271437   0.436   3.253  14.216  0.1372 -0.6384  0.0599
16649TIP3    H171438   0.395   3.171  14.190  0.9407 -0.9245 -0.3415
16649TIP3    H271439   0.526   3.228  14.238 -0.2180 -0.2365  2.0640
16650TIP3   OH271440   0.722   5.749   5.200  0.2107  0.2745 -0.2865
16650TIP3    H171441   0.735   5.677   5.138 -1.0215  0.5775 -0.9118
16650TIP3    H271442   0.707   5.707   5.284  0.1859 -0.1821 -0.5195
16651TIP3   OH271443   0.539   6.633   2.392  0.5129 -0.2429  0.7723
16651TIP3    H171444   0.468   6.600   2.447  1.0063 -1.0940  0.9228
16651TIP3    H271445   0.496   6.665   2.313 -0.1022 -0.0735  1.1712
16652TIP3   OH271446   4.833   3.459  13.094  0.1175 -0.3996  0.0456
16652TIP3    H171447   4.741   3.442  13.112  0.6275 -2.0761  1.2043
16652TIP3    H271448   4.871   3.482  13.178  0.8858 -0.3141 -0.3164
16653TIP3   OH271449   4.972   6.683   1.924 -0.8006 -0.4754  0.7324
16653TIP3    H171450   5.004   6.630   1.851 -0.7214  2.2703 -1.3379
16653TIP3    H271451   4.878   6.669   1.924 -1.0924  1.2605 -1.4231
16654TIP3   OH271452   5.758   0.058  13.255 -0.7271  0.4792  0.1636
16654TIP3    H171453   5.722   0.017  13.334 -0.5580 -0.9475 -0.4910
16654TIP3    H271454   5.813   0.129  13.288 -1.5728  0.6202  1.2884
16655TIP3   OH271455   6.568   5.561   3.773  0.8464  0.0814 -0.5733
16655TIP3    H171456   6.487   5.568   3.723  0.0669 -0.2188  0.6240
16655TIP3    H271457   6.620   5.637   3.747  0.5363 -0.1601 -1.9521
16656TIP3   OH271458   2.091   4.566   1.143  1.1568 -0.4358 -0.2602
16656TIP3    H171459   2.108   4.488   1.091  0.3140 -0.3985 -0.5899
16656TIP3    H271460   2.164   4.569   1.206  1.9384 -0.7112 -1.1422
16657TIP3   OH271461   6.129   0.062   4.173  0.1899  0.0221  0.1247
16657TIP3    H171462   6.098   0.100   4.091  1.9938  0.7296 -0.2712
16657TIP3    H271463   6.098   0.122   4.240 -2.7396 -1.4598  0.1511
16658TIP3   OH271464   5.875   2.008  10.617 -0.3140 -0.4693 -1.1323
16658TIP3    H171465   5.932   1.933  10.634  0.2309 -0.2736 -2.0202
16658TIP3    H271466   5.864   2.051  10.702  1.9804  0.2612 -1.1632
16659TIP3   OH271467   2.739   3.929   3.539  0.4576  0.4117  0.2573
16659TIP3    H171468   2.833   3.927   3.523  0.7517 -1.1999  2.0375
16659TIP3    H271469   2.726   4.005   3.596  0.5049  1.2609 -0.8335
16660TIP3   OH271470   3.774   2.755  10.489  0.2631 -0.2509  0.3230
16660TIP3    H171471   3.766   2.817  10.415  2.3077 -0.3544 -0.0211
16660TIP3    H271472   3.729   2.798  10.561 -0.4569  0.5470 -0.5894
16661TIP3   OH271473   0.858   0.232   3.336 -0.6460  0.1043 -0.3508
16661TIP3    H171474   0.830   0.233   3.428  0.1701 -1.1271 -0.0714
16661TIP3    H271475   0.882   0.140   3.320  2.1076  0.8855 -0.8983
16662TIP3   OH271476   4.167   2.647   2.708  0.3342 -0.1290 -0.1274
16662TIP3    H171477   4.143   2.561   2.672 -0.9320  0.2172 -0.1206
16662TIP3    H271478   4.125   2.649   2.794 -2.2992  1.7275 -1.3693
16663TIP3   OH271479   0.062   6.672   0.635  0.1916 -0.3553  0.2058
16663TIP3    H171480   0.043   6.763   0.657  0.5708 -0.6381  1.7652
16663TIP3    H271481   0.155   6.661   0.656 -0.0879 -1.3615  0.9841
16664TIP3   OH271482   5.390   4.086   0.248 -0.5407 -0.6902  0.0579
16664TIP3    H171483   5.417   4.075   0.339 -3.0224 -1.5477  0.7314
16664TIP3    H271484   5.332   4.163   0.249 -0.8250 -0.8892 -0.7344
16665TIP3   OH271485   5.750   0.420   5.354 -0.1650  0.4753  0.3736
16665TIP3    H171486   5.821   0.471   5.393 -0.2433  0.1174  0.9950
16665TIP3    H271487   5.687   0.486   5.324  0.2433  0.7810  0.1824
16666TIP3   OH271488   6.739   0.626   5.640  0.0192  0.3802 -0.7290
16666TIP3    H171489   6.704   0.540   5.663  2.1729 -1.0025 -2.4444
16666TIP3    H271490   6.802   0.645   5.709 -0.8701  0.8854 -0.0346
16667TIP3   OH271491   4.286   5.843   0.799  0.1309 -0.3034 -0.5748
16667TIP3    H171492   4.296   5.760   0.846  0.2908  0.1778  0.2447
16667TIP3    H271493   4.229   5.895   0.854 -1.3853 -0.4861 -1.9184
16668TIP3   OH271494   4.027   4.202  13.716  0.2280  0.1698  0.2733
16668TIP3    H171495   3.968   4.272  13.743 -0.0044 -0.1222  0.5287
16668TIP3    H271496   4.106   4.247  13.685  0.0871  0.5413  0.4561
16669TIP3   OH271497   2.584   6.669  14.313 -0.1557  0.3067 -0.1980
16669TIP3    H171498   2.538   6.597  14.358 -1.6115  0.6715 -1.0965
16669TIP3    H271499   2.588   6.641  14.222 -0.7921  1.3942 -0.5648
16670TIP3   OH271500   4.063   6.728   5.816 -0.2879 -0.6521  0.1994
16670TIP3    H171501   4.037   6.792   5.883 -2.1026  1.5662 -2.5068
16670TIP3    H271502   4.011   6.650   5.835 -0.3537 -0.2578  1.6978
16671TIP3   OH271503   3.784   1.814  15.962  0.2404 -0.2355 -0.2500
16671TIP3    H171504   3.740   1.801  16.046 -0.5428 -1.3548 -0.8171
16671TIP3    H271505   3.730   1.766  15.900  1.9189 -1.1029 -1.0661
16672TIP3   OH271506   0.429   0.956   1.885  0.0014 -0.2826 -0.2475
16672TIP3    H171507   0.394   1.018   1.821  0.1825 -0.9571 -1.0145
16672TIP3    H271508   0.361   0.948   1.951 -0.1813  0.4409 -0.3523
16673TIP3   OH271509   3.645   1.300  14.826 -0.1360  0.4893  0.3386
16673TIP3    H171510   3.719   1.240  14.816 -1.1195 -0.7632  0.5827
16673TIP3    H271511   3.663   1.347  14.908 -0.5889 -1.1752  1.3955
16674TIP3   OH271512   3.609   2.717   4.988  0.6825 -0.1776 -0.0232
16674TIP3    H171513   3.614   2.627   5.018  2.1095 -0.3897 -0.8311
16674TIP3    H271514   3.699   2.739   4.963  0.1419  1.0785 -0.9379
16675TIP3   OH271515   0.352   1.719   4.476  0.0643  0.1331  0.1266
16675TIP3    H171516   0.368   1.659   4.403  3.6652  1.8829 -0.6629
16675TIP3    H271517   0.353   1.663   4.554 -1.5419 -1.4427 -0.9577
16676TIP3   OH271518   4.639   3.909   3.887  0.8596 -0.0515  0.2692
16676TIP3    H171519   4.635   3.814   3.895 -1.3026  0.1483  2.1032
16676TIP3    H271520   4.595   3.929   3.805  1.2770 -0.6197 -0.0966
16677TIP3   OH271521   2.415   3.439  13.098 -0.1458  0.5010  0.1565
16677TIP3    H171522   2.474   3.439  13.022  0.5392 -1.4762  0.6525
16677TIP3    H271523   2.372   3.524  13.095  1.2967  1.2077 -1.3470
16678TIP3   OH271524   4.111   0.731  16.955  0.7075  0.2383  0.1737
16678TIP3    H171525   4.139   0.693  17.038  0.6041 -3.0088 -1.1923
16678TIP3    H271526   4.020   0.704  16.945  0.5461  1.0639 -0.7358
16679TIP3   OH271527   4.113   2.337  12.819  0.6878 -0.6373  0.1656
16679TIP3    H171528   4.187   2.280  12.799  1.0937 -0.2600  0.5710
16679TIP3    H271529   4.113   2.343  12.915  0.8974  0.3672  0.1085
16680TIP3   OH271530   5.736   5.527   1.316  0.3772  0.0852  0.4903
16680TIP3    H171531   5.711   5.467   1.386 -0.6651 -1.4096 -1.1213
16680TIP3    H271532   5.810   5.483   1.273 -1.3979 -0.8473 -1.6817
16681TIP3   OH271533   6.323   5.030   0.509  0.3785  0.0489 -0.2219
16681TIP3    H171534   6.258   5.037   0.439  1.4281  1.1918 -1.1060
16681TIP3    H271535   6.349   4.938   0.509 -0.0305 -0.0640 -0.9673
16682TIP3   OH271536   5.252   0.156  16.087  0.4852  0.3768 -0.1952
16682TIP3    H171537   5.248   0.241  16.129 -0.1813  0.1559  0.2005
16682TIP3    H271538   5.215   0.170  16.000  0.5818  0.5412 -0.2091
16683TIP3   OH271539   3.173   1.048   1.119 -0.3215  0.1354  0.5364
16683TIP3    H171540   3.230   1.019   1.190 -0.2817  2.1152  1.3695
16683TIP3    H271541   3.211   1.131   1.090 -1.4372  0.3110 -0.4895
16684TIP3   OH271542   2.423   3.100  12.311 -0.4285 -0.2806  0.3108
16684TIP3    H171543   2.423   3.008  12.338 -2.5604 -0.5526 -0.5497
16684TIP3    H271544   2.335   3.131  12.332  0.2747  1.5761  0.5884
16685TIP3   OH271545   1.970   5.191   6.346  0.0901 -0.0452 -0.0743
16685TIP3    H171546   1.913   5.126   6.307  2.0089 -1.6970 -0.2229
16685TIP3    H271547   1.950   5.187   6.440 -1.3285  0.7300 -0.3273
16686TIP3   OH271548   4.744   0.016   5.413  1.0284  0.4827  0.2224
16686TIP3    H171549   4.833   0.042   5.436  2.1345 -1.4528 -1.7677
16686TIP3    H271550   4.711   0.087   5.359  1.8887  0.5321 -0.2356
16687TIP3   OH271551   4.219   3.826  12.321  0.0064 -0.7061 -0.3994
16687TIP3    H171552   4.313   3.830  12.302 -0.2421 -1.9048 -2.1001
16687TIP3    H271553   4.178   3.825  12.234 -1.5202 -1.0956  0.3127
16688TIP3   OH271554   1.607   2.994   4.386  0.1737 -0.1667  0.1366
16688TIP3    H171555   1.547   3.045   4.440  0.1096 -0.9171  0.7945
16688TIP3    H271556   1.693   3.032   4.401  0.0062  0.2631 -0.0084
16689TIP3   OH271557   4.233   2.374  11.401  0.9819 -0.0843  0.6992
16689TIP3    H171558   4.299   2.311  11.429  1.7558  0.3009 -0.2074
16689TIP3    H271559   4.271   2.415  11.323 -1.7690 -2.3499 -1.9993
16690TIP3   OH271560   5.496   2.753  16.896 -0.1034 -0.4120  0.1915
16690TIP3    H171561   5.431   2.715  16.955  0.5417 -0.3954  0.9229
16690TIP3    H271562   5.536   2.824  16.947  0.5475 -0.4827 -0.2216
16691TIP3   OH271563   0.782   2.210  17.065 -0.5690 -0.3109  0.0568
16691TIP3    H171564   0.693   2.240  17.049 -0.5207 -0.4155 -0.4022
16691TIP3    H271565   0.829   2.289  17.093 -0.8106 -0.2601  0.3234
16692TIP3   OH271566   3.487   2.997  10.982 -0.7484  0.4466  0.3601
16692TIP3    H171567   3.513   3.027  10.895 -0.5133  2.0965  0.9882
16692TIP3    H271568   3.391   3.003  10.982 -0.8091 -0.5180 -0.1271
16693TIP3   OH271569   3.627   1.702  15.780  0.4224 -0.2224 -0.2502
16693TIP3    H171570   3.575   1.637  15.732  0.6474 -0.2226 -0.4932
16693TIP3    H271571   3.628   1.779  15.723  0.0930  0.0220  0.0732
16694TIP3   OH271572   0.164   3.899  14.674  0.2570 -0.8721 -0.3325
16694TIP3    H171573   0.226   3.927  14.607  0.1311 -2.3013 -1.0687
16694TIP3    H271574   0.143   3.979  14.722  1.6318 -0.1370 -0.9252
16695TIP3   OH271575   1.058   1.287  14.168  0.1523  0.1881  0.4310
16695TIP3    H171576   0.983   1.270  14.111  0.9890 -0.5313 -0.4687
16695TIP3    H271577   1.134   1.277  14.111  0.9945 -0.4589  1.6519
16696TIP3   OH271578   5.506   2.553   6.394  0.0480 -0.7166  0.5704
16696TIP3    H171579   5.558   2.487   6.441  0.4923 -1.1143 -0.4689
16696TIP3    H271580   5.492   2.515   6.307 -3.5072 -1.4218  1.3614
16697TIP3   OH271581   5.436   4.024  10.978  0.0921 -0.3430  0.1500
16697TIP3    H171582   5.355   4.025  11.028  0.5761  0.0176  0.9457
16697TIP3    H271583   5.411   4.051  10.890 -0.7849 -1.0569  0.1663
16698TIP3   OH271584   0.256   0.659  13.401 -0.2378 -0.4191  0.1327
16698TIP3    H171585   0.192   0.614  13.346 -1.2424  0.6627  0.3856
16698TIP3    H271586   0.341   0.627  13.371 -0.9589 -3.6438  1.3520
16699TIP3   OH271587   2.856   2.882  15.530  0.3668  0.1594 -0.4590
16699TIP3    H171588   2.929   2.920  15.481  2.0717 -0.6364  1.4178
16699TIP3    H271589   2.863   2.788  15.513 -1.1773  0.2185 -1.5139
16700TIP3   OH271590   5.561   6.452   1.380  0.0395 -0.4820  0.0316
16700TIP3    H171591   5.518   6.537   1.374  2.0881  0.4828 -1.5498
16700TIP3    H271592   5.500   6.391   1.339 -1.7715  0.0556  1.8488
16701TIP3   OH271593   2.641   0.315  12.755 -0.0820 -0.0402  0.0980
16701TIP3    H171594   2.556   0.279  12.779  0.7395 -1.9260  0.2842
16701TIP3    H271595   2.698   0.294  12.829  0.5925  1.0367 -0.1057
16702TIP3   OH271596   0.783   5.541  16.008 -0.0410 -0.3170  0.3645
16702TIP3    H171597   0.792   5.462  15.955  0.5081  0.7748 -1.1869
16702TIP3    H271598   0.869   5.553  16.048  1.0137  1.5764 -2.3809
16703TIP3   OH271599   3.592   4.924   0.897  0.3169  0.4981  0.7183
16703TIP3    H171600   3.522   4.869   0.932 -0.0638  0.2300 -0.4578
16703TIP3    H271601   3.647   4.864   0.846 -0.8145  1.4094 -1.6510
16704TIP3   OH271602   1.590   4.734  15.308 -0.4172 -0.8990 -1.0603
16704TIP3    H171603   1.643   4.812  15.293 -1.2576  0.2125  1.4528
16704TIP3    H271604   1.521   4.738  15.242  0.7663 -0.6553 -2.2975
16705TIP3   OH271605   5.199   1.023   3.370 -0.1243 -0.0734 -0.5343
16705TIP3    H171606   5.153   0.940   3.353 -1.4135  1.0457 -2.8337
16705TIP3    H271607   5.175   1.046   3.459 -0.7783 -1.5437 -0.3127
16706TIP3   OH271608   6.431   0.549  12.891 -0.2687 -0.3896 -0.1572
16706TIP3    H171609   6.499   0.610  12.864 -3.4717  3.1894 -0.5284
16706TIP3    H271610   6.386   0.525  12.810 -0.2597 -1.7414  0.2230
16707TIP3   OH271611   2.768   6.017  11.027  0.5459  0.3124  0.1107
16707TIP3    H171612   2.806   6.105  11.025 -0.1127  0.6336  1.2690
16707TIP3    H271613   2.785   5.986  11.116 -2.4209  0.7120  0.8799
16708TIP3   OH271614   1.676   5.776  10.841 -0.8545  0.0285 -0.1413
16708TIP3    H171615   1.698   5.863  10.873  2.3254 -0.1861 -1.4925
16708TIP3    H271616   1.638   5.790  10.755 -1.4662  0.1317  0.1427
16709TIP3   OH271617   1.261   0.917  11.966 -0.4002  0.3499  0.2636
16709TIP3    H171618   1.248   0.957  12.052  1.2500  1.2579  0.1052
16709TIP3    H271619   1.323   0.975  11.922 -0.2688 -0.7965 -1.0764
16710TIP3   OH271620   6.365   2.037  16.194  0.7645  0.5867  0.0133
16710TIP3    H171621   6.295   2.102  16.195 -2.3954 -2.6751  1.0073
16710TIP3    H271622   6.395   2.032  16.285 -0.5017 -0.8376  0.3700
16711TIP3   OH271623   0.526   3.483  14.705  0.5322  0.7144 -0.2899
16711TIP3    H171624   0.619   3.482  14.728  0.1183  2.9004  1.6704
16711TIP3    H271625   0.496   3.393  14.720  2.0377  0.3117  0.3433
16712TIP3   OH271626   3.795   5.235  11.167  0.5052 -0.2033  0.4022
16712TIP3    H171627   3.860   5.244  11.097  0.0220 -1.1296 -0.1835
16712TIP3    H271628   3.843   5.194  11.239  0.7170 -0.3733  0.1685
16713TIP3   OH271629   3.270   4.758  14.793  0.7010  0.1785 -0.0833
16713TIP3    H171630   3.197   4.774  14.852  1.1546  0.0400  0.5239
16713TIP3    H271631   3.340   4.724  14.850  1.1147 -0.0254 -0.7078
16714TIP3   OH271632   4.851   3.166   1.858  0.5146 -0.2297  0.1228
16714TIP3    H171633   4.841   3.077   1.890  1.1586  0.2552  1.7566
16714TIP3    H271634   4.837   3.221   1.935  3.9192  0.8968  0.0359
16715TIP3   OH271635   4.328   5.174   3.719 -0.2400  0.6963  0.3173
16715TIP3    H171636   4.399   5.127   3.675 -0.7365  1.2417 -1.0999
16715TIP3    H271637   4.339   5.152   3.811  1.4922  0.3989  0.0702
16716TIP3   OH271638   2.264   5.539   6.415  0.0235  0.2533  0.1117
16716TIP3    H171639   2.340   5.576   6.459  0.2371 -1.1961  1.0050
16716TIP3    H271640   2.208   5.507   6.485 -1.1379  0.7519 -0.5625
16717TIP3   OH271641   5.406   3.804   1.593  0.4449 -0.6700  0.1643
16717TIP3    H171642   5.354   3.814   1.514  0.8604 -0.1413 -0.0529
16717TIP3    H271643   5.477   3.744   1.568 -0.3234 -1.7552  0.5934
16718TIP3   OH271644   2.441   4.354   2.169 -0.2618  0.2067 -0.1912
16718TIP3    H171645   2.526   4.345   2.126 -0.5462 -1.8078 -0.3617
16718TIP3    H271646   2.403   4.266   2.166 -1.3523  0.5728  1.9637
16719TIP3   OH271647   6.029   4.728  14.922  0.1158  0.1010 -0.0223
16719TIP3    H171648   5.981   4.796  14.874 -1.2811 -2.4666 -2.3692
16719TIP3    H271649   5.985   4.725  15.007 -2.1554 -0.2964 -1.1630
16720TIP3   OH271650   4.307   5.562   6.057 -0.1267  0.3513  0.2632
16720TIP3    H171651   4.275   5.551   6.147  0.0696 -0.6106  0.2149
16720TIP3    H271652   4.229   5.549   6.003  0.3414 -2.0422  0.1433
16721TIP3   OH271653   6.294   6.344   5.947  0.4535 -0.3069  0.0868
16721TIP3    H171654   6.385   6.317   5.950  0.5741 -0.0095 -0.8701
16721TIP3    H271655   6.264   6.320   5.860  0.4140  2.1045 -0.5990
16722TIP3   OH271656   0.856   4.461   0.932  0.0705 -0.1983  0.6560
16722TIP3    H171657   0.858   4.380   0.880 -1.0288  0.2705 -0.1420
16722TIP3    H271658   0.870   4.432   1.022 -3.3647 -1.6868  0.8125
16723TIP3   OH271659   3.084   6.420   2.295  0.7142 -0.3870 -0.2815
16723TIP3    H171660   3.025   6.468   2.354  0.4151 -1.9223  0.7274
16723TIP3    H271661   3.168   6.466   2.302  0.0819  0.7834 -0.3779
16724TIP3   OH271662   5.930   3.392   2.053 -0.1676  0.2654 -0.9529
16724TIP3    H171663   5.884   3.314   2.084  0.7752  0.0125 -0.1596
16724TIP3    H271664   5.957   3.437   2.133  0.8492  0.4719 -1.4066
16725TIP3   OH271665   0.687   0.750   1.602  0.4124 -0.3444  0.8245
16725TIP3    H171666   0.687   0.841   1.573  1.2024 -0.1525  1.4153
16725TIP3    H271667   0.604   0.739   1.649  0.0566 -0.0918  0.2553
16726TIP3   OH271668   2.310   2.240   3.329  0.2177 -1.1847 -0.7594
16726TIP3    H171669   2.284   2.187   3.404  0.3954 -0.8257 -0.4374
16726TIP3    H271670   2.332   2.177   3.261  0.9018 -1.5451 -0.2211
16727TIP3   OH271671   5.006   0.522  12.218  0.0196  0.1197  0.3872
16727TIP3    H171672   5.032   0.430  12.226  0.1623  0.1241 -0.0054
16727TIP3    H271673   4.942   0.535  12.287 -0.4743 -0.4463  0.0399
16728TIP3   OH271674   4.800   6.637   4.457 -0.2848  0.1335 -0.3508
16728TIP3    H171675   4.888   6.628   4.421  0.0157 -0.4786  0.5304
16728TIP3    H271676   4.770   6.547   4.472 -0.3995  0.3662  0.9138
16729TIP3   OH271677   2.401   1.174  11.913 -0.2036  0.1142 -0.3209
16729TIP3    H171678   2.385   1.242  11.848 -0.8186 -0.2376 -0.5445
16729TIP3    H271679   2.381   1.215  11.997  1.4145  0.8324 -0.2690
16730TIP3   OH271680   1.695   1.140   0.868 -0.0787 -0.7197 -0.5424
16730TIP3    H171681   1.621   1.162   0.924  0.1418 -1.9802  0.2792
16730TIP3    H271682   1.656   1.111   0.786 -0.6559 -3.9970  0.8095
16731TIP3   OH271683   1.445   1.054  11.132  0.1994  0.4376 -0.0211
16731TIP3    H171684   1.457   0.981  11.193  0.5544  0.5241  0.0153
16731TIP3    H271685   1.507   1.036  11.061 -0.7444 -0.0580 -0.7320
16732TIP3   OH271686   5.081   4.800   5.523 -0.0706 -0.1697  0.4500
16732TIP3    H171687   5.055   4.888   5.496 -1.2150 -0.7750 -0.4424
16732TIP3    H271688   5.024   4.779   5.596 -1.8183 -1.3128 -1.2101
16733TIP3   OH271689   2.681   5.525  13.673  0.2774  0.2127  0.4515
16733TIP3    H171690   2.744   5.534  13.602 -0.9292 -0.4917 -0.7425
16733TIP3    H271691   2.598   5.555  13.636 -0.2693  0.3611  1.7424
16734TIP3   OH271692   0.299   4.064   2.259  0.4120  0.2258  0.3532
16734TIP3    H171693   0.230   4.130   2.251 -1.2348 -1.5025 -0.0801
16734TIP3    H271694   0.344   4.087   2.341 -0.8085  1.2593  0.7602
16735TIP3   OH271695   2.407   5.568   4.340  0.0501 -0.4313 -0.5568
16735TIP3    H171696   2.415   5.575   4.245  0.8697 -2.5788 -0.6688
16735TIP3    H271697   2.448   5.648   4.374 -1.3932  0.9750 -2.0203
16736TIP3   OH271698   6.603   2.349   3.939  0.3980  0.0081 -0.1326
16736TIP3    H171699   6.520   2.355   3.985  0.2462 -2.0840 -0.1117
16736TIP3    H271700   6.581   2.322   3.850  1.1292 -1.5995  0.1658
16737TIP3   OH271701   5.514   1.211  11.801 -0.3217  0.5125 -0.0380
16737TIP3    H171702   5.485   1.127  11.837  1.4146  0.6786  1.8899
16737TIP3    H271703   5.507   1.201  11.706  0.7735 -2.1607  0.1324
16738TIP3   OH271704   1.790   2.848  14.347 -0.4137 -0.2583  0.1225
16738TIP3    H171705   1.831   2.933  14.328  2.4798 -1.7495 -0.6408
16738TIP3    H271706   1.727   2.866  14.417 -0.9932  2.7850 -1.1096
16739TIP3   OH271707   5.031   0.844  13.629  0.0160  0.6588  0.2806
16739TIP3    H171708   5.075   0.907  13.572 -0.2961  0.7000  0.0825
16739TIP3    H271709   4.967   0.801  13.572  2.2163 -1.9342 -0.3484
16740TIP3   OH271710   0.691   4.129   3.039  0.0698 -0.0594  0.1489
16740TIP3    H171711   0.662   4.140   3.130 -1.2809 -0.8383 -0.1763
16740TIP3    H271712   0.738   4.046   3.038 -0.0020 -0.0998  0.1177
16741TIP3   OH271713   1.645   4.922  12.654  0.7149 -0.0863  0.3552
16741TIP3    H171714   1.701   4.940  12.578 -1.3591 -0.3240 -1.2934
16741TIP3    H271715   1.589   4.849  12.626 -0.6713  0.3831  1.7953
16742TIP3   OH271716   1.855   4.078   3.362  0.1575  0.0599  0.2020
16742TIP3    H171717   1.885   4.007   3.419 -0.6040 -0.5888 -0.1993
16742TIP3    H271718   1.936   4.121   3.333  0.6286 -0.7465  0.3037
16743TIP3   OH271719   6.306   0.309  12.934 -0.3456  0.0944  0.0504
16743TIP3    H171720   6.216   0.340  12.930 -0.6758 -0.9029 -0.4627
16743TIP3    H271721   6.359   0.388  12.927 -1.1434  0.4316 -2.8372
16744TIP3   OH271722   6.228   2.400   1.759  0.2971  0.0641 -0.4544
16744TIP3    H171723   6.272   2.315   1.756  0.9921  0.3689  0.7501
16744TIP3    H271724   6.137   2.381   1.737  0.2047 -1.1623  0.9514
16745TIP3   OH271725   2.225   2.751   0.759  0.0240 -0.0688 -0.6656
16745TIP3    H171726   2.276   2.672   0.741 -0.8606 -0.9000  0.4356
16745TIP3    H271727   2.150   2.720   0.810 -0.5181  1.4361 -0.5334
16746TIP3   OH271728   4.784   2.302  13.586 -0.7615  0.0115  0.0029
16746TIP3    H171729   4.759   2.210  13.583 -3.3860  0.6665  0.2056
16746TIP3    H271730   4.737   2.337  13.662  0.4341  1.4519  0.0933
16747TIP3   OH271731   1.238   2.680  13.120  0.0077  0.0526 -0.5172
16747TIP3    H171732   1.265   2.624  13.193 -2.5974  0.4549  0.8211
16747TIP3    H271733   1.258   2.769  13.149 -1.7235  0.2703  0.0505
16748TIP3   OH271734   3.027   2.869  16.085  0.2146  0.2653 -0.2401
16748TIP3    H171735   3.077   2.809  16.030  1.6524  1.1681  0.0728
16748TIP3    H271736   2.989   2.932  16.024 -0.6369 -0.4779 -0.4853
16749TIP3   OH271737   0.676   1.432  12.822 -0.5994 -0.6574  0.2294
16749TIP3    H171738   0.732   1.507  12.843  0.1241 -0.6007 -1.7384
16749TIP3    H271739   0.696   1.367  12.890  0.0217  0.3015  0.9704
16750TIP3   OH271740   0.990   3.639  14.754 -0.0485  0.0091  0.2818
16750TIP3    H171741   0.993   3.711  14.692 -0.3047 -0.7996 -0.6909
16750TIP3    H271742   0.952   3.677  14.834  2.2899  1.5807  0.6966
16751TIP3   OH271743   2.091   0.480   1.941 -0.4734 -0.2701  0.2096
16751TIP3    H171744   2.042   0.398   1.936 -1.6085  0.3797  0.5954
16751TIP3    H271745   2.039   0.536   1.999 -0.2153  1.0860 -0.8434
16752TIP3   OH271746   6.777   5.901   1.696  0.0834 -0.0951  0.4247
16752TIP3    H171747   6.688   5.872   1.677 -0.4632 -0.1806  2.8665
16752TIP3    H271748   6.777   5.994   1.674  0.2008 -0.6479 -2.0849
16753TIP3   OH271749   0.768   5.447   4.677 -0.2271 -0.4347  0.0599
16753TIP3    H171750   0.823   5.424   4.752 -0.8591 -0.7514  0.4257
16753TIP3    H271751   0.687   5.481   4.715 -0.5194 -0.5233 -0.4777
16754TIP3   OH271752   2.682   3.590  12.829  0.1701  1.0527 -0.2526
16754TIP3    H171753   2.709   3.650  12.760  0.8090  0.2288 -0.7233
16754TIP3    H271754   2.719   3.506  12.804  1.6911  1.0448  1.8535
16755TIP3   OH271755   5.321   0.762  17.124  0.0826  0.3572 -0.3565
16755TIP3    H171756   5.293   0.746  17.034  3.8885  0.1876 -1.5978
16755TIP3    H271757   5.330   0.674  17.161  3.1084  0.1770 -1.3773
16756TIP3   OH271758   6.785   6.727   3.731  0.1379 -0.2603 -0.0806
16756TIP3    H171759   6.768   6.636   3.709  0.5644 -0.5022  0.5817
16756TIP3    H271760   6.878   6.729   3.755 -0.2862  0.0155  1.5683
16757TIP3   OH271761   2.528   0.618   2.690 -0.3700  0.0882  0.1600
16757TIP3    H171762   2.606   0.660   2.725 -0.4017  0.6014 -0.3703
16757TIP3    H271763   2.561   0.545   2.638 -0.3714 -1.3450  2.1300
16758TIP3   OH271764   0.974   6.760   5.147 -0.4575 -0.3496  0.1763
16758TIP3    H171765   1.037   6.801   5.089 -0.7781 -1.3556 -0.9018
16758TIP3    H271766   1.027   6.719   5.216  0.0939 -1.4315 -0.8802
16759TIP3   OH271767   6.063   0.532   2.020  0.3913 -0.5821  0.9575
16759TIP3    H171768   6.001   0.462   2.001  0.1947 -0.1156 -0.1436
16759TIP3    H271769   6.031   0.607   1.969  0.7236  0.2469  1.9494
16760TIP3   OH271770   3.931   4.822   1.284  0.0892 -0.1870  0.3447
16760TIP3    H171771   3.992   4.848   1.215  3.0914 -0.2607  2.8156
16760TIP3    H271772   3.940   4.890   1.351 -3.2824  0.2670  0.4055
16761TIP3   OH271773   6.503   1.075   2.781  0.0292  0.4871  0.0545
16761TIP3    H171774   6.453   1.133   2.840 -1.0914  0.5006 -0.8824
16761TIP3    H271775   6.435   1.028   2.732  0.9574 -0.1041 -0.6623
16762TIP3   OH271776   3.088   5.969  15.721  0.0925  0.0447  0.1259
16762TIP3    H171777   3.131   5.934  15.799  0.4765 -1.2378 -0.6531
16762TIP3    H271778   3.150   6.033  15.686  0.0012  0.4830  0.7615
16763TIP3   OH271779   4.128   4.303   4.321  0.5293 -0.1104  0.0410
16763TIP3    H171780   4.111   4.258   4.239  0.9464 -0.4669  0.1499
16763TIP3    H271781   4.066   4.264   4.383 -1.6415  1.9776 -0.7031
16764TIP3   OH271782   2.742   3.655   2.154  0.2672  0.2310 -0.4041
16764TIP3    H171783   2.791   3.632   2.233 -1.2612  0.6946  0.6861
16764TIP3    H271784   2.671   3.591   2.150 -1.8022  2.4148  0.5985
16765TIP3   OH271785   5.996   5.591  12.207 -0.2237 -0.6404 -0.0369
16765TIP3    H171786   6.003   5.504  12.245 -0.8407 -1.4996 -1.8542
16765TIP3    H271787   6.061   5.643  12.255 -0.9432 -1.6828  2.1232
16766TIP3   OH271788   3.831   2.156   1.486  0.4760 -0.1348 -0.1095
16766TIP3    H171789   3.903   2.100   1.459  0.2780 -0.2907 -0.3153
16766TIP3    H271790   3.773   2.159   1.410 -0.4372 -1.1535  0.5415
16767TIP3   OH271791   6.184   3.789  12.116 -0.2704  0.0745 -0.2308
16767TIP3    H171792   6.254   3.729  12.141 -0.5081 -0.0059  0.2561
16767TIP3    H271793   6.190   3.860  12.179 -0.3406  0.2900 -0.4665
16768TIP3   OH271794   5.097   6.799   1.341  0.1818 -0.2727 -0.5135
16768TIP3    H171795   5.163   6.854   1.385  0.9151 -0.6030 -1.1992
16768TIP3    H271796   5.055   6.858   1.278 -2.3883  0.8059  2.1029
16769TIP3   OH271797   1.994   1.041   1.815 -0.4109 -0.4263 -0.2306
16769TIP3    H171798   1.986   1.029   1.909 -2.5518 -2.0486 -0.5900
16769TIP3    H271799   1.948   1.123   1.797 -1.6198 -1.0757 -0.1045
16770TIP3   OH271800   3.552   4.583   0.569 -0.4778  0.0753 -0.6111
16770TIP3    H171801   3.484   4.530   0.529 -2.0333  0.4539  1.4874
16770TIP3    H271802   3.518   4.606   0.655  1.9327  1.0013  0.1411
16771TIP3   OH271803   0.502   1.825   0.461 -0.2797  0.5312  0.2051
16771TIP3    H171804   0.486   1.919   0.473  0.9823  0.7280  0.4055
16771TIP3    H271805   0.445   1.800   0.388 -0.5475  1.4686  0.0879
16772TIP3   OH271806   2.690   0.198  16.068  0.1923 -0.0380 -0.0699
16772TIP3    H171807   2.700   0.278  16.119  0.7070 -0.1510  0.0134
16772TIP3    H271808   2.706   0.127  16.130  1.0402 -0.1711 -0.4237
16773TIP3   OH271809   0.361   3.003   4.393 -0.3188  0.2011 -0.2688
16773TIP3    H171810   0.393   3.086   4.429  0.8443  0.2310 -1.3285
16773TIP3    H271811   0.409   2.936   4.442  0.2919  0.2118 -0.8440
16774TIP3   OH271812   5.808   0.712   3.117 -0.2639  0.9678 -0.4384
16774TIP3    H171813   5.814   0.742   3.208  0.3193  0.4288 -0.2919
16774TIP3    H271814   5.898   0.713   3.085 -0.0901 -1.4842 -0.1316
16775TIP3   OH271815   6.225   2.060   5.467 -0.4067  0.1908 -0.0515
16775TIP3    H171816   6.278   2.055   5.546  0.1810 -0.7352 -0.5010
16775TIP3    H271817   6.168   1.984   5.471 -0.3777  0.1418 -0.5137
16776TIP3   OH271818   1.945   2.139  14.211  0.0715 -0.5987 -0.4522
16776TIP3    H171819   1.890   2.069  14.246 -0.7753  0.3056  0.0653
16776TIP3    H271820   2.015   2.094  14.164 -0.2785 -1.7915  0.1521
16777TIP3   OH271821   0.871   1.027  16.731 -0.1257 -0.3849 -0.0582
16777TIP3    H171822   0.919   1.103  16.698  0.3601 -0.4137  0.5870
16777TIP3    H271823   0.790   1.064  16.767  0.3648 -0.1070  0.7726
16778TIP3   OH271824   4.197   4.169  14.236  0.3347 -0.2631 -0.4341
16778TIP3    H171825   4.187   4.213  14.320  1.4756  1.3017 -1.1179
16778TIP3    H271826   4.148   4.223  14.174  0.1656 -0.9791 -0.9416
16779TIP3   OH271827   3.847   2.959   0.815  0.1203  0.0234 -0.2328
16779TIP3    H171828   3.905   3.034   0.802  1.1912 -0.8656 -0.6855
16779TIP3    H271829   3.768   2.982   0.766  0.7223  0.5381 -0.9957
16780TIP3   OH271830   4.636   3.166  10.788  0.4085  0.2433 -0.0124
16780TIP3    H171831   4.664   3.083  10.826  2.6535  0.9506 -0.0491
16780TIP3    H271832   4.566   3.197  10.845 -0.2245 -1.5194  0.1809
16781TIP3   OH271833   3.097   1.797   5.031 -0.3672 -0.2357 -0.3616
16781TIP3    H171834   3.116   1.890   5.029  1.7987 -0.6771 -2.4373
16781TIP3    H271835   3.003   1.791   5.019 -0.6349  1.6823  0.5963
16782TIP3   OH271836   5.446   5.535  17.214  0.0327 -0.3650  0.5163
16782TIP3    H171837   5.440   5.440  17.205  0.7982 -0.3929  0.3086
16782TIP3    H271838   5.510   5.561  17.148 -0.0429  0.2722  0.6941
16783TIP3   OH271839   4.934   0.308   6.016 -0.3289 -0.1429  0.7431
16783TIP3    H171840   4.954   0.254   6.093 -0.4881 -0.1219  0.7985
16783TIP3    H271841   4.893   0.387   6.052 -0.8282 -0.3404  0.5979
16784TIP3   OH271842   0.312   0.451   4.577 -0.6603  0.3323 -0.3420
16784TIP3    H171843   0.264   0.492   4.649 -0.6717  0.5324 -0.4634
16784TIP3    H271844   0.343   0.367   4.613  0.2789  0.9228  0.2388
16785TIP3   OH271845   0.343   3.091  16.614 -0.0177 -0.4838  0.7426
16785TIP3    H171846   0.374   3.141  16.539  0.6919 -2.8035 -0.5916
16785TIP3    H271847   0.396   3.121  16.687 -1.3891  2.5179  0.5651
16786TIP3   OH271848   1.565   2.826  16.346 -0.2555 -0.3975  0.6080
16786TIP3    H171849   1.626   2.892  16.311 -0.3217  0.1561  1.5122
16786TIP3    H271850   1.573   2.752  16.286 -0.8331  0.7559 -0.9275
16787TIP3   OH271851   0.436   1.287   2.821  1.0386  0.2279 -0.0947
16787TIP3    H171852   0.423   1.229   2.747  0.7183 -0.4501  0.4898
16787TIP3    H271853   0.530   1.307   2.820  1.0903 -0.0370 -0.4860
16788TIP3   OH271854   0.202   1.712  13.375 -0.1139  0.2575 -0.2584
16788TIP3    H171855   0.294   1.695  13.357  0.1269  0.0482  1.1388
16788TIP3    H271856   0.203   1.782  13.440 -0.9687  0.9200 -0.9392
16789TIP3   OH271857   3.456   2.528  13.630 -0.0077  0.0364 -0.3276
16789TIP3    H171858   3.407   2.446  13.616  0.0654  0.0560 -0.7005
16789TIP3    H271859   3.483   2.524  13.722 -0.2982 -0.2018 -0.2498
16790TIP3   OH271860   5.134   1.118   2.480 -0.8267 -0.7639 -0.5901
16790TIP3    H171861   5.213   1.082   2.520 -0.1133 -0.2233 -1.4719
16790TIP3    H271862   5.094   1.172   2.549 -0.7038 -1.4471  0.0188
16791TIP3   OH271863   6.300   3.794  11.840 -0.0388  0.0718 -0.1539
16791TIP3    H171864   6.214   3.831  11.821 -0.7049 -1.7410 -0.7548
16791TIP3    H271865   6.320   3.825  11.929 -1.7455 -0.3048  0.3784
16792TIP3   OH271866   1.205   3.790   3.652 -0.0413 -0.1550 -0.1276
16792TIP3    H171867   1.283   3.827   3.611 -1.0831 -0.5395 -2.5643
16792TIP3    H271868   1.217   3.695   3.642  0.9294 -0.4070  2.8933
16793TIP3   OH271869   6.587   4.065   1.705  0.0937  0.0551 -0.2320
16793TIP3    H171870   6.534   4.049   1.627  0.1342  1.7350 -0.6122
16793TIP3    H271871   6.654   3.996   1.703 -1.7016 -1.7469 -0.0372
16794TIP3   OH271872   4.868   0.065   2.874  0.3010 -0.2549 -0.1102
16794TIP3    H171873   4.943   0.087   2.928  0.7356  0.7045 -1.0756
16794TIP3    H271874   4.799   0.125   2.903  0.6823  0.6007 -0.9267
16795TIP3   OH271875   4.605   2.057   3.858 -0.0286 -0.1812 -0.6330
16795TIP3    H171876   4.601   2.148   3.827  1.0490  0.0744 -0.0319
16795TIP3    H271877   4.620   2.005   3.779  1.4044  0.3507 -0.7166
16796TIP3   OH271878   1.714   5.638  13.447 -0.0835  0.1501 -0.2356
16796TIP3    H171879   1.650   5.585  13.400 -2.0211  0.1519  2.3349
16796TIP3    H271880   1.710   5.724  13.405 -0.8573 -0.2076 -0.9043
16797TIP3   OH271881   4.675   5.031   4.181  0.4577  0.1073  0.8502
16797TIP3    H171882   4.740   5.007   4.114 -0.9114 -2.8662  0.5122
16797TIP3    H271883   4.649   5.120   4.157  1.2655 -0.2515 -1.5827
16798TIP3   OH271884   6.395   3.014   4.631  0.0814 -0.2895 -0.4261
16798TIP3    H171885   6.329   3.017   4.562 -0.8029 -0.2265  0.3985
16798TIP3    H271886   6.408   3.106   4.656 -2.3856 -0.5317  2.0348
16799TIP3   OH271887   5.792   1.174   3.723 -0.5105  0.2163  0.4617
16799TIP3    H171888   5.738   1.162   3.801  0.1368 -2.6934  0.5076
16799TIP3    H271889   5.729   1.171   3.650 -1.0114  2.1256  0.7824
16800TIP3   OH271890   0.452   1.315  12.720 -0.7385  0.0490  0.1934
16800TIP3    H171891   0.436   1.272  12.804 -1.6612 -1.9962 -0.9943
16800TIP3    H271892   0.534   1.363  12.734  0.9833 -3.0026  1.2809
16801TIP3   OH271893   6.464   4.781   1.900  0.0048 -0.1029 -0.1963
16801TIP3    H171894   6.394   4.717   1.918 -0.5549  0.7910  0.8818
16801TIP3    H271895   6.514   4.742   1.829 -0.7729 -1.4065 -0.0513
16802TIP3   OH271896   4.700   0.341   3.251 -0.1971  0.1313 -0.3175
16802TIP3    H171897   4.614   0.384   3.251 -0.1917  0.1452 -1.0722
16802TIP3    H271898   4.711   0.311   3.342 -0.9972  0.1328 -0.2118
16803TIP3   OH271899   3.565   3.783   5.648  0.0179 -0.8225  0.3777
16803TIP3    H171900   3.497   3.799   5.582 -0.3425  1.5971  1.2855
16803TIP3    H271901   3.539   3.701   5.689  0.0093 -2.1341 -2.1658
16804TIP3   OH271902   5.022   4.084  13.844 -0.4616  0.1476  0.1765
16804TIP3    H171903   5.038   4.075  13.750 -0.4069 -1.0239  0.2809
16804TIP3    H271904   4.968   4.162  13.853  1.0978  1.3333 -0.6543
16805TIP3   OH271905   1.119   3.310   5.619  0.3077  0.0551 -0.0058
16805TIP3    H171906   1.097   3.261   5.698 -1.2223 -0.3557 -0.6593
16805TIP3    H271907   1.067   3.390   5.625  0.4865  0.2045 -0.4110
16806TIP3   OH271908   1.709   0.208   1.291 -0.4135 -0.0326 -0.1814
16806TIP3    H171909   1.716   0.256   1.208  2.0827  1.9882  1.1502
16806TIP3    H271910   1.799   0.185   1.313 -1.1646 -1.5293  1.4350
16807TIP3   OH271911   5.550   0.806   3.029  0.3957  0.0433 -0.5900
16807TIP3    H171912   5.537   0.900   3.040  0.5757 -0.2894  2.8614
16807TIP3    H271913   5.644   0.793   3.038  0.1534 -0.6892  1.0650
16808TIP3   OH271914   3.721   5.900  15.134  0.3223 -0.0283  0.1913
16808TIP3    H171915   3.676   5.911  15.218 -0.3674 -2.9519  0.2528
16808TIP3    H271916   3.677   5.962  15.075 -0.9301  0.1972  1.3326
16809TIP3   OH271917   3.363   0.631  15.472  0.5523 -0.4926 -0.6206
16809TIP3    H171918   3.289   0.583  15.435  0.1012 -1.5016  1.4876
16809TIP3    H271919   3.344   0.635  15.566  2.0809  1.1943 -0.3482
16810TIP3   OH271920   2.952   2.567   3.830  0.3068  0.0034  0.3589
16810TIP3    H171921   2.998   2.487   3.803  1.6674  1.1134 -0.6251
16810TIP3    H271922   2.942   2.618   3.750  0.3349  1.2835  1.1562
16811TIP3   OH271923   1.422   1.967   3.040 -0.3060  0.1578  0.8392
16811TIP3    H171924   1.427   1.944   2.947  0.0450  1.9995  0.3819
16811TIP3    H271925   1.395   1.886   3.083 -0.7429 -0.6491 -0.8959
16812TIP3   OH271926   4.217   3.394  17.164 -0.6093  0.2687  0.1462
16812TIP3    H171927   4.160   3.345  17.105 -1.7156 -0.4730  1.7717
16812TIP3    H271928   4.245   3.470  17.114  1.0265 -1.9206 -2.4249
16813TIP3   OH271929   4.668   2.316   3.238  0.0389 -0.5418 -0.4125
16813TIP3    H171930   4.615   2.246   3.277  0.1889 -0.4294 -0.0121
16813TIP3    H271931   4.708   2.275   3.161  2.6716 -1.8414  1.5749
16814TIP3   OH271932   5.724   5.660   2.299 -0.0379 -0.5714  0.2166
16814TIP3    H171933   5.724   5.734   2.238 -0.2966  0.6882  1.7195
16814TIP3    H271934   5.639   5.618   2.287  0.5465 -1.3141 -1.4412
16815TIP3   OH271935   6.235   2.920  10.936 -0.1974  0.5920  0.5785
16815TIP3    H171936   6.167   2.854  10.954  1.4547 -0.9217  1.4600
16815TIP3    H271937   6.315   2.868  10.922  0.8578  2.3609 -0.0942
16816TIP3   OH271938   6.718   0.783  16.791 -0.2648  0.1897  0.1192
16816TIP3    H171939   6.662   0.843  16.840 -0.5146  0.4656 -0.4996
16816TIP3    H271940   6.695   0.798  16.699  0.6411  0.1257 -0.1223
16817TIP3   OH271941   4.715   5.194  12.636  0.3440 -0.3874 -0.4495
16817TIP3    H171942   4.776   5.266  12.653  0.6853 -1.0223  1.1357
16817TIP3    H271943   4.664   5.186  12.717 -0.3976 -1.2458 -0.9888
16818TIP3   OH271944   3.456   4.882  16.739  0.5274 -0.1251 -0.3134
16818TIP3    H171945   3.394   4.882  16.812  0.8394  1.0862 -0.0253
16818TIP3    H271946   3.425   4.814  16.680  0.6654 -1.5865  1.2782
16819TIP3   OH271947   0.162   5.191  16.460 -0.5816  0.5421 -0.4728
16819TIP3    H171948   0.090   5.144  16.502 -0.6269  0.6634 -0.4147
16819TIP3    H271949   0.182   5.139  16.383  1.0474 -0.9289  0.9102
16820TIP3   OH271950   6.541   6.067   3.884  0.5428 -0.6161 -0.5788
16820TIP3    H171951   6.565   6.094   3.972 -0.9632 -2.3047  0.3735
16820TIP3    H271952   6.476   6.132   3.856  1.2294  0.0835 -0.5804
16821TIP3   OH271953   1.790   1.772  16.931  0.0652 -0.5572  0.2541
16821TIP3    H171954   1.705   1.733  16.911  0.7606 -1.2531 -1.4993
16821TIP3    H271955   1.777   1.866  16.918 -0.8456 -0.4918  1.5797
16822TIP3   OH271956   6.680   2.777   5.838  0.0457 -0.1327  0.1555
16822TIP3    H171957   6.660   2.832   5.914 -1.7033  0.2810 -0.5974
16822TIP3    H271958   6.710   2.838   5.771  0.2461 -0.3446  0.0507
16823TIP3   OH271959   3.426   5.580   0.030  0.4019  0.0539 -0.3024
16823TIP3    H171960   3.517   5.554   0.044  0.2806 -0.9071 -1.2300
16823TIP3    H271961   3.432   5.655  -0.029  0.5032 -1.8203 -2.7869
16824TIP3   OH271962   5.694   0.726  12.527 -0.1542 -0.1485  0.0196
16824TIP3    H171963   5.738   0.647  12.496  1.4570  0.3408  0.9851
16824TIP3    H271964   5.722   0.794  12.466 -0.7303 -0.0999 -0.2007
16825TIP3   OH271965   1.138   2.104   1.241 -0.3439 -0.3106 -0.2050
16825TIP3    H171966   1.161   2.187   1.281 -1.9257 -1.1195  2.6134
16825TIP3    H271967   1.198   2.040   1.281 -0.3111 -0.7681 -0.9798
16826TIP3   OH271968   6.814   1.067  11.281  0.3277 -0.0890  0.0615
16826TIP3    H171969   6.873   1.059  11.356  1.2312 -1.3423 -0.7699
16826TIP3    H271970   6.850   1.008  11.215 -1.3241 -0.1616 -0.8088
16827TIP3   OH271971   3.432   3.599   1.447  0.0858  0.0970 -0.2525
16827TIP3    H171972   3.483   3.558   1.517 -0.1391  0.0981 -0.0883
16827TIP3    H271973   3.360   3.538   1.431 -1.1251  1.1593  1.0563
16828TIP3   OH271974   4.243   0.613  16.150 -0.3287 -0.7634  0.3689
16828TIP3    H171975   4.150   0.615  16.128 -0.6591 -1.3656  1.6991
16828TIP3    H271976   4.267   0.521  16.146 -0.0435 -0.7224  1.0844
16829TIP3   OH271977   6.198   6.599  13.347  0.9217 -0.3326 -0.3047
16829TIP3    H171978   6.242   6.557  13.421 -1.0400 -0.2355  0.9562
16829TIP3    H271979   6.254   6.580  13.272  2.1932 -1.6903  0.9586
16830TIP3   OH271980   3.218   0.709  16.849  0.1905  0.2990 -0.3504
16830TIP3    H171981   3.172   0.785  16.812  0.1189  0.2121 -0.4391
16830TIP3    H271982   3.292   0.695  16.791  0.3134  0.4205 -0.2240
16831TIP3   OH271983   4.530   6.276   0.054  0.0087  0.3876 -0.3786
16831TIP3    H171984   4.481   6.276  -0.028 -0.5185  0.3365 -0.0710
16831TIP3    H271985   4.554   6.185   0.068 -0.2394  0.3366 -0.2794
16832TIP3   OH271986   3.189   5.407  12.175  0.1115 -0.3946  0.1126
16832TIP3    H171987   3.270   5.367  12.208 -0.1127 -0.3254  0.7567
16832TIP3    H271988   3.166   5.354  12.099  2.4493  1.5015 -1.9682
16833TIP3   OH271989   6.108   0.105   5.909  0.2761  0.2966  0.8773
16833TIP3    H171990   6.018   0.130   5.888  0.0220  0.1139  1.7380
16833TIP3    H271991   6.155   0.188   5.915  0.7294  0.2886 -2.0418
16834TIP3   OH271992   2.746   5.852  15.469  0.0619 -0.1232  0.2152
16834TIP3    H171993   2.652   5.854  15.455 -0.1089  1.6627  1.4026
16834TIP3    H271994   2.758   5.799  15.548 -0.0852  0.9257  0.9475
16835TIP3   OH271995   0.254   5.449  16.529  0.1494  0.2290  0.3905
16835TIP3    H171996   0.207   5.366  16.531 -1.1148  0.9401  1.6268
16835TIP3    H271997   0.339   5.428  16.491 -1.1645 -1.0916 -1.9455
16836TIP3   OH271998   0.616   1.809   1.926  0.0373 -0.1437  0.0004
16836TIP3    H171999   0.653   1.794   1.839  0.7532  1.1940  0.0628
16836TIP3    H272000   0.691   1.825   1.982 -0.5682  1.8044  0.2893
16837TIP3   OH272001   0.327   6.539   0.689 -0.3689  0.1719  0.4273
16837TIP3    H172002   0.406   6.584   0.660 -0.8417  0.7620  0.0543
16837TIP3    H272003   0.347   6.446   0.676  0.9937  0.1977  2.1820
16838TIP3   OH272004   2.653   3.987  14.172 -0.0016  0.1599 -0.4572
16838TIP3    H172005   2.675   3.910  14.120  0.5882 -1.8308  2.5721
16838TIP3    H272006   2.562   4.006  14.151 -0.6793 -2.4269 -0.0534
16839TIP3   OH272007   6.712   5.028   0.756  0.1018  0.2647  0.3838
16839TIP3    H172008   6.705   4.950   0.812 -0.6683 -0.2613 -0.4293
16839TIP3    H272009   6.748   5.096   0.814 -1.8249  0.0787  1.8478
16840TIP3   OH272010   0.241   2.772   2.042 -0.2697 -0.7757  0.1294
16840TIP3    H172011   0.327   2.811   2.025  0.0886 -1.5727  0.1181
16840TIP3    H272012   0.205   2.824   2.114 -0.8398  1.1699 -1.5257
16841TIP3   OH272013   5.167   3.771   4.981 -0.0894  0.2745 -0.4379
16841TIP3    H172014   5.246   3.745   4.934  1.5828  2.5177  1.0304
16841TIP3    H272015   5.136   3.849   4.934  0.8816  1.7758  1.3454
16842TIP3   OH272016   1.219   5.379   2.731 -0.6424  0.0281 -0.3200
16842TIP3    H172017   1.142   5.347   2.685 -0.6339  0.4663 -0.6424
16842TIP3    H272018   1.287   5.314   2.712 -0.3460  0.7424 -1.7993
16843TIP3   OH272019   1.771   0.817  13.352  0.2757 -0.1176  0.0282
16843TIP3    H172020   1.816   0.901  13.357  2.6425 -1.3866  0.9567
16843TIP3    H272021   1.774   0.795  13.258 -0.5249  0.8899 -0.2487
16844TIP3   OH272022   2.794   1.558   4.806 -0.0115 -0.7600  0.0141
16844TIP3    H172023   2.807   1.651   4.787  1.9171 -0.5120  2.3933
16844TIP3    H272024   2.698   1.548   4.810 -0.2518  0.9850 -0.8156
16845TIP3   OH272025   2.055   4.275  15.605  0.3041  0.1344 -0.2035
16845TIP3    H172026   2.013   4.190  15.618  0.7538 -0.1704 -0.7037
16845TIP3    H272027   2.113   4.284  15.681  2.3926 -1.3185 -1.5608
16846TIP3   OH272028   4.231   6.062   1.946  0.1127  0.7230  0.5125
16846TIP3    H172029   4.138   6.046   1.963  0.1617 -0.5595 -0.4125
16846TIP3    H272030   4.270   6.067   2.033 -1.1549  3.4301  0.9921
16847TIP3   OH272031   5.938   4.969  12.698  0.3166 -0.4597  0.3758
16847TIP3    H172032   5.902   4.930  12.618  0.0512 -1.2781  0.8900
16847TIP3    H272033   5.907   4.912  12.768  0.9922 -0.0452  1.0128
16848TIP3   OH272034   4.909   1.052  16.304 -0.0367  0.3667  0.0885
16848TIP3    H172035   4.871   1.121  16.251 -0.2162  0.0871 -0.1460
16848TIP3    H272036   4.912   0.976  16.246  0.0408  0.1429  0.3842
16849TIP3   OH272037   1.596   2.315  12.007 -0.0125 -0.8251 -0.2173
16849TIP3    H172038   1.648   2.250  11.960  0.6041 -0.0004 -0.6760
16849TIP3    H272039   1.594   2.283  12.098  0.1171 -1.5882 -0.4808
16850TIP3   OH272040   2.065   6.391   4.673  0.3463 -0.0457 -0.2199
16850TIP3    H172041   2.050   6.346   4.590  1.1674 -1.0243  0.1458
16850TIP3    H272042   2.084   6.481   4.648 -0.3060 -0.1265 -1.0333
16851TIP3   OH272043   5.765   0.271   2.502 -0.1349 -0.9922 -0.4994
16851TIP3    H172044   5.742   0.347   2.447  0.5313 -0.6753 -0.3432
16851TIP3    H272045   5.684   0.251   2.550 -0.6758 -1.1646 -1.4657
16852TIP3   OH272046   5.939   2.385   0.441 -0.0602  0.1156 -0.0840
16852TIP3    H172047   5.975   2.303   0.407 -1.1759 -0.5696  0.3463
16852TIP3    H272048   5.848   2.364   0.462 -0.7819  1.8714 -1.3615
16853TIP3   OH272049   0.258   0.131   2.272 -0.1092  0.1456 -0.6326
16853TIP3    H172050   0.308   0.055   2.241 -0.8068 -0.1673 -0.9995
16853TIP3    H272051   0.213   0.099   2.350  0.1092  0.3765 -0.4095
16854TIP3   OH272052   2.493   2.060  15.388 -0.2546 -0.1925  0.1015
16854TIP3    H172053   2.500   2.064  15.483  0.6108  1.9710 -0.0141
16854TIP3    H272054   2.404   2.087  15.368 -0.6193 -1.2312  0.3241
16855TIP3   OH272055   2.078   2.731   5.743 -0.5555 -0.0350 -0.4828
16855TIP3    H172056   2.104   2.755   5.832 -1.2143 -1.5221  0.1332
16855TIP3    H272057   2.092   2.636   5.740  1.6569  0.3117 -2.7155
16856TIP3   OH272058   5.655   4.059  16.407  0.0284  0.4271  0.7046
16856TIP3    H172059   5.674   4.027  16.319 -1.3893 -0.4598  0.6959
16856TIP3    H272060   5.591   4.128  16.394  1.0339  1.4132  0.9343
16857TIP3   OH272061   6.386   2.623  13.379  0.6047  0.0274 -0.0489
16857TIP3    H172062   6.399   2.591  13.468  1.8717 -1.4673 -0.7492
16857TIP3    H272063   6.429   2.709  13.378 -1.1902  0.9812  1.3166
16858TIP3   OH272064   5.733   1.566   1.972 -0.2153 -0.0387 -0.2320
16858TIP3    H172065   5.798   1.578   2.042 -0.4480 -0.6858  0.0949
16858TIP3    H272066   5.781   1.523   1.902 -0.6379 -1.8094  0.5567
16859TIP3   OH272067   4.339   5.123  11.593 -0.1313 -0.1271  0.7640
16859TIP3    H172068   4.283   5.047  11.608 -0.9907  0.2146 -0.5859
16859TIP3    H272069   4.297   5.169  11.519  1.4569  0.5889  0.2940
16860TIP3   OH272070   3.445   6.332   5.664  0.2380  0.5047 -0.0965
16860TIP3    H172071   3.409   6.283   5.738 -2.0994  0.3347 -1.3094
16860TIP3    H272072   3.524   6.373   5.699 -0.9937  0.7023  2.5904
16861TIP3   OH272073   5.742   2.901   1.571 -0.0537  0.1798  0.5290
16861TIP3    H172074   5.679   2.832   1.551  0.4931 -0.6032  1.4709
16861TIP3    H272075   5.801   2.902   1.496  0.0435 -0.5069  0.5937
16862TIP3   OH272076   0.027   4.480   3.354  0.1119  0.1139  0.2022
16862TIP3    H172077  -0.041   4.495   3.420  1.1638 -0.9893  1.5640
16862TIP3    H272078   0.043   4.386   3.358 -0.4198 -0.1087 -2.2624
16863TIP3   OH272079   6.326   2.445   1.226  0.2112  0.0271  0.4667
16863TIP3    H172080   6.393   2.417   1.288  0.9940  0.4576 -0.1828
16863TIP3    H272081   6.320   2.373   1.163  0.9401  0.5086 -0.1690
16864TIP3   OH272082   3.326   2.606  12.460  0.0596 -0.0729 -0.0048
16864TIP3    H172083   3.274   2.533  12.426 -0.0013  0.7433 -1.7573
16864TIP3    H272084   3.416   2.573  12.460  0.0013 -0.2483 -0.5565
16865TIP3   OH272085   2.826   3.926  15.900 -0.0959  0.0545 -0.1081
16865TIP3    H172086   2.772   3.936  15.978  0.6889  0.2208  0.4181
16865TIP3    H272087   2.911   3.964  15.924 -0.0252  0.6381 -1.2315
16866TIP3   OH272088   0.566   4.335   4.952  0.2462 -0.2788  0.0429
16866TIP3    H172089   0.621   4.388   5.009  0.8593  0.8566 -1.5829
16866TIP3    H272090   0.478   4.372   4.963  0.5903  0.7533 -0.7283
16867TIP3   OH272091   5.474   4.773  11.327 -0.3204 -0.2289 -0.1531
16867TIP3    H172092   5.453   4.709  11.258  1.6079 -0.3446 -0.6524
16867TIP3    H272093   5.481   4.856  11.280  1.4879 -0.3872 -0.2056
16868TIP3   OH272094   6.377   1.014  11.692  0.1547 -0.2295  0.6718
16868TIP3    H172095   6.443   0.963  11.645 -1.6478 -2.6374  0.6415
16868TIP3    H272096   6.294   0.989  11.652 -1.1741 -0.4340  3.4212
16869TIP3   OH272097   6.179   3.613  14.245 -0.5466  0.0752  0.2260
16869TIP3    H172098   6.098   3.660  14.226  0.6169  1.7160 -0.7841
16869TIP3    H272099   6.222   3.666  14.313  1.1917  0.9833 -1.5535
16870TIP3   OH272100   4.074   0.471   2.759  0.5827  0.0375  0.2405
16870TIP3    H172101   3.984   0.500   2.743  0.4129  0.9003  2.6073
16870TIP3    H272102   4.074   0.379   2.734 -0.7588  0.2141 -0.4843
16871TIP3   OH272103   4.646   4.699  16.759 -0.2536 -0.6830 -0.2277
16871TIP3    H172104   4.637   4.768  16.826 -1.6718  0.2663 -1.3734
16871TIP3    H272105   4.738   4.705  16.732 -0.3362  0.6891 -0.2329
16872TIP3   OH272106   0.243   6.729  13.042 -0.3544 -0.2324  0.4810
16872TIP3    H172107   0.337   6.750  13.041 -0.2994 -0.4857  0.1025
16872TIP3    H272108   0.240   6.634  13.031 -0.5683 -0.5728  3.0706
16873TIP3   OH272109   6.271   3.359   1.253 -0.2014 -0.0233 -0.6129
16873TIP3    H172110   6.299   3.285   1.199  0.1339 -0.6214  0.3686
16873TIP3    H272111   6.203   3.402   1.201  0.6680 -0.1243 -1.8427
16874TIP3   OH272112   5.659   2.327  15.534  0.6343 -0.1097 -0.0466
16874TIP3    H172113   5.617   2.413  15.537 -0.4065 -0.6506  1.5311
16874TIP3    H272114   5.707   2.321  15.616  3.3144  0.2107 -1.5254
16875TIP3   OH272115   4.346   4.203  17.053 -0.3157  0.3060 -0.8640
16875TIP3    H172116   4.381   4.275  17.001  0.2845  0.2032 -0.6050
16875TIP3    H272117   4.419   4.141  17.060  0.1490  1.1142  1.5735
16876TIP3   OH272118   4.699   1.219   5.096  0.3781 -0.5977  0.0061
16876TIP3    H172119   4.639   1.197   5.167  2.4637  0.1061  2.0429
16876TIP3    H272120   4.748   1.294   5.129  2.1062 -0.9027 -1.7791
16877TIP3   OH272121   5.572   2.315   2.925 -0.0553 -0.7955  0.9214
16877TIP3    H172122   5.587   2.271   2.842 -1.1358 -0.7148  0.6712
16877TIP3    H272123   5.617   2.399   2.917  0.4645 -1.0905  0.7096
16878TIP3   OH272124   2.452   3.152   3.968 -0.5867 -0.4332  1.0287
16878TIP3    H172125   2.505   3.081   3.932  0.4632 -0.6881  2.9763
16878TIP3    H272126   2.368   3.111   3.988 -0.4662 -0.7892  0.8117
16879TIP3   OH272127   5.680   0.553   4.638  0.1140 -0.1793 -0.1014
16879TIP3    H172128   5.688   0.470   4.592  0.7393 -1.6386  2.5744
16879TIP3    H272129   5.611   0.539   4.703 -0.2649  1.6122 -0.0668
16880TIP3   OH272130   4.253   3.266  11.407 -0.3248 -1.3297 -0.6176
16880TIP3    H172131   4.321   3.207  11.440 -1.3764 -2.3063 -0.1599
16880TIP3    H272132   4.237   3.327  11.479  1.7555  0.4303 -1.5891
16881TIP3   OH272133   1.904   0.295   4.226 -0.9273  0.1130 -0.1986
16881TIP3    H172134   1.894   0.271   4.318 -1.7156  1.3750  0.0542
16881TIP3    H272135   1.998   0.288   4.209 -1.0132 -2.1150  0.1310
16882TIP3   OH272136   1.927   4.040  14.828 -0.6970 -0.2814  0.5044
16882TIP3    H172137   1.920   3.956  14.874 -0.0451  0.0641  1.2563
16882TIP3    H272138   1.928   4.105  14.898  1.4896  0.1803  0.0948
16883TIP3   OH272139   1.055   4.415  11.943  0.2681  0.0614 -0.3096
16883TIP3    H172140   1.049   4.466  11.862 -0.3993 -1.1498 -1.0375
16883TIP3    H272141   1.123   4.460  11.994  0.8841  0.6966 -1.6444
16884TIP3   OH272142   0.518   1.108   5.938 -0.4449 -0.6054 -0.0344
16884TIP3    H172143   0.434   1.087   5.979  0.0310  1.3034  2.0659
16884TIP3    H272144   0.583   1.089   6.006  0.5707  0.5907 -0.6464
16885TIP3   OH272145   2.788   2.144  15.057 -0.6028  0.2727  0.0656
16885TIP3    H172146   2.698   2.157  15.085  0.0748  1.3737  1.8184
16885TIP3    H272147   2.829   2.230  15.065  0.7392 -0.3234 -0.1894
16886TIP3   OH272148   4.469   4.355  12.115  0.1820  0.0221 -0.0484
16886TIP3    H172149   4.373   4.363  12.114  0.0610 -1.3052 -0.4464
16886TIP3    H272150   4.486   4.286  12.180  1.0249  1.9272  1.8226
16887TIP3   OH272151   1.390   3.413   0.655 -0.6392 -0.2692 -0.5341
16887TIP3    H172152   1.373   3.495   0.702 -0.8340 -0.4874 -0.2244
16887TIP3    H272153   1.371   3.345   0.719  0.0538 -0.5441 -0.6268
16888TIP3   OH272154   3.282   3.706   6.337 -0.0701  0.1490 -0.2596
16888TIP3    H172155   3.331   3.636   6.378  0.2885  1.1418  1.0330
16888TIP3    H272156   3.348   3.757   6.289 -0.2280  0.0098 -0.6311
16889TIP3   OH272157   5.613   2.139   5.023 -0.2830  0.3209  0.4680
16889TIP3    H172158   5.697   2.183   5.024  0.3248 -0.8182  0.9775
16889TIP3    H272159   5.603   2.107   4.933  0.4658 -0.7075  0.7380
16890TIP3   OH272160   2.461   2.805  13.069 -0.0142 -0.1196 -0.2182
16890TIP3    H172161   2.396   2.757  13.119 -0.7891  1.2147  0.0796
16890TIP3    H272162   2.514   2.850  13.134  0.8169 -0.6910 -0.4863
16891TIP3   OH272163   0.641   6.715   5.704  0.6440  0.3699  0.0510
16891TIP3    H172164   0.639   6.810   5.690  0.0382  0.2315 -0.8563
16891TIP3    H272165   0.550   6.688   5.694 -0.2049  0.4486  5.9940
16892TIP3   OH272166   4.558   0.542   1.569  0.1136  0.6980 -0.4938
16892TIP3    H172167   4.524   0.465   1.615 -1.4357  0.9227 -1.2565
16892TIP3    H272168   4.621   0.506   1.506 -0.1834  0.1107 -0.4625
16893TIP3   OH272169   2.515   3.217   1.635 -0.4354  0.1772  0.5051
16893TIP3    H172170   2.535   3.260   1.551  0.4176 -0.5940  0.3019
16893TIP3    H272171   2.462   3.141   1.611 -3.0225  1.7669  0.9769
16894TIP3   OH272172   5.018   2.795  15.275  0.3078 -0.3438  0.5839
16894TIP3    H172173   4.939   2.754  15.308 -1.0970  0.7370 -1.3307
16894TIP3    H272174   5.005   2.889  15.291  0.8491 -0.0916 -0.4222
16895TIP3   OH272175   0.116   2.700   5.581  0.2683 -0.0083  0.0789
16895TIP3    H172176   0.024   2.710   5.556  0.4613  0.3400 -0.5103
16895TIP3    H272177   0.129   2.765   5.651  0.0193 -0.1806  0.2816
16896TIP3   OH272178   6.367   1.344  14.935 -0.2546 -0.2452 -0.3074
16896TIP3    H172179   6.368   1.249  14.949 -2.1273 -0.1519  0.5524
16896TIP3    H272180   6.300   1.376  14.995  0.4129  1.6443 -0.5479
16897TIP3   OH272181   5.954   0.172   2.854  0.1501 -0.1869  0.3716
16897TIP3    H172182   6.001   0.168   2.937 -0.4898 -0.8494  0.7146
16897TIP3    H272183   6.021   0.163   2.787  0.7680  1.1785  0.7995
16898TIP3   OH272184   0.378   5.127   3.612 -0.5454  0.4294 -0.1818
16898TIP3    H172185   0.472   5.121   3.629 -0.6412 -0.7921 -0.0296
16898TIP3    H272186   0.357   5.047   3.564 -1.0482  1.8951 -2.4675
16899TIP3   OH272187   6.789   3.234  15.768 -0.5036  0.0600  0.1617
16899TIP3    H172188   6.847   3.239  15.693  0.3495 -2.2862  0.6069
16899TIP3    H272189   6.825   3.296  15.831 -0.6164  1.2634 -0.9402
16900TIP3   OH272190   5.137   0.984   5.307 -0.1895 -0.1554 -0.1178
16900TIP3    H172191   5.231   0.999   5.313 -0.4869  1.6549  0.0799
16900TIP3    H272192   5.130   0.903   5.256  1.4632 -0.2547 -0.2282
16901TIP3   OH272193   4.054   5.733   2.179 -0.2852 -0.0329 -0.5260
16901TIP3    H172194   4.095   5.730   2.266 -0.7555  1.6382 -0.2356
16901TIP3    H272195   3.963   5.756   2.196 -0.1529  1.2816 -1.5183
16902TIP3   OH272196   1.441   3.893  16.866 -0.0554 -0.0213  0.1434
16902TIP3    H172197   1.397   3.969  16.829 -0.8486 -1.3964 -1.8346
16902TIP3    H272198   1.408   3.886  16.956 -1.7479  0.6135 -0.4157
16903TIP3   OH272199   2.705   3.106   1.144  0.3159 -0.7369 -0.2789
16903TIP3    H172200   2.669   3.022   1.118 -1.6060 -0.0587  0.0395
16903TIP3    H272201   2.691   3.163   1.068 -1.3903  0.1163  0.6290
16904TIP3   OH272202   0.075   3.067  14.656  0.3651  0.1881  0.6771
16904TIP3    H172203   0.004   3.125  14.627  1.2697  2.1064  2.1695
16904TIP3    H272204   0.144   3.080  14.591 -0.1454 -0.6860 -0.0487
16905TIP3   OH272205   6.398   0.222   2.244  0.2290 -0.3333 -0.0507
16905TIP3    H172206   6.403   0.315   2.264 -0.6456 -0.0188 -1.2162
16905TIP3    H272207   6.482   0.201   2.204  0.7844 -0.2615  1.0717
16906TIP3   OH272208   2.655   1.609  14.713 -0.1501  0.3825  0.2867
16906TIP3    H172209   2.708   1.537  14.747  0.6875  0.9300  0.1581
16906TIP3    H272210   2.716   1.660  14.659 -1.0781  0.3899 -0.7764
16907TIP3   OH272211   0.395   6.661   1.250 -0.1803  0.1542  0.3784
16907TIP3    H172212   0.481   6.703   1.257 -0.4385  1.1530 -2.1155
16907TIP3    H272213   0.334   6.726   1.286 -0.1786  0.4627 -0.1780
16908TIP3   OH272214   5.101   1.194  16.039 -0.2962 -0.3822  0.3553
16908TIP3    H172215   5.058   1.121  15.993 -1.8955  2.0091 -2.0782
16908TIP3    H272216   5.152   1.239  15.972 -0.4617  1.5756  1.4992
16909TIP3   OH272217   2.619   0.966  13.274  0.3610 -0.3012 -0.0630
16909TIP3    H172218   2.628   1.061  13.267  1.4899 -0.3078  1.0498
16909TIP3    H272219   2.683   0.931  13.213  0.7318 -0.3356  0.3378
16910TIP3   OH272220   5.936   3.007  11.818 -0.3860 -0.0461  0.1101
16910TIP3    H172221   5.957   2.919  11.851  2.4313  0.2255 -0.8436
16910TIP3    H272222   5.972   3.066  11.884 -1.0157  0.4337  0.0300
16911TIP3   OH272223   6.576   4.540  12.342  0.5979 -0.3567 -0.1500
16911TIP3    H172224   6.576   4.451  12.378 -2.1603  0.3808  1.8551
16911TIP3    H272225   6.616   4.594  12.410  0.4851  0.2345 -0.5442
16912TIP3   OH272226   0.697   5.931  15.413  0.0758  0.6139  0.2112
16912TIP3    H172227   0.756   5.874  15.363 -1.5970 -2.0376  1.1314
16912TIP3    H272228   0.736   5.936  15.500  0.1291  0.7106  0.1813
16913TIP3   OH272229   6.289   2.143   3.106 -0.0653 -0.3416  0.5198
16913TIP3    H172230   6.371   2.105   3.136  0.9726  0.4486 -1.2307
16913TIP3    H272231   6.254   2.079   3.044  0.8430  0.7175 -1.1420
16914TIP3   OH272232   4.263   2.825  10.920  0.1612 -0.1523 -0.2702
16914TIP3    H172233   4.244   2.750  10.864  1.6950  0.6096 -1.8335
16914TIP3    H272234   4.265   2.900  10.861  0.4759  0.8611  0.9979
16915TIP3   OH272235   3.773   1.710  11.725 -0.0337  0.4360  0.3069
16915TIP3    H172236   3.836   1.641  11.705 -0.4978 -0.1516  0.8872
16915TIP3    H272237   3.825   1.791  11.719  0.7043 -0.0187  0.4721
16916TIP3   OH272238   2.754   3.269   1.994  0.1055  0.0274 -0.1892
16916TIP3    H172239   2.790   3.338   2.050  0.0503 -0.3124  0.2708
16916TIP3    H272240   2.755   3.306   1.906 -0.5782  0.8832  0.1514
16917TIP3   OH272241   3.225   6.719  16.048 -0.0457  0.2960  0.1123
16917TIP3    H172242   3.245   6.709  15.955 -0.5496  1.4116 -0.1272
16917TIP3    H272243   3.131   6.739  16.051  0.2972  1.9297  0.7312
16918TIP3   OH272244   6.064   3.516   2.258  0.3428 -0.0155  0.4752
16918TIP3    H172245   6.091   3.608   2.257  0.1338  0.0650  1.8044
16918TIP3    H272246   6.136   3.470   2.301  0.2957 -0.4327  0.1135
16919TIP3   OH272247   6.158   3.974   6.265 -0.6605  0.3182 -0.1436
16919TIP3    H172248   6.116   3.980   6.351  1.0324 -1.2492  0.8185
16919TIP3    H272249   6.248   4.001   6.281 -0.4188  0.3058 -1.4868
16920TIP3   OH272250   3.222   5.226  13.185 -0.6177 -0.1617 -0.0045
16920TIP3    H172251   3.189   5.137  13.201 -1.4574 -0.1724 -1.7506
16920TIP3    H272252   3.192   5.276  13.261 -0.6507 -1.2333  0.6993
16921TIP3   OH272253   4.386   3.157   1.215  0.4433 -0.5931  0.7758
16921TIP3    H172254   4.358   3.097   1.284  1.4507 -2.1643 -0.1342
16921TIP3    H272255   4.482   3.148   1.213  0.5585  0.6681  0.2805
16922TIP3   OH272256   3.722   3.991   2.967  0.7085  0.7648 -0.4501
16922TIP3    H172257   3.798   4.048   2.962  1.2660 -0.0495 -1.4406
16922TIP3    H272258   3.695   3.979   2.876  0.5150 -0.4343 -0.2389
16923TIP3   OH272259   1.278   2.649  14.190 -0.0223 -0.6233  0.7862
16923TIP3    H172260   1.262   2.724  14.248  0.3497  1.2127 -1.4249
16923TIP3    H272261   1.330   2.589  14.243  1.7945  1.7910  1.8462
16924TIP3   OH272262   5.164   1.785  11.831 -0.2412 -0.2084  0.4428
16924TIP3    H172263   5.175   1.878  11.810  0.7399 -0.7925 -1.8442
16924TIP3    H272264   5.082   1.760  11.788 -0.1399 -0.5638  0.4521
16925TIP3   OH272265   4.454   0.429  17.194  0.3558  0.5834 -0.3698
16925TIP3    H172266   4.419   0.344  17.165  0.5649 -0.0842  1.2863
16925TIP3    H272267   4.379   0.488  17.190 -0.2053 -0.0833  0.0840
16926TIP3   OH272268   3.114   5.165  13.792  0.0689  0.1085  0.2319
16926TIP3    H172269   3.186   5.107  13.817 -0.0007  0.2095  0.6656
16926TIP3    H272270   3.129   5.183  13.699 -0.1470 -0.9356 -0.0109
16927TIP3   OH272271   6.795   5.908  15.082 -0.3781  0.0409  0.2868
16927TIP3    H172272   6.707   5.932  15.110 -0.3602 -0.1296  0.4947
16927TIP3    H272273   6.832   5.863  15.158  0.4925  1.6193  0.7982
16928TIP3   OH272274   5.139   1.414   0.685 -0.4676 -0.7042  0.2188
16928TIP3    H172275   5.199   1.356   0.732  1.3934  1.2460  0.3028
16928TIP3    H272276   5.146   1.498   0.730 -2.5695 -0.1741 -0.3746
16929TIP3   OH272277   1.938   1.798  16.624  0.6243 -0.4752  0.6683
16929TIP3    H172278   2.020   1.828  16.664  0.1068  1.0446  0.5834
16929TIP3    H272279   1.871   1.858  16.657 -0.2107 -0.7300 -0.5411
16930TIP3   OH272280   0.546   2.590   2.195 -0.3260  0.3667 -0.1328
16930TIP3    H172281   0.609   2.639   2.143  0.5126 -0.4930  0.0717
16930TIP3    H272282   0.491   2.658   2.236  0.5709  1.1185 -0.1627
16931TIP3   OH272283   0.178   0.823  16.843 -0.3116 -0.1148 -0.1374
16931TIP3    H172284   0.192   0.876  16.765 -0.7490  0.4641  0.1680
16931TIP3    H272285   0.086   0.796  16.838 -0.1998 -0.5168 -0.0880
16932TIP3   OH272286   3.462   3.534  12.532 -0.1668  0.0961  0.1936
16932TIP3    H172287   3.521   3.605  12.558  2.3817 -1.9466  0.2471
16932TIP3    H272288   3.424   3.503  12.614  1.4019 -0.8441  0.5858
16933TIP3   OH272289   1.824   3.827   0.550 -0.2810 -0.2231  0.1768
16933TIP3    H172290   1.902   3.848   0.601 -0.6438 -0.5448  0.8792
16933TIP3    H272291   1.852   3.832   0.459  0.6129 -0.5507  0.4304
16934TIP3   OH272292   6.338   5.372   4.645 -0.1463 -0.5522 -0.0509
16934TIP3    H172293   6.397   5.375   4.720 -0.6519 -0.2644  0.3422
16934TIP3    H272294   6.393   5.396   4.570  0.3423 -0.7673  0.2416
16935TIP3   OH272295   5.150   5.404   2.444 -0.6889 -0.0316 -0.1173
16935TIP3    H172296   5.216   5.418   2.512 -1.7919  0.2086  0.9121
16935TIP3    H272297   5.160   5.479   2.385  0.1731 -0.1673 -0.1488
16936TIP3   OH272298   0.985   2.586   0.881 -0.2024 -0.0821  0.2856
16936TIP3    H172299   0.897   2.570   0.845 -1.1177  1.4548  1.7531
16936TIP3    H272300   0.997   2.517   0.946 -0.1279 -0.5735 -0.2465
16937TIP3   OH272301   2.360   6.388  14.191  0.1374 -0.1887  0.1746
16937TIP3    H172302   2.331   6.467  14.146  0.1048 -0.6928 -0.6951
16937TIP3    H272303   2.391   6.330  14.122  0.9703 -0.6076  0.8777
16938TIP3   OH272304   4.385   3.113  17.227 -0.0722  0.0020  0.3527
16938TIP3    H172305   4.367   3.200  17.262  3.8225  0.4697  1.3516
16938TIP3    H272306   4.403   3.128  17.134 -0.6430  0.0746  0.2512
16939TIP3   OH272307   3.484   3.468   1.953 -0.5653 -0.3451 -0.1846
16939TIP3    H172308   3.486   3.474   2.048  0.3151  1.0369 -0.2702
16939TIP3    H272309   3.452   3.380   1.935  0.9572 -1.2448  1.3932
16940TIP3   OH272310   5.371   0.488   2.753 -0.1476  0.5782 -0.2234
16940TIP3    H172311   5.380   0.480   2.848 -0.1787  2.9833  0.0225
16940TIP3    H272312   5.451   0.532   2.724  0.3538 -1.1117 -1.4745
16941TIP3   OH272313   0.992   3.219   1.549  0.3279 -0.1735 -0.2311
16941TIP3    H172314   1.067   3.221   1.608  0.1514 -1.0426  0.0342
16941TIP3    H272315   1.021   3.266   1.471 -0.1663  2.9809  1.3821
16942TIP3   OH272316   5.523   6.498   0.701 -0.4835  0.1145 -0.0557
16942TIP3    H172317   5.485   6.542   0.777 -0.1548  0.9261 -0.3571
16942TIP3    H272318   5.476   6.534   0.626 -0.4985 -0.3542 -0.2704
16943TIP3   OH272319   5.520   0.138  12.933 -0.2928  0.2400  0.2223
16943TIP3    H172320   5.615   0.134  12.922 -0.1983  0.4647  0.9534
16943TIP3    H272321   5.505   0.221  12.978 -0.7129 -0.4926  1.4384
16944TIP3   OH272322   4.905   5.843  15.796 -0.2896 -0.8174 -0.2082
16944TIP3    H172323   4.880   5.881  15.880 -2.6755  0.9280 -1.6328
16944TIP3    H272324   4.841   5.773  15.781  0.0759 -1.0731 -0.6060
16945TIP3   OH272325   3.777   1.400  11.901 -0.0815  0.4158  0.2107
16945TIP3    H172326   3.748   1.428  11.815  0.6104  0.7426  0.0832
16945TIP3    H272327   3.791   1.306  11.893  1.4390  0.6878 -0.4517
16946TIP3   OH272328   5.630   5.813  10.944  0.3895 -0.2656 -0.0771
16946TIP3    H172329   5.550   5.867  10.945  0.4135 -0.2266  0.7653
16946TIP3    H272330   5.700   5.875  10.965  0.4467 -0.5655  0.6501
16947TIP3   OH272331   4.203   0.143  13.403  0.6430 -0.1526  0.3113
16947TIP3    H172332   4.158   0.059  13.394 -0.3639  0.3077  0.8918
16947TIP3    H272333   4.144   0.206  13.363  1.5354  0.2420 -0.3931
16948TIP3   OH272334   1.189   1.605  12.074  0.2673  0.7125 -0.7725
16948TIP3    H172335   1.130   1.589  12.000  0.5275  0.8928 -1.0166
16948TIP3    H272336   1.131   1.638  12.143 -0.7054 -3.5658  0.5750
16949TIP3   OH272337   5.749   5.395  15.237  0.3992  0.0563 -0.6777
16949TIP3    H172338   5.684   5.445  15.187  0.1537 -0.9845 -1.4046
16949TIP3    H272339   5.724   5.304  15.224  1.2431 -0.2893  0.1051
16950TIP3   OH272340   5.163   4.881  10.856 -0.4425 -1.6667 -0.1205
16950TIP3    H172341   5.167   4.832  10.774 -1.1250 -1.0993 -0.4986
16950TIP3    H272342   5.161   4.973  10.829 -1.6061 -1.5063  0.5012
16951TIP3   OH272343   5.906   4.063  14.246  0.1185  0.2041  0.2871
16951TIP3    H172344   5.950   4.147  14.241 -1.8918  1.2477 -0.1537
16951TIP3    H272345   5.817   4.080  14.215 -0.3950 -2.0126  0.4632
16952TIP3   OH272346   4.699   2.326  14.505 -0.0876 -0.1366 -0.1579
16952TIP3    H172347   4.619   2.374  14.522 -2.0548 -3.0997 -0.5765
16952TIP3    H272348   4.732   2.362  14.423 -0.2738  1.9469  0.6545
16953TIP3   OH272349   2.557   0.138  15.290  0.7958 -0.1152  0.0695
16953TIP3    H172350   2.633   0.195  15.304  0.4719  0.4732 -0.5629
16953TIP3    H272351   2.572   0.097  15.205  1.0504 -1.0277  0.5396
16954TIP3   OH272352   3.919   5.677   0.588 -0.4492  0.4571  0.3531
16954TIP3    H172353   3.954   5.723   0.512  0.1915 -0.4991  0.0687
16954TIP3    H272354   3.827   5.706   0.593 -0.5882  0.2779 -0.9770
16955TIP3   OH272355   1.060   3.671  13.955 -0.2186 -0.6147  0.6992
16955TIP3    H172356   0.990   3.728  13.987  0.7510  1.0764 -0.1253
16955TIP3    H272357   1.109   3.646  14.033 -0.1982  0.2834  0.9720
16956TIP3   OH272358   1.078   3.775   1.194 -0.2169  0.8772  0.0891
16956TIP3    H172359   1.041   3.853   1.234 -2.1328 -0.3907  0.8343
16956TIP3    H272360   1.121   3.729   1.266  0.4877  0.9840 -0.2554
16957TIP3   OH272361   2.269   3.216  12.637 -0.1477  0.7209 -0.2613
16957TIP3    H172362   2.342   3.277  12.650 -0.6237  1.2034  0.1465
16957TIP3    H272363   2.301   3.132  12.672 -0.4271  1.3510  1.5222
16958TIP3   OH272364   0.912   5.932   5.137 -0.1331 -0.0458  0.1228
16958TIP3    H172365   0.849   5.864   5.163  0.1771 -0.0536  0.8400
16958TIP3    H272366   0.866   6.014   5.150 -0.1547 -0.0717  0.2068
16959TIP3   OH272367   4.626   6.156  13.426 -0.1627  0.2050 -0.2185
16959TIP3    H172368   4.659   6.088  13.485 -2.9585 -0.4747  0.6238
16959TIP3    H272369   4.638   6.238  13.474 -1.5144 -0.2472  0.9217
16960TIP3   OH272370   4.880   6.083   3.004 -0.4912  0.3450 -0.0704
16960TIP3    H172371   4.816   6.063   2.936  0.8636  1.0538 -1.5883
16960TIP3    H272372   4.859   6.024   3.076 -1.7930 -0.5867 -1.2073
16961TIP3   OH272373   6.417   0.613  13.526  0.1401  0.1981 -0.2247
16961TIP3    H172374   6.377   0.626  13.612 -0.4044 -0.6307 -0.3479
16961TIP3    H272375   6.406   0.520  13.509  0.8401  0.2355 -0.9048
16962TIP3   OH272376   1.294   5.713   3.734 -0.0196  0.0499 -0.3450
16962TIP3    H172377   1.368   5.734   3.790  0.3488  1.6420 -1.3923
16962TIP3    H272378   1.217   5.735   3.788  0.3384  2.2748 -0.6824
16963TIP3   OH272379   6.524   4.620   0.198 -0.4520  0.0137 -0.7511
16963TIP3    H172380   6.430   4.623   0.214 -0.6891 -1.8616 -1.6578
16963TIP3    H272381   6.532   4.593   0.106  0.9600 -3.2873  0.2700
16964TIP3   OH272382   5.472   2.316  14.078 -0.1872 -0.1863  0.0960
16964TIP3    H172383   5.450   2.380  14.011 -0.5746 -0.8400 -0.4072
16964TIP3    H272384   5.482   2.367  14.158  0.2503  0.5982 -0.4521
16965TIP3   OH272385   3.559   2.646   1.784 -0.5908 -0.2702  0.0063
16965TIP3    H172386   3.511   2.727   1.765 -1.2759 -0.6464  0.1530
16965TIP3    H272387   3.566   2.644   1.880 -2.3736 -1.4305  0.1252
16966TIP3   OH272388   2.177   6.696  16.586  0.2807 -0.2881 -0.2766
16966TIP3    H172389   2.157   6.617  16.635 -2.0933 -0.1921 -1.0074
16966TIP3    H272390   2.219   6.665  16.506  2.5749 -0.5491  0.9790
16967TIP3   OH272391   0.783   1.873  12.889 -0.3473  0.4823 -0.6400
16967TIP3    H172392   0.761   1.882  12.982 -0.7727  0.5319 -0.7459
16967TIP3    H272393   0.806   1.962  12.861 -1.3753  0.6843 -0.8764
16968TIP3   OH272394   2.136   0.358  13.950  0.0520  0.3253  0.1292
16968TIP3    H172395   2.206   0.304  13.987  0.9469  1.5672  0.2862
16968TIP3    H272396   2.077   0.375  14.024 -0.4875 -0.8248 -0.0331
16969TIP3   OH272397   4.119   4.230  16.267  0.1117 -0.2825 -0.0291
16969TIP3    H172398   4.170   4.276  16.334  2.0096 -0.4732 -1.2988
16969TIP3    H272399   4.166   4.148  16.253 -0.8868 -0.7338 -0.8198
16970TIP3   OH272400   5.774   4.279   5.434  0.1234  0.4140  0.2274
16970TIP3    H172401   5.716   4.293   5.359 -0.9887 -1.5884  0.6663
16970TIP3    H272402   5.820   4.362   5.445 -1.6886  1.6241 -0.9742
16971TIP3   OH272403   6.559   1.718   5.266  0.2474 -0.9104  0.1336
16971TIP3    H172404   6.466   1.729   5.244  0.5639  1.1455 -0.2709
16971TIP3    H272405   6.589   1.648   5.207 -0.6905 -0.5580 -0.7843
16972TIP3   OH272406   2.992   0.140   1.036 -0.2134  0.0894 -0.0633
16972TIP3    H172407   2.968   0.219   1.084 -0.4828  1.1056 -1.8458
16972TIP3    H272408   3.075   0.161   0.995  0.2624 -0.9543  0.3340
16973TIP3   OH272409   4.878   1.169  13.431  0.0295 -0.2528  0.2710
16973TIP3    H172410   4.904   1.245  13.482  2.1725 -0.7083 -0.0766
16973TIP3    H272411   4.960   1.134  13.397 -1.1298 -1.3740 -1.4774
16974TIP3   OH272412   4.906   2.385   3.994  0.0453  0.2866  0.1285
16974TIP3    H172413   4.996   2.360   4.014 -0.4585 -1.1985  0.5810
16974TIP3    H272414   4.886   2.341   3.912  0.3184  2.0924 -0.9454
16975TIP3   OH272415   0.777   5.299   4.938 -0.3769  0.6395 -0.2793
16975TIP3    H172416   0.798   5.272   5.028  0.7936  0.7938 -0.5035
16975TIP3    H272417   0.683   5.281   4.930 -0.8011  1.9499  1.4372
16976TIP3   OH272418   3.037   1.808  16.622  0.5708 -0.2223 -0.2058
16976TIP3    H172419   3.103   1.741  16.641  1.0583 -0.2341 -1.8977
16976TIP3    H272420   3.048   1.872  16.693  0.2515 -1.7916  1.3004
16977TIP3   OH272421   6.321   2.420   2.143  0.5702  0.4642  0.7423
16977TIP3    H172422   6.249   2.359   2.126  0.8650  0.3068  0.0588
16977TIP3    H272423   6.340   2.409   2.236  0.4113 -0.2535  0.6916
16978TIP3   OH272424   1.719   2.339  13.166 -0.2603  0.1197 -0.5481
16978TIP3    H172425   1.748   2.377  13.249  0.7471 -0.2567 -0.7207
16978TIP3    H272426   1.768   2.256  13.159 -1.2674 -0.4526 -0.9180
16979TIP3   OH272427   3.155   5.473   4.887  0.3481  0.2569 -0.4044
16979TIP3    H172428   3.237   5.517   4.862 -0.5812  1.9056 -0.6257
16979TIP3    H272429   3.109   5.459   4.805 -1.4280  3.1094  0.0270
16980TIP3   OH272430   5.497   1.341   2.643 -0.1057  0.5438 -0.5748
16980TIP3    H172431   5.422   1.397   2.660 -0.6372  0.0341 -1.2251
16980TIP3    H272432   5.548   1.389   2.578 -0.3240  0.4814 -0.7918
16981TIP3   OH272433   1.877   0.325   0.883  0.0566 -0.4255 -0.2289
16981TIP3    H172434   1.854   0.263   0.952  1.3414 -2.1686 -1.3156
16981TIP3    H272435   1.793   0.362   0.855 -0.8506 -2.3446 -0.1580
16982TIP3   OH272436   5.896   0.391   1.205  0.2216  0.7239 -0.2080
16982TIP3    H172437   5.852   0.460   1.155 -1.8619 -1.6138 -1.7543
16982TIP3    H272438   5.848   0.387   1.288  1.0275  1.8176  0.3214
16983TIP3   OH272439   0.543   5.585  13.531 -0.7821 -0.2460 -0.3391
16983TIP3    H172440   0.558   5.675  13.502 -0.1951 -0.0952  0.4070
16983TIP3    H272441   0.630   5.545  13.529 -1.1021 -0.9106 -1.0364
16984TIP3   OH272442   2.052   5.664  15.702 -0.4845  0.0296 -0.2309
16984TIP3    H172443   2.067   5.601  15.632  0.1359  1.1460 -1.1127
16984TIP3    H272444   2.045   5.749  15.657 -1.6244  0.5585  0.9032
16985TIP3   OH272445   6.795   3.319  17.039 -0.2545  0.1619  0.2673
16985TIP3    H172446   6.790   3.283  17.127  0.8286 -0.6638  0.0023
16985TIP3    H272447   6.713   3.290  16.997 -0.1179 -0.6634  0.5562
16986TIP3   OH272448   2.643   5.214  11.291 -0.0054 -0.6831  0.1451
16986TIP3    H172449   2.595   5.297  11.288 -0.4809 -0.9699 -0.3522
16986TIP3    H272450   2.694   5.219  11.372  0.8484  0.5675 -0.4476
16987TIP3   OH272451   0.885   1.944  14.417 -0.1961 -0.3350  0.4889
16987TIP3    H172452   0.861   1.993  14.496 -0.3455 -2.2295  1.6462
16987TIP3    H272453   0.869   2.005  14.345 -3.0166  0.3720  1.6692
16988TIP3   OH272454   5.151   1.788   2.904  0.0981 -0.6697  0.2906
16988TIP3    H172455   5.195   1.872   2.891 -2.8510  0.8516 -0.2802
16988TIP3    H272456   5.153   1.775   2.999  0.2136  0.2554  0.4235
16989TIP3   OH272457   6.682   4.185  15.653  0.3695  0.2489  0.2857
16989TIP3    H172458   6.743   4.119  15.622 -0.3129 -0.2271 -0.0470
16989TIP3    H272459   6.657   4.156  15.741  1.5388  1.0770  0.9060
16990TIP3   OH272460   2.197   3.321  15.089 -0.3253 -0.1748 -0.5067
16990TIP3    H172461   2.177   3.227  15.080 -0.7815  0.0464 -2.0223
16990TIP3    H272462   2.135   3.364  15.030 -0.4059  1.1296  0.5115
16991TIP3   OH272463   3.953   1.002  13.806  0.4958 -0.0036  0.3884
16991TIP3    H172464   4.047   0.990  13.790  0.2936 -0.6296 -0.3251
16991TIP3    H272465   3.947   1.023  13.899  1.1599 -2.0298  0.9104
16992TIP3   OH272466   5.184   3.689  15.383 -0.2019 -0.0556 -0.5430
16992TIP3    H172467   5.144   3.641  15.310  0.4223  0.4954 -1.2584
16992TIP3    H272468   5.136   3.771  15.387 -0.4493 -0.2199 -0.1168
16993TIP3   OH272469   0.915   4.542  14.294  0.4262 -0.1242  0.2458
16993TIP3    H172470   0.838   4.556  14.350 -0.8129 -1.8908 -0.9513
16993TIP3    H272471   0.950   4.630  14.280 -1.4419  0.7379  0.7359
16994TIP3   OH272472   4.065   3.122  12.007 -0.1634  0.3173  0.6455
16994TIP3    H172473   4.139   3.061  12.015 -0.6263 -0.6793 -2.3318
16994TIP3    H272474   4.005   3.095  12.077  0.0540 -2.1042 -0.0381
16995TIP3   OH272475   2.503   3.180  12.056  0.0612  0.1998  0.1850
16995TIP3    H172476   2.493   3.139  12.142  1.8639 -0.3725  0.1372
16995TIP3    H272477   2.462   3.117  11.995 -0.1905  0.0618  0.4982
16996TIP3   OH272478   3.117   1.188  12.497 -0.7696  0.6783 -0.1125
16996TIP3    H172479   3.075   1.102  12.501  0.2460  0.1438 -0.4728
16996TIP3    H272480   3.133   1.211  12.589  2.8004 -1.5134 -0.0653
16997TIP3   OH272481   4.507   5.801   2.786 -0.3152  0.6691 -0.3072
16997TIP3    H172482   4.558   5.856   2.845  1.0978 -1.4172  0.4721
16997TIP3    H272483   4.506   5.715   2.829 -1.3168 -0.2591 -2.1517
16998TIP3   OH272484   1.192   3.678  15.073  0.3869 -0.0590  0.9700
16998TIP3    H172485   1.168   3.608  15.134  0.7400 -0.5366  0.5720
16998TIP3    H272486   1.140   3.661  14.995  0.2003  0.3396  1.0096
16999TIP3   OH272487   6.623   2.416  10.488 -0.2053 -0.0725  0.1814
16999TIP3    H172488   6.644   2.331  10.526  0.4404  0.1948  0.4289
16999TIP3    H272489   6.691   2.430  10.423 -0.9368 -0.2355 -0.6329
17000TIP3   OH272490   3.046   6.244   3.871  0.6186  0.2350  0.0423
17000TIP3    H172491   3.126   6.228   3.821  1.9089  1.8832  1.4930
17000TIP3    H272492   3.056   6.334   3.903 -2.0813  0.6824 -0.1980
17001TIP3   OH272493   5.307   1.344   4.517 -0.0122  0.8894  0.6605
17001TIP3    H172494   5.371   1.414   4.531 -2.3165  2.6561  2.9615
17001TIP3    H272495   5.245   1.381   4.454  0.4213 -0.2684 -0.4645
17002TIP3   OH272496   1.834   4.234   4.258 -0.0235 -0.0461 -0.5263
17002TIP3    H172497   1.889   4.170   4.213 -0.5363  0.1336 -1.4088
17002TIP3    H272498   1.762   4.182   4.294  0.3101 -0.1671 -0.0228
17003TIP3   OH272499   2.778   5.980   4.706  0.4048 -0.3347 -0.1586
17003TIP3    H172500   2.770   6.054   4.765 -0.4866 -0.0045 -0.6795
17003TIP3    H272501   2.738   5.907   4.752 -0.1476 -0.1149 -0.2887
17004TIP3   OH272502   4.892   5.553   2.138 -0.0829 -0.8016 -0.5438
17004TIP3    H172503   4.940   5.623   2.180  0.5688 -0.9350 -1.0627
17004TIP3    H272504   4.959   5.489   2.113 -0.6926 -1.7638  0.2148
17005TIP3   OH272505   2.924   5.269   3.179 -0.1078 -0.2319  0.2390
17005TIP3    H172506   3.013   5.246   3.154 -0.4133 -1.3477  0.1465
17005TIP3    H272507   2.869   5.235   3.107 -0.5702  0.8009  0.0950
17006TIP3   OH272508   3.961   6.264   3.513 -0.3350 -0.4425 -0.3819
17006TIP3    H172509   3.909   6.297   3.439  0.4293  1.0245 -0.2830
17006TIP3    H272510   4.047   6.306   3.502  0.4134 -1.7598  0.2348
17007TIP3   OH272511   5.625   1.864   4.663 -0.3554  0.2652 -0.5331
17007TIP3    H172512   5.637   1.771   4.681  0.1010  0.2009 -1.1717
17007TIP3    H272513   5.535   1.870   4.632 -0.0141 -0.1390 -1.6262
17008TIP3   OH272514   3.948   5.369  17.126 -0.3859 -0.4102  0.2650
17008TIP3    H172515   3.889   5.377  17.200  0.6119  0.8855  0.9586
17008TIP3    H272516   4.025   5.323  17.161 -0.0406 -0.0660 -0.0303
17009TIP3   OH272517   6.294   2.564   5.758  0.4733  0.0640  0.5604
17009TIP3    H172518   6.231   2.633   5.736  0.3613 -0.6089 -1.2928
17009TIP3    H272519   6.286   2.553   5.853 -1.6656  0.5122  0.4459
17010TIP3   OH272520   0.060   0.340  14.436 -0.3855  0.2094 -0.9039
17010TIP3    H172521   0.059   0.244  14.434 -2.2591  0.1899 -0.3498
17010TIP3    H272522   0.140   0.364  14.389  0.7872 -1.6425  0.0814
17011TIP3   OH272523   3.640   0.808  15.378  0.4726  0.2670  0.0079
17011TIP3    H172524   3.567   0.837  15.432  1.1414  1.2148  0.4231
17011TIP3    H272525   3.677   0.734  15.425 -0.3615 -0.3714 -0.3243
17012TIP3   OH272526   1.800   0.392  14.523  0.2223  0.0625  0.0325
17012TIP3    H172527   1.770   0.449  14.593 -0.9942 -0.5187 -0.0061
17012TIP3    H272528   1.721   0.367  14.475  0.9278 -0.3000 -0.9780
17013TIP3   OH272529   4.494   1.897  11.563  0.1900  0.0867  0.2818
17013TIP3    H172530   4.488   1.802  11.551 -0.8738  0.3846 -1.9054
17013TIP3    H272531   4.587   1.914  11.578  1.1537 -0.8644 -4.0390
17014TIP3   OH272532   5.712   0.869   4.591  0.2069  0.0154  0.0100
17014TIP3    H172533   5.729   0.836   4.502  1.0157 -0.9575  0.5096
17014TIP3    H272534   5.660   0.800   4.632 -0.7489  0.7726  0.0790
17015TIP3   OH272535   1.975   0.644   0.265  0.3247 -0.1268  0.3864
17015TIP3    H172536   1.882   0.659   0.247 -0.1523 -1.3110  1.7447
17015TIP3    H272537   1.986   0.669   0.357  1.8708  2.1891 -0.3899
17016TIP3   OH272538   5.324   1.306   5.692 -0.2133  0.1716 -0.0854
17016TIP3    H172539   5.329   1.236   5.628  2.0914 -0.3320  0.6257
17016TIP3    H272540   5.309   1.262   5.775 -1.0798  0.6898  0.0427
17017TIP3   OH272541   1.577   6.085  16.698 -0.5168 -0.4018 -0.4866
17017TIP3    H172542   1.575   6.041  16.783 -2.0785 -0.7386 -0.6849
17017TIP3    H272543   1.632   6.162  16.712  0.0943 -1.0121  0.5431
17018TIP3   OH272544   5.528   1.954   3.146  0.3222 -0.0710 -0.1583
17018TIP3    H172545   5.623   1.960   3.143  0.2428  0.6419 -1.8573
17018TIP3    H272546   5.510   1.868   3.185  1.6347  0.3307  1.3730
17019TIP3   OH272547   2.563   1.006   3.594  0.5539 -0.5714 -0.1420
17019TIP3    H172548   2.614   0.932   3.561 -1.4195 -2.1452  0.2307
17019TIP3    H272549   2.488   0.966   3.638 -1.4773  1.6882 -1.4202
17020TIP3   OH272550   5.137   4.210   2.049  0.2090 -0.3289  0.4674
17020TIP3    H172551   5.205   4.178   1.990 -0.1997  0.9433 -0.7272
17020TIP3    H272552   5.057   4.211   1.996  0.0991  2.0632  0.6197
17021TIP3   OH272553   0.181   5.859   5.433 -0.8718 -0.2423  0.2180
17021TIP3    H172554   0.227   5.934   5.469 -0.2805 -1.4582  2.0045
17021TIP3    H272555   0.088   5.881   5.444 -0.6975 -0.1739  1.5404
17022TIP3   OH272556   0.781   1.967  10.908  0.0388  0.3787 -0.5326
17022TIP3    H172557   0.758   2.024  10.981 -0.3299 -0.8093  0.2972
17022TIP3    H272558   0.698   1.946  10.866  0.0083 -0.6068 -0.0158
17023TIP3   OH272559   6.776   2.365  17.011  0.5182 -0.6769  0.0750
17023TIP3    H172560   6.858   2.354  17.060  1.0106 -2.2822 -1.0787
17023TIP3    H272561   6.773   2.458  16.991  1.8167 -0.5120  0.5647
17024TIP3   OH272562   4.477   4.346   0.396 -0.3053 -0.2979 -0.1711
17024TIP3    H172563   4.409   4.404   0.362  0.0181  0.6768  0.8193
17024TIP3    H272564   4.474   4.358   0.491 -0.5551 -2.2616  0.1068
17025TIP3   OH272565   1.137   1.144  14.396  0.0251 -0.0513  0.2555
17025TIP3    H172566   1.089   1.190  14.327 -0.9359 -0.4087  0.6708
17025TIP3    H272567   1.228   1.147  14.368 -0.3636 -0.2826 -1.0895
17026TIP3   OH272568   2.612   4.269  12.211 -0.3160  0.5094 -0.6147
17026TIP3    H172569   2.525   4.229  12.213 -1.6462  3.2202 -1.2295
17026TIP3    H272570   2.667   4.210  12.263 -2.0510 -2.2386 -1.7868
17027TIP3   OH272571   3.977   0.819  16.232 -0.3592 -0.2266  0.0680
17027TIP3    H172572   3.973   0.914  16.227 -0.2989 -0.1816  0.8913
17027TIP3    H272573   3.960   0.790  16.142 -2.2367  0.4850  0.1741
17028TIP3   OH272574   1.172   2.833  12.507 -0.0435  0.3507  0.3473
17028TIP3    H172575   1.148   2.797  12.592 -0.1006  1.1522  0.6771
17028TIP3    H272576   1.097   2.813  12.450  0.5353 -1.3172  0.1361
17029TIP3   OH272577   4.297   5.829  14.425 -0.1285 -0.9470 -0.1904
17029TIP3    H172578   4.285   5.901  14.364 -0.3510 -1.9089 -1.2954
17029TIP3    H272579   4.364   5.860  14.486  0.2962 -0.0842 -1.0796
17030TIP3   OH272580   3.424   4.754  11.581  0.0908  0.4605  0.7343
17030TIP3    H172581   3.376   4.808  11.518  1.1692 -0.1995 -0.6670
17030TIP3    H272582   3.430   4.809  11.659 -1.8136  1.0487  0.4940
17031TIP3   OH272583   5.748   3.145   1.358  0.2019  0.0943  0.6048
17031TIP3    H172584   5.749   3.128   1.452  0.3123  1.7383  0.9212
17031TIP3    H272585   5.681   3.085   1.324 -3.4916  2.9287  2.4868
17032TIP3   OH272586   5.495   3.267   0.424 -0.1811 -0.2796  0.0362
17032TIP3    H172587   5.511   3.355   0.458  1.8385 -0.8211  0.5386
17032TIP3    H272588   5.426   3.232   0.481 -0.4560  0.6978  0.3110
17033TIP3   OH272589   1.489   6.409  13.986  0.4529 -0.3235 -0.6434
17033TIP3    H172590   1.457   6.468  13.918 -0.7046 -0.8055 -0.5319
17033TIP3    H272591   1.512   6.329  13.939 -0.2666 -0.6273 -0.4736
17034TIP3   OH272592   4.994   2.060  11.976  0.0290 -0.5141  0.2982
17034TIP3    H172593   4.954   2.108  11.903 -1.7251  0.1329  1.6639
17034TIP3    H272594   4.939   1.982  11.986  0.8828 -1.1304  0.2769
17035TIP3   OH272595   1.979   3.635   1.113 -0.5886 -0.6391 -0.1474
17035TIP3    H172596   1.902   3.690   1.126 -0.6523 -0.9357  0.8401
17035TIP3    H272597   2.012   3.659   1.027 -1.7879 -0.5130 -0.5840
17036TIP3   OH272598   0.073   1.463   1.936  0.3469 -0.6574  0.1554
17036TIP3    H172599   0.009   1.428   1.874 -0.7239  0.7033  0.4581
17036TIP3    H272600   0.075   1.399   2.007  0.2210 -1.3062 -0.4171
17037TIP3   OH272601   1.335   5.076  12.531 -0.2666 -0.0863  0.0515
17037TIP3    H172602   1.299   5.123  12.455  0.1964  1.4912  0.7927
17037TIP3    H272603   1.281   5.104  12.605 -1.5241 -2.5796  0.1361
17038TIP3   OH272604   3.935   2.155   4.362 -0.4650  0.5355 -0.3122
17038TIP3    H172605   3.945   2.235   4.309 -2.0018  0.7694 -0.2785
17038TIP3    H272606   4.004   2.161   4.427 -0.2514  1.6031 -0.6197
17039TIP3   OH272607   2.324   2.362  11.402 -0.6596  0.3683 -0.0696
17039TIP3    H172608   2.402   2.311  11.379 -1.4787 -1.2710  0.7842
17039TIP3    H272609   2.252   2.317  11.360 -1.3986  0.8276  0.6904
17040TIP3   OH272610   3.046   5.471   2.834 -0.3381  0.3969  0.4004
17040TIP3    H172611   3.136   5.442   2.846 -0.8306 -2.5212 -2.1423
17040TIP3    H272612   3.052   5.539   2.766 -0.0767 -0.2281 -0.2158
17041TIP3   OH272613   2.266   3.703  12.760 -0.1137  0.2988 -0.1078
17041TIP3    H172614   2.334   3.749  12.711  1.2918 -0.8940  0.6816
17041TIP3    H272615   2.188   3.758  12.751  1.2615  2.3009 -0.0059
17042TIP3   OH272616   6.786   5.178  14.575  0.7343  0.1062 -0.0249
17042TIP3    H172617   6.810   5.193  14.484  1.0959 -0.0881  0.0371
17042TIP3    H272618   6.727   5.103  14.573 -0.9856  1.4519 -0.3195
17043TIP3   OH272619   2.071   1.075  12.275  0.5338 -0.1166 -0.5556
17043TIP3    H172620   2.043   1.121  12.195  1.0247  0.0883 -0.6123
17043TIP3    H272621   2.097   1.145  12.335  1.2034 -0.3122 -0.6102
17044TIP3   OH272622   1.469   3.032  12.014 -0.2468 -0.2346 -0.0920
17044TIP3    H172623   1.493   2.954  11.964  0.0164  0.0791 -0.4530
17044TIP3    H272624   1.543   3.048  12.072  1.2313  1.7932 -2.4670
17045TIP3   OH272625   5.000   0.777   6.166  0.4567 -0.3355 -0.4030
17045TIP3    H172626   5.091   0.777   6.136  0.4123 -0.0735 -0.5477
17045TIP3    H272627   5.005   0.792   6.260  0.4742  1.9082 -0.7412
17046TIP3   OH272628   4.509   4.633   4.739  0.3928 -0.2530  0.1871
17046TIP3    H172629   4.473   4.617   4.652  0.5115 -2.5425  0.5312
17046TIP3    H272630   4.469   4.715   4.768 -1.3489 -0.6398 -1.1083
17047TIP3   OH272631   1.754   6.756   4.207  0.0389  0.3532  0.9788
17047TIP3    H172632   1.846   6.732   4.201 -0.2725 -0.6217 -0.0826
17047TIP3    H272633   1.747   6.806   4.288  1.2458 -0.7209  1.7558
17048TIP3   OH272634   1.832   2.826   5.865  0.0564 -0.4154 -0.1899
17048TIP3    H172635   1.841   2.732   5.852  0.8499 -0.7706  2.6001
17048TIP3    H272636   1.780   2.834   5.945 -0.6085  1.5272 -0.7894
17049TIP3   OH272637   0.480   3.983   5.026 -0.3427  0.2213 -0.4361
17049TIP3    H172638   0.442   3.985   5.113  0.9164  0.3883  0.1241
17049TIP3    H272639   0.430   4.047   4.976 -1.9882 -0.8816 -0.2343
17050TIP3   OH272640   2.009   4.457   1.814 -0.1956  0.1419  0.8987
17050TIP3    H172641   1.941   4.512   1.853  0.1901 -1.0546  3.3632
17050TIP3    H272642   1.985   4.368   1.840  2.5065 -0.2640  2.1065
17051TIP3   OH272643   2.865   2.388   4.893  0.0966 -0.1433 -0.3402
17051TIP3    H172644   2.957   2.389   4.868  0.4187  0.0347  0.8618
17051TIP3    H272645   2.833   2.303   4.862  1.3077 -1.3260  1.5652
17052TIP3   OH272646   0.998   6.118   1.274  0.1840  0.3846 -0.4488
17052TIP3    H172647   1.016   6.171   1.352 -0.1479  0.7257 -0.6014
17052TIP3    H272648   0.985   6.029   1.307 -0.4325  0.6134 -0.0576
17053TIP3   OH272649   2.430   5.041  16.664 -0.2884 -0.5645 -0.4506
17053TIP3    H172650   2.524   5.024  16.672 -0.5080 -1.7709 -0.2947
17053TIP3    H272651   2.424   5.122  16.613  0.8657  0.2579  0.6908
17054TIP3   OH272652   1.962   6.383   1.245 -0.1102 -0.0245  0.2746
17054TIP3    H172653   1.995   6.460   1.199 -0.5826  0.7808  1.2420
17054TIP3    H272654   1.940   6.321   1.176 -0.6033  1.0740 -0.5690
17055TIP3   OH272655   3.329   3.261   0.966 -0.0548  0.2363 -0.0693
17055TIP3    H172656   3.423   3.245   0.964  0.1875  1.2957  1.6899
17055TIP3    H272657   3.311   3.307   0.883  1.1098  0.7203 -0.0694
17056TIP3   OH272658   4.386   0.302  16.774 -0.1637  0.7041  0.1112
17056TIP3    H172659   4.302   0.343  16.752  0.3891  2.0953  0.5504
17056TIP3    H272660   4.414   0.260  16.692 -0.4923  1.6554 -0.4969
17057TIP3   OH272661   0.364   1.322  11.867  0.0181 -0.2568  0.0968
17057TIP3    H172662   0.296   1.337  11.933 -0.6964 -1.2864 -0.3703
17057TIP3    H272663   0.379   1.227  11.870 -1.3437 -0.6091 -2.4360
17058TIP3   OH272664   5.743   1.256   4.090 -0.0343 -0.8538  0.2547
17058TIP3    H172665   5.690   1.253   4.170  1.7852 -1.7791  1.4299
17058TIP3    H272666   5.721   1.175   4.044 -0.5684 -0.6416  0.1252
17059TIP3   OH272667   0.610   6.431   1.391  0.7375  0.4351 -0.8844
17059TIP3    H172668   0.533   6.374   1.386  0.5905  0.4751  0.6542
17059TIP3    H272669   0.578   6.510   1.436  2.0124 -0.1465  1.0970
17060TIP3   OH272670   2.688   1.392   2.595 -0.0088 -0.0510 -0.0776
17060TIP3    H172671   2.641   1.318   2.632  0.7054  0.2620  1.4921
17060TIP3    H272672   2.664   1.392   2.502 -0.2825 -2.0157 -0.0151
17061TIP3   OH272673   4.209   4.132   0.758  0.8414  0.2993 -0.1366
17061TIP3    H172674   4.190   4.040   0.778  0.0152  0.0979 -1.7566
17061TIP3    H272675   4.140   4.181   0.803  2.0426  0.2316  1.8104
17062TIP3   OH272676   4.781   5.260   3.627 -0.4641 -0.0859  0.1748
17062TIP3    H172677   4.864   5.307   3.616 -0.8508  0.1524 -1.8148
17062TIP3    H272678   4.715   5.329   3.627 -0.8653 -0.4731 -0.6321
17063TIP3   OH272679   1.852   1.653  16.117  0.2925  0.0347 -0.0849
17063TIP3    H172680   1.838   1.704  16.197 -0.7753 -1.9626  1.0553
17063TIP3    H272681   1.791   1.580  16.125  0.7343 -0.6256 -2.3764
17064TIP3   OH272682   5.058   0.828  11.142  0.0004  0.5541 -0.4556
17064TIP3    H172683   5.094   0.768  11.207  0.7644  0.7232 -0.7174
17064TIP3    H272684   5.054   0.777  11.061 -0.7063  0.4222 -0.3427
17065TIP3   OH272685   5.358   0.942  12.742 -0.0234  0.0681 -0.0277
17065TIP3    H172686   5.337   0.979  12.656 -0.9919  0.0733  0.2069
17065TIP3    H272687   5.343   0.848  12.732  2.6163 -0.3251 -0.6766
17066TIP3   OH272688   1.543   1.850  12.631  0.0986 -0.3164 -0.6394
17066TIP3    H172689   1.575   1.878  12.717 -0.3414 -0.7808 -0.3182
17066TIP3    H272690   1.601   1.777  12.607  0.3725 -0.0301 -0.8445
17067TIP3   OH272691   3.428   0.325  15.327  0.4759  0.1872  0.0941
17067TIP3    H172692   3.344   0.333  15.372  0.9755  2.4778  0.6602
17067TIP3    H272693   3.413   0.363  15.241  0.2184 -1.9099 -0.8274
17068TIP3   OH272694   3.041   1.685  14.664  0.2231  0.2165  1.0889
17068TIP3    H172695   3.054   1.671  14.571 -1.9182  0.8202  0.6683
17068TIP3    H272696   3.065   1.601  14.705  2.8440  0.4945  0.2082
17069TIP3   OH272697   6.778   0.343   4.378  0.1283 -0.4722 -0.3533
17069TIP3    H172698   6.688   0.360   4.349  0.0789  0.9044  0.5721
17069TIP3    H272699   6.826   0.423   4.357  1.1173 -1.1639 -0.7523
17070TIP3   OH272700   0.738   3.544  11.561  0.7932 -0.2517  0.1315
17070TIP3    H172701   0.675   3.513  11.496  0.6737  0.0983  0.0823
17070TIP3    H272702   0.803   3.592  11.510  1.6881 -1.5231  0.0462
17071TIP3   OH272703   3.035   0.414  15.701 -0.0298  0.7048  0.3174
17071TIP3    H172704   2.978   0.369  15.639  0.6648  0.7606 -0.3734
17071TIP3    H272705   3.047   0.351  15.772 -0.4544  0.4576  0.1731
17072TIP3   OH272706   6.622   4.708   4.679 -0.2361 -0.1419 -0.0621
17072TIP3    H172707   6.655   4.636   4.731  0.2047  1.5850  2.1317
17072TIP3    H272708   6.538   4.676   4.644  0.5522 -2.1273 -0.1993
17073TIP3   OH272709   3.637   5.347   0.546  0.7134  0.1557  0.0800
17073TIP3    H172710   3.570   5.278   0.557  0.4432  0.1550 -1.4553
17073TIP3    H272711   3.611   5.415   0.609 -0.4916 -0.0277 -0.1961
17074TIP3   OH272712   5.049   2.906   3.137 -0.0803  0.8197  0.0935
17074TIP3    H172713   5.086   2.830   3.093 -1.3795 -0.0997  0.5583
17074TIP3    H272714   5.084   2.902   3.226  0.7518  1.4097 -0.2030
17075TIP3   OH272715   0.004   3.327   0.852 -0.5526 -0.4664 -0.6178
17075TIP3    H172716  -0.057   3.283   0.793  0.6761  0.5807 -2.6955
17075TIP3    H272717   0.086   3.280   0.840 -0.5589 -0.9572  1.1211
17076TIP3   OH272718   0.576   0.541  16.211  0.4172  0.2980 -0.6279
17076TIP3    H172719   0.644   0.476  16.229  0.0343  0.3987  1.2975
17076TIP3    H272720   0.558   0.532  16.118  0.6622 -2.1110 -0.4697
17077TIP3   OH272721   3.171   0.898   1.997  0.3067  0.0588  0.0892
17077TIP3    H172722   3.163   0.957   1.922  0.7229  1.5676  1.2020
17077TIP3    H272723   3.139   0.949   2.072  0.3175 -1.2572  1.0251
17078TIP3   OH272724   0.395   4.412  12.435 -0.1072 -0.1462 -0.0003
17078TIP3    H172725   0.484   4.394  12.464 -0.2122 -0.8763 -0.1295
17078TIP3    H272726   0.398   4.400  12.340 -0.1912  0.4746 -0.0860
17079TIP3   OH272727   2.545   1.646  15.460  0.3002  0.5907 -0.6617
17079TIP3    H172728   2.476   1.697  15.502  0.5637  1.9346 -1.8094
17079TIP3    H272729   2.624   1.700  15.470  0.1001  1.6067 -4.0488
17080TIP3   OH272730   5.293   4.078  12.073 -0.2400 -0.1188  0.0416
17080TIP3    H172731   5.300   4.003  12.014 -1.8869 -0.7394  0.5783
17080TIP3    H272732   5.337   4.050  12.153 -2.4660 -1.2779  0.9148
17081TIP3   OH272733   5.967   6.617  15.071 -0.4362  0.7224  0.1547
17081TIP3    H172734   5.994   6.624  15.162  0.7238  3.0880 -0.3131
17081TIP3    H272735   5.986   6.527  15.046 -2.5015 -0.4779  2.7506
17082TIP3   OH272736   5.180   2.883   5.643 -0.3137  0.2144 -0.5294
17082TIP3    H172737   5.116   2.883   5.714  1.6583 -0.2745  1.2735
17082TIP3    H272738   5.127   2.891   5.564 -2.5220  1.1519  0.9935
17083TIP3   OH272739   4.218   1.356  13.578  0.6620  0.4248 -0.3510
17083TIP3    H172740   4.297   1.383  13.625  1.1484  0.4151 -1.1470
17083TIP3    H272741   4.232   1.264  13.557  1.2129  0.8607 -1.9893
17084TIP3   OH272742   6.009   1.045  16.691 -0.3722 -0.5379  0.9479
17084TIP3    H172743   5.936   1.036  16.753 -1.4781 -0.0147 -0.2618
17084TIP3    H272744   6.003   0.966  16.636 -2.0663  1.0671 -1.2556
17085TIP3   OH272745   4.039   0.323  17.204 -0.2761  0.1321 -0.7384
17085TIP3    H172746   3.999   0.270  17.135  1.4656 -0.0036 -1.6890
17085TIP3    H272747   4.122   0.353  17.166  0.7266  0.0539  1.2866
17086TIP3   OH272748   0.925   4.634   5.241 -0.0400  0.3589 -0.1878
17086TIP3    H172749   0.895   4.715   5.281 -0.8935 -0.5105  0.9678
17086TIP3    H272750   0.974   4.589   5.310  0.6423 -0.0094 -0.8909
17087TIP3   OH272751   0.486   6.040  13.000 -0.1811 -0.5017 -0.1462
17087TIP3    H172752   0.550   6.002  13.060 -0.1375  1.0638  0.8186
17087TIP3    H272753   0.498   5.991  12.918  1.3054 -1.1418  0.4393
17088TIP3   OH272754   5.962   5.419   5.104  0.0175  0.5931  0.3378
17088TIP3    H172755   5.937   5.360   5.175 -0.2599  1.4325  0.9538
17088TIP3    H272756   6.023   5.369   5.051 -1.0857 -0.6421  0.2009
17089TIP3   OH272757   6.479   2.295   5.023  0.3412 -0.0053 -0.1428
17089TIP3    H172758   6.472   2.208   5.061  0.5026  0.2972  0.5965
17089TIP3    H272759   6.472   2.354   5.098  0.1850  0.6171 -0.6455
17090TIP3   OH272760   3.520   4.591  13.784  0.3281 -0.4012  0.0059
17090TIP3    H172761   3.561   4.635  13.710 -1.1791  1.7908  0.4413
17090TIP3    H272762   3.469   4.520  13.744  2.2562 -1.4206 -0.7365
17091TIP3   OH272763   5.967   2.556  14.597 -0.2333 -0.3540  0.2239
17091TIP3    H172764   5.961   2.648  14.571  0.5173 -0.8243 -1.7356
17091TIP3    H272765   5.878   2.532  14.623 -0.9058  0.3400 -1.3779
17092TIP3   OH272766   6.100   0.642   5.960 -0.0324 -0.4005 -0.3871
17092TIP3    H172767   6.087   0.597   6.044 -1.8722 -0.1927 -0.5374
17092TIP3    H272768   6.021   0.696   5.950  1.2222  1.3153 -1.1670
17093TIP3   OH272769   0.608   0.479   3.412 -0.4645 -0.2373  0.0097
17093TIP3    H172770   0.630   0.486   3.319 -2.2443  0.6731 -0.3583
17093TIP3    H272771   0.589   0.386   3.426 -1.6752 -0.1244 -0.8787
17094TIP3   OH272772   0.613   5.670   0.549 -0.4012 -0.0042  0.4360
17094TIP3    H172773   0.685   5.689   0.489  1.9039 -0.8610  2.8532
17094TIP3    H272774   0.586   5.756   0.582  0.6905  0.1974  0.8272
17095TIP3   OH272775   1.952   5.604   6.148 -0.6963 -0.2624  0.5882
17095TIP3    H172776   1.931   5.543   6.219  1.4835 -0.8808  0.7404
17095TIP3    H272777   2.006   5.552   6.088 -1.0906  0.7487 -0.6594
17096TIP3   OH272778   6.191   3.832  17.218  0.2624  0.7983 -0.3824
17096TIP3    H172779   6.206   3.924  17.238  0.3400  0.8437 -0.6429
17096TIP3    H272780   6.256   3.785  17.271 -0.6212  0.8119  0.7248
17097TIP3   OH272781   2.495   6.258  13.966  0.3142  0.0569 -0.3302
17097TIP3    H172782   2.503   6.165  13.985  1.0478 -0.0149 -0.9790
17097TIP3    H272783   2.449   6.262  13.882 -1.3064  0.3332  0.5352
17098TIP3   OH272784   5.372   3.257  14.442 -0.0399  0.6760 -0.0833
17098TIP3    H172785   5.362   3.162  14.453  1.4549  0.2623 -2.1146
17098TIP3    H272786   5.435   3.282  14.510  0.4068  0.0227 -0.2500
17099TIP3   OH272787   2.020   6.273   3.637 -0.1124  0.2659 -0.3469
17099TIP3    H172788   2.061   6.280   3.723 -0.1811 -0.5579 -0.2451
17099TIP3    H272789   1.931   6.306   3.650  0.0216  0.5676 -0.2049
17100TIP3   OH272790   2.920   4.833   2.376 -0.7022  0.1250  0.0453
17100TIP3    H172791   2.935   4.842   2.470 -0.8735  1.5148 -0.0450
17100TIP3    H272792   2.965   4.908   2.338  0.6384 -1.2543 -1.1309
17101TIP3   OH272793   6.007   6.738  12.366  0.2536  0.7051 -0.1626
17101TIP3    H172794   6.080   6.705  12.419  0.8707 -0.5399 -1.7535
17101TIP3    H272795   5.929   6.701  12.407  0.7098 -0.0502  0.0265
17102TIP3   OH272796   4.835   2.620  12.340  0.3208  0.1863 -0.6388
17102TIP3    H172797   4.753   2.570  12.334  0.1765  0.4670 -1.0456
17102TIP3    H272798   4.904   2.555  12.330  0.1595 -0.1395  0.2904
17103TIP3   OH272799   1.299   3.495   3.943 -0.3615  0.4378  0.5366
17103TIP3    H172800   1.252   3.482   4.025 -0.1926  0.9970  0.7264
17103TIP3    H272801   1.229   3.502   3.877 -0.5016  0.1424  0.6527
17104TIP3   OH272802   5.672   5.023  13.592 -0.4295  0.2444 -0.1522
17104TIP3    H172803   5.687   5.049  13.501  0.0736  1.5649  0.3117
17104TIP3    H272804   5.759   5.027  13.633 -0.6718 -0.2434  0.4170
17105TIP3   OH272805   0.015   4.544   4.796  0.1631 -0.0227  0.0954
17105TIP3    H172806  -0.035   4.578   4.871 -0.6674 -0.5255 -0.2155
17105TIP3    H272807   0.095   4.595   4.795  1.0330 -1.2835  2.4616
17106TIP3   OH272808   1.744   2.837   6.125  0.1812 -0.4781  0.0202
17106TIP3    H172809   1.811   2.875   6.182 -0.5862  0.6422  0.2009
17106TIP3    H272810   1.670   2.821   6.183 -0.8690  1.3565 -0.7600
17107TIP3   OH272811   4.502   6.684  14.217  0.0486 -0.4937 -0.1283
17107TIP3    H172812   4.596   6.678  14.238  0.0342 -0.2898 -0.0001
17107TIP3    H272813   4.482   6.602  14.173  0.1671 -0.7721  0.3294
17108TIP3   OH272814   0.387   5.216   2.431  0.4506  0.7206  0.3582
17108TIP3    H172815   0.309   5.257   2.467  0.6065  1.5622 -0.2505
17108TIP3    H272816   0.457   5.280   2.443  1.2126 -0.2904  1.5136
17109TIP3   OH272817   0.917   1.041  12.470 -0.1669  0.5030  0.2550
17109TIP3    H172818   0.911   1.132  12.500 -0.7297  0.4064  0.4542
17109TIP3    H272819   0.882   0.990  12.543 -0.5523  0.1879 -0.1479
17110TIP3   OH272820   1.167   5.827   4.412  0.2650  0.3142 -0.7481
17110TIP3    H172821   1.242   5.777   4.445 -0.4475 -0.4267 -0.2152
17110TIP3    H272822   1.164   5.905   4.466  1.1483  0.7451 -1.3157
17111TIP3   OH272823   3.262   5.472   0.669  0.3741 -0.5002  0.2266
17111TIP3    H172824   3.205   5.423   0.611  1.9245 -1.6553 -0.3454
17111TIP3    H272825   3.203   5.507   0.736 -0.7923 -3.0157  0.5808
17112TIP3   OH272826   0.230   6.433  12.987 -0.2877  0.1572 -0.3054
17112TIP3    H172827   0.283   6.368  12.942 -1.9337 -0.3277 -1.5653
17112TIP3    H272828   0.231   6.405  13.079  3.3656  1.3457  0.0994
17113TIP3   OH272829   3.743   0.958  13.245 -0.3958  0.0839 -0.3085
17113TIP3    H172830   3.710   0.883  13.294  0.0720  1.5147  2.2517
17113TIP3    H272831   3.836   0.963  13.267 -0.4865  1.5906 -0.1962
17114TIP3   OH272832   5.113   2.954   3.724  0.0261 -0.1278  0.6702
17114TIP3    H172833   5.038   2.979   3.778  0.2946 -1.7387  1.8179
17114TIP3    H272834   5.189   2.981   3.775  0.2831 -1.8398  1.2206
17115TIP3   OH272835   6.096   4.527  14.408  0.4377 -0.4692  0.2625
17115TIP3    H172836   6.049   4.448  14.434  1.3664 -0.6241  1.5306
17115TIP3    H272837   6.187   4.510  14.432  0.8179  0.5814 -0.3926
17116TIP3   OH272838   2.378   2.664   2.673 -0.1058 -1.0528  0.2360
17116TIP3    H172839   2.416   2.606   2.608  0.1388 -2.5380  1.6916
17116TIP3    H272840   2.284   2.658   2.659 -0.0473 -1.3386 -0.0208
17117TIP3   OH272841   0.516   1.839   3.317  0.1087 -0.1775  0.1489
17117TIP3    H172842   0.600   1.823   3.274  0.2679 -0.5550  0.5882
17117TIP3    H272843   0.537   1.898   3.389 -0.2145  0.7391 -0.5053
17118TIP3   OH272844   3.645   3.772  13.555  0.5412 -0.2555  0.2392
17118TIP3    H172845   3.639   3.780  13.460  1.2082 -0.2091  0.2004
17118TIP3    H272846   3.582   3.835  13.589 -0.2239 -0.7855 -0.1785
17119TIP3   OH272847   1.711   2.816  10.817 -0.4731 -0.2835  0.1828
17119TIP3    H172848   1.753   2.887  10.863 -2.4076 -0.5487  2.4577
17119TIP3    H272849   1.633   2.855  10.778 -0.0335 -0.5544 -1.0067
17120TIP3   OH272850   2.120   4.833   2.306 -0.5870 -0.3105  0.0961
17120TIP3    H172851   2.123   4.926   2.325 -1.3782 -0.7087  2.4267
17120TIP3    H272852   2.191   4.796   2.359 -0.4644 -1.0443 -0.5796
17121TIP3   OH272853   2.423   6.141  11.804  0.1281  0.1515 -0.7693
17121TIP3    H172854   2.437   6.047  11.794 -0.8713 -0.0276 -0.5080
17121TIP3    H272855   2.509   6.176  11.828  0.2124 -0.8834  0.4844
17122TIP3   OH272856   6.311   6.751  12.008 -0.2931  0.0244  0.0564
17122TIP3    H172857   6.286   6.829  12.059 -0.9316 -0.0680 -0.1102
17122TIP3    H272858   6.300   6.678  12.069  0.9832  0.1256  0.4329
17123TIP3   OH272859   3.629   2.572   3.807  0.3892 -0.3862 -0.1324
17123TIP3    H172860   3.695   2.504   3.797 -0.0907 -0.5808 -2.1912
17123TIP3    H272861   3.654   2.640   3.745 -0.1534  0.4813  0.5928
17124TIP3   OH272862   1.804   2.226  11.097 -0.3431 -0.2680  0.2002
17124TIP3    H172863   1.828   2.153  11.154 -1.3810 -1.4256 -0.8189
17124TIP3    H272864   1.720   2.201  11.060  0.5377  0.2213 -2.2407
17125TIP3   OH272865   1.208   2.951   1.857 -0.3627 -0.4570  0.3700
17125TIP3    H172866   1.217   2.856   1.853  0.3577 -0.3507 -1.1647
17125TIP3    H272867   1.132   2.966   1.913 -0.5852 -1.9440  0.4878
17126TIP3   OH272868   2.833   4.599  11.767  0.0130  0.1919 -0.2406
17126TIP3    H172869   2.892   4.645  11.826 -0.1133  0.5343 -0.3815
17126TIP3    H272870   2.795   4.529  11.820  0.4310  0.0613 -0.1063
17127TIP3   OH272871   4.588   3.226   6.190 -0.1794  0.6566  0.6798
17127TIP3    H172872   4.681   3.236   6.207 -0.4868 -0.0887  2.9026
17127TIP3    H272873   4.561   3.310   6.152  1.3998  0.8185 -0.1250
17128TIP3   OH272874   6.739   2.071  16.138  0.1294  0.4941  0.0749
17128TIP3    H172875   6.685   2.009  16.187  1.7311  1.0253  2.6199
17128TIP3    H272876   6.820   2.024  16.120  1.1401  1.6300  1.5337
17129TIP3   OH272877   6.672   0.360  11.429 -0.7184  0.3909 -0.4123
17129TIP3    H172878   6.721   0.394  11.504 -2.4542 -0.1206  1.0034
17129TIP3    H272879   6.610   0.430  11.408  1.0961  1.3556 -2.6868
17130TIP3   OH272880   5.549   1.964   2.312  0.0279 -0.4826  0.0729
17130TIP3    H172881   5.630   2.010   2.290 -0.6763  1.0622  0.6529
17130TIP3    H272882   5.529   1.912   2.233  0.0321  1.3696 -1.1790
17131TIP3   OH272883   0.015   4.264   5.211 -0.6582  0.2647  0.2726
17131TIP3    H172884  -0.069   4.240   5.252 -0.7540  2.0200  1.1394
17131TIP3    H272885   0.003   4.241   5.119 -2.7828  2.1770  0.0234
17132TIP3   OH272886   2.628   0.256  14.076  0.0178 -0.5838 -0.1654
17132TIP3    H172887   2.684   0.324  14.040 -1.7913  0.4435 -1.1378
17132TIP3    H272888   2.688   0.188  14.107  1.7153 -0.4002 -2.9429
17133TIP3   OH272889   4.244   5.202   3.136  0.1843  0.6242  0.0310
17133TIP3    H172890   4.198   5.283   3.118 -0.0276  0.4329 -0.3017
17133TIP3    H272891   4.242   5.154   3.053  0.8647  0.5588  0.0482
17134TIP3   OH272892   6.224   0.066  14.390 -0.4887  0.4454  0.3058
17134TIP3    H172893   6.257  -0.015  14.350  1.5461  1.2780  0.2427
17134TIP3    H272894   6.202   0.122  14.315 -0.4661  0.5156  0.3524
17135TIP3   OH272895   1.957   6.133   4.251  0.0550  0.3155 -0.4990
17135TIP3    H172896   1.884   6.092   4.205 -0.8391  1.7356 -0.3929
17135TIP3    H272897   2.024   6.065   4.255 -1.2655 -1.0237 -0.5751
17136TIP3   OH272898   5.812   1.384   1.751  0.4386  0.2699  0.1126
17136TIP3    H172899   5.754   1.315   1.719 -1.6387  1.9713  0.1083
17136TIP3    H272900   5.866   1.407   1.675  0.4814 -0.6721 -0.1491
17137TIP3   OH272901   4.426   0.180   3.725 -0.1491  0.1169 -0.1084
17137TIP3    H172902   4.371   0.102   3.717 -0.2456 -0.1494  2.6587
17137TIP3    H272903   4.502   0.151   3.776 -1.2783  2.2993  2.9723
17138TIP3   OH272904   3.338   3.146  11.893  0.2865  0.2735 -0.1688
17138TIP3    H172905   3.402   3.161  11.962  0.5916 -1.5562 -0.0133
17138TIP3    H272906   3.388   3.149  11.812  0.6318 -1.3715 -0.0320
17139TIP3   OH272907   3.339   0.603   6.305 -0.2603  0.6052  0.5588
17139TIP3    H172908   3.364   0.681   6.355 -0.1444  0.9070  0.0410
17139TIP3    H272909   3.251   0.582   6.335 -0.5051  1.2626  0.3086
17140TIP3   OH272910   2.732   4.894  12.659 -0.3792 -0.0296 -0.0923
17140TIP3    H172911   2.704   4.954  12.590 -1.2739 -1.0106 -0.6017
17140TIP3    H272912   2.757   4.814  12.613  3.4283  0.8277  0.3377
17141TIP3   OH272913   6.377   6.772  16.686 -0.5482  0.5976  0.4805
17141TIP3    H172914   6.410   6.808  16.604 -2.0493  1.1451  0.1085
17141TIP3    H272915   6.351   6.848  16.737 -1.0602  0.1866  0.8434
17142TIP3   OH272916   1.999   5.220   0.889  0.5363  0.4650 -0.2385
17142TIP3    H172917   2.002   5.274   0.968  2.5602  1.2198 -0.7985
17142TIP3    H272918   2.060   5.148   0.907  1.6295  1.0798 -1.4159
17143TIP3   OH272919   0.808   6.408  15.464  0.3500  0.1944 -0.3565
17143TIP3    H172920   0.733   6.374  15.514  1.0435  1.1003  1.3524
17143TIP3    H272921   0.772   6.426  15.377 -0.9143 -1.3529 -0.1835
17144TIP3   OH272922   3.408   2.625  16.845 -0.1766 -0.5801 -0.0489
17144TIP3    H172923   3.392   2.642  16.752  2.0330  0.4366 -0.2945
17144TIP3    H272924   3.329   2.656  16.890 -1.4091 -1.4065 -1.5982
17145TIP3   OH272925   0.736   2.197   5.501  0.0644  0.1529 -0.0103
17145TIP3    H172926   0.700   2.232   5.419  0.2982  0.2417 -0.0741
17145TIP3    H272927   0.685   2.118   5.517 -2.0036  1.7076  1.3267
17146TIP3   OH272928   5.362   4.002   2.688  0.3093  0.0948  0.1506
17146TIP3    H172929   5.280   4.005   2.638  0.4502  0.6255 -0.0620
17146TIP3    H272930   5.334   3.994   2.779  0.0451 -0.6635  0.0023
17147TIP3   OH272931   2.682   6.254   2.340 -0.3753 -0.1582 -0.1235
17147TIP3    H172932   2.649   6.339   2.310 -0.6435  0.6479  2.3641
17147TIP3    H272933   2.621   6.227   2.408  1.7862 -0.5638  1.7148
17148TIP3   OH272934   0.748   6.205   4.121  0.1188 -0.2151 -0.1338
17148TIP3    H172935   0.754   6.169   4.210 -0.8128 -1.1816 -0.4523
17148TIP3    H272936   0.669   6.259   4.123  0.3215  0.0884 -0.2703
17149TIP3   OH272937   1.591   6.725   5.116 -0.4056  0.2036 -0.1218
17149TIP3    H172938   1.623   6.692   5.200 -2.8499 -0.1828  0.6921
17149TIP3    H272939   1.570   6.817   5.134  0.9719  0.6920 -0.8826
17150TIP3   OH272940   5.869   0.571  15.209  0.0173  0.5956  0.1335
17150TIP3    H172941   5.807   0.538  15.144  1.6688 -0.3710 -0.9863
17150TIP3    H272942   5.835   0.658  15.232 -0.0368  1.4253 -2.7968
17151TIP3   OH272943   5.707   6.502  13.888  0.2240  0.0973 -0.2673
17151TIP3    H172944   5.786   6.450  13.880  0.6766  0.8444 -0.7962
17151TIP3    H272945   5.701   6.548  13.805 -1.3257 -0.7243 -0.6180
17152TIP3   OH272946   4.681   6.225  14.984  0.5617  0.4538 -0.0909
17152TIP3    H172947   4.589   6.209  15.005  0.3711  0.4868 -0.9140
17152TIP3    H272948   4.683   6.314  14.951  0.4746 -0.4290 -2.5494
17153TIP3   OH272949   1.937   1.928   1.584  0.2754  0.4556  0.0956
17153TIP3    H172950   1.952   2.016   1.617  0.0299  0.7595 -0.5808
17153TIP3    H272951   1.903   1.942   1.495 -0.9052 -0.2904  0.4168
17154TIP3   OH272952   4.753   4.110   3.401  0.1542 -0.2051 -0.5405
17154TIP3    H172953   4.761   4.014   3.399  3.4446 -0.0223  0.9359
17154TIP3    H272954   4.820   4.141   3.340  0.5537  1.2002  0.6057
17155TIP3   OH272955   3.559   2.621   1.296 -0.4297 -0.0849 -0.2431
17155TIP3    H172956   3.605   2.580   1.369 -0.0275 -0.2584 -0.5883
17155TIP3    H272957   3.492   2.557   1.270  0.1101 -0.4695 -0.6954
17156TIP3   OH272958   2.131   5.360   0.065 -0.2932  0.3887  0.2339
17156TIP3    H172959   2.039   5.364   0.038 -0.2742 -1.1296 -0.0932
17156TIP3    H272960   2.168   5.288   0.014  0.6054 -0.2466  1.7509
17157TIP3   OH272961   5.334   5.818  15.359 -0.3681  0.2943 -0.2899
17157TIP3    H172962   5.292   5.734  15.338  0.0100  0.6030 -2.4064
17157TIP3    H272963   5.326   5.869  15.278  1.7833  1.3071  0.1110
17158TIP3   OH272964   2.979   0.969  11.121 -0.3764 -0.2908 -0.1080
17158TIP3    H172965   3.005   1.061  11.119  0.5752 -0.5733 -2.0353
17158TIP3    H272966   2.899   0.965  11.068 -0.5380 -0.5333  0.1502
17159TIP3   OH272967   5.173   5.502   1.322 -0.1658 -0.1234 -0.2363
17159TIP3    H172968   5.207   5.471   1.406 -1.3804  2.8715  1.4416
17159TIP3    H272969   5.078   5.492   1.330 -0.3053  0.4730 -1.1211
17160TIP3   OH272970   6.771   4.291  15.934  0.3974 -0.4968  0.8268
17160TIP3    H172971   6.852   4.321  15.975  1.2120 -0.3530 -0.8372
17160TIP3    H272972   6.796   4.269  15.844 -1.6443  0.6972 -0.0692
17161TIP3   OH272973   4.853   0.550   4.939  0.5415 -0.0205  0.0203
17161TIP3    H172974   4.851   0.475   4.879 -3.1132  0.1017 -0.1507
17161TIP3    H272975   4.883   0.514   5.022 -0.8390 -1.6547 -0.1553
17162TIP3   OH272976   3.055   5.604   4.495  0.1502  0.0181  0.5181
17162TIP3    H172977   3.034   5.674   4.558  0.1922  0.2692  0.2548
17162TIP3    H272978   2.985   5.609   4.430  2.1169  2.2786 -1.5583
17163TIP3   OH272979   6.306   1.541  15.494 -0.5679 -0.1089  0.9210
17163TIP3    H172980   6.379   1.543  15.432 -0.3380 -2.0441  1.1089
17163TIP3    H272981   6.244   1.478  15.457 -0.5410 -1.0976  2.5139
17164TIP3   OH272982   1.623   1.091   0.577  0.1247  0.2197  0.8174
17164TIP3    H172983   1.631   1.015   0.520 -0.4691  0.7820 -0.0138
17164TIP3    H272984   1.530   1.110   0.579  0.2763  0.9389  1.0193
17165TIP3   OH272985   1.038   2.798  10.475  0.0605 -0.4818 -0.2377
17165TIP3    H172986   1.036   2.714  10.522  1.6135 -0.8046 -0.7142
17165TIP3    H272987   1.131   2.812  10.455 -0.1620  1.4680  0.0130
17166TIP3   OH272988   4.834   4.148   3.711  0.4248  0.1527 -0.1114
17166TIP3    H172989   4.774   4.219   3.691 -0.5642 -0.6957 -0.2100
17166TIP3    H272990   4.809   4.078   3.650  2.0848  0.0946 -0.7497
17167TIP3   OH272991   5.155   1.410   6.129 -0.0653 -0.2260 -0.6346
17167TIP3    H172992   5.229   1.468   6.147  0.1755  0.2698 -3.0509
17167TIP3    H272993   5.081   1.469   6.118 -0.1726 -0.4857 -1.3374
17168TIP3   OH272994   6.215   3.430   1.535  0.0462  0.5845  0.4789
17168TIP3    H172995   6.271   3.405   1.461 -0.0820 -0.4008  0.7110
17168TIP3    H272996   6.194   3.347   1.578  1.6492  1.3021  2.7425
17169TIP3   OH272997   3.912   4.838  15.007 -0.2790  0.4933  0.4333
17169TIP3    H172998   3.887   4.931  15.010  0.3399  0.7147 -0.8654
17169TIP3    H272999   3.986   4.831  15.067 -0.3551  0.8316  0.5667
17170TIP3   OH273000   0.437   2.916   3.351 -0.1583  0.0949 -0.0972
17170TIP3    H173001   0.376   2.850   3.319 -1.0546  0.2766  1.1971
17170TIP3    H273002   0.381   2.990   3.376  0.9057  1.8615 -2.6874
17171TIP3   OH273003   6.154   5.685  11.234  0.2814 -0.0806  0.3301
17171TIP3    H173004   6.176   5.639  11.315 -0.1794 -0.5309  0.2006
17171TIP3    H273005   6.140   5.776  11.262 -1.0894 -0.4651  0.9678
17172TIP3   OH273006   1.599   2.234  16.465 -0.5858  0.2275  0.3040
17172TIP3    H173007   1.621   2.179  16.540 -2.0071 -0.0815  0.5139
17172TIP3    H273008   1.564   2.315  16.504 -0.2790  0.5190 -0.0208
17173TIP3   OH273009   2.548   3.556  12.526  1.1302 -0.5940 -0.0314
17173TIP3    H173010   2.519   3.485  12.583 -2.1092 -0.1466 -0.9882
17173TIP3    H273011   2.555   3.632  12.584  0.3852 -0.7326  0.2439
17174TIP3   OH273012   0.674   3.077  12.641  0.0578 -0.7417 -0.0989
17174TIP3    H173013   0.612   3.098  12.571 -1.1497 -0.9148  0.8797
17174TIP3    H273014   0.704   2.988  12.621  0.8746 -0.2246 -1.1996
17175TIP3   OH273015   4.734   3.443   3.691 -0.1904  0.2187 -0.2066
17175TIP3    H173016   4.720   3.417   3.600  0.5258 -0.4896 -0.1164
17175TIP3    H273017   4.673   3.389   3.741 -0.3129  0.3406 -0.2209
17176TIP3   OH273018   4.738   6.188   2.004 -0.3343 -0.5627  0.1446
17176TIP3    H173019   4.741   6.095   1.981 -3.6171 -1.4035  2.8644
17176TIP3    H273020   4.680   6.227   1.938 -0.6744 -0.8478  0.2738
17177TIP3   OH273021   6.665   1.567  14.644 -0.6181  0.5016 -0.2023
17177TIP3    H173022   6.725   1.637  14.618 -0.5516 -0.0028 -1.4708
17177TIP3    H273023   6.681   1.497  14.580 -0.0555 -1.0246  1.5520
17178TIP3   OH273024   4.822   0.298  13.729  0.3275 -0.1224  0.6597
17178TIP3    H173025   4.909   0.260  13.713  0.8902  1.3990 -0.0675
17178TIP3    H273026   4.782   0.303  13.642  0.4406  1.2952  0.6677
17179TIP3   OH273027   5.635   3.258  16.426  0.1288 -0.1362  0.3809
17179TIP3    H173028   5.586   3.332  16.460  1.5059  1.3209 -0.6854
17179TIP3    H273029   5.579   3.220  16.358 -0.1722  0.5739  0.2284
17180TIP3   OH273030   0.507   6.395  16.118 -0.2921  0.3413 -0.0923
17180TIP3    H173031   0.594   6.433  16.133 -0.5129  0.3854  1.1178
17180TIP3    H273032   0.448   6.450  16.169 -0.7137 -1.1937  1.0917
17181TIP3   OH273033   2.099   3.741  13.795  0.2918 -1.0176 -0.0750
17181TIP3    H173034   2.148   3.712  13.718  0.2422 -0.6324 -0.2509
17181TIP3    H273035   2.011   3.704  13.783  0.4965 -1.5945  0.1742
17182TIP3   OH273036   6.037   0.138   3.903  0.3014 -0.6709 -0.5943
17182TIP3    H173037   5.984   0.069   3.863 -0.0481 -1.8878  1.8650
17182TIP3    H273038   5.972   0.201   3.936  0.5805  0.2564 -1.7755
17183TIP3   OH273039   4.863   2.591   2.162 -0.0611  0.1626  0.2514
17183TIP3    H173040   4.911   2.663   2.122 -0.3170  0.3756  0.3273
17183TIP3    H273041   4.885   2.515   2.108  0.8553  0.1353  0.6589
17184TIP3   OH273042   1.079   4.436  13.749  0.1173 -0.0875 -0.0340
17184TIP3    H173043   1.029   4.498  13.697  1.3969  1.1609  0.2144
17184TIP3    H273044   1.122   4.379  13.685  0.6234  0.6080 -0.3149
17185TIP3   OH273045   0.818   0.661  15.157  0.0388 -0.3720  0.1420
17185TIP3    H173046   0.751   0.729  15.153 -1.2269 -1.6833 -2.7949
17185TIP3    H273047   0.768   0.579  15.166  1.3957 -1.1553  0.7070
17186TIP3   OH273048   4.696   5.650   6.426 -0.0252 -0.3986 -0.3795
17186TIP3    H173049   4.761   5.661   6.496 -0.0908 -0.6308 -0.2811
17186TIP3    H273050   4.719   5.566   6.386 -0.2730 -0.4889 -0.3343
17187TIP3   OH273051   1.857   6.021   4.931 -0.0976  0.2432  0.1071
17187TIP3    H173052   1.919   5.961   4.974 -0.2211  0.4579  0.5869
17187TIP3    H273053   1.786   6.032   4.995 -0.5390  0.1500 -0.3680
17188TIP3   OH273054   2.610   5.954   3.014 -0.5245  0.7025  0.0282
17188TIP3    H173055   2.692   5.949   2.965  0.9471  2.8623  2.1746
17188TIP3    H273056   2.608   6.042   3.049 -3.2322  0.3005  0.9785
17189TIP3   OH273057   4.317   0.525   2.943 -0.7863 -0.1490  0.0009
17189TIP3    H173058   4.248   0.567   2.994 -0.6745 -2.2965  2.0565
17189TIP3    H273059   4.276   0.445   2.909  0.5360 -1.2243  0.8839
17190TIP3   OH273060   6.126   2.900  17.021 -0.1626  0.2957 -0.2824
17190TIP3    H173061   6.118   2.827  16.960 -0.2838 -1.4087  1.7194
17190TIP3    H273062   6.037   2.932  17.033 -0.2099  0.2671 -0.5597
17191TIP3   OH273063   3.786   5.556   0.911 -0.5555 -0.4579  0.6273
17191TIP3    H173064   3.715   5.525   0.855  0.5771  0.8850 -1.6534
17191TIP3    H273065   3.744   5.614   0.974 -1.6322 -0.5335 -0.0088
17192TIP3   OH273066   1.415   6.155   1.197  0.4256  0.4592  0.5118
17192TIP3    H173067   1.420   6.240   1.154  1.4122  0.9152  1.5025
17192TIP3    H273068   1.398   6.175   1.289 -0.9858 -0.4799  0.4774
17193TIP3   OH273069   3.458   0.473   1.758 -0.0533 -0.2586  0.1814
17193TIP3    H173070   3.451   0.389   1.802 -1.8109 -0.2999 -0.1581
17193TIP3    H273071   3.543   0.507   1.785  1.1299 -2.5922 -0.5123
17194TIP3   OH273072   2.723   2.776  12.690 -0.2922 -0.2115  0.1026
17194TIP3    H173073   2.675   2.696  12.669  0.0639 -0.2563 -0.5509
17194TIP3    H273074   2.753   2.809  12.605 -0.2578  0.4999  0.3917
17195TIP3   OH273075   5.352   4.234   5.374  0.5443  0.2094  0.6103
17195TIP3    H173076   5.413   4.174   5.417  0.3305 -0.6186 -0.2096
17195TIP3    H273077   5.407   4.286   5.315  0.6073  0.1825  0.6452
17196TIP3   OH273078   6.112   0.836   4.832 -0.3446 -0.2933  0.3356
17196TIP3    H173079   6.144   0.859   4.745 -0.0984  2.3079  1.0548
17196TIP3    H273080   6.017   0.837   4.824 -0.3109 -2.0680 -0.3742
17197TIP3   OH273081   6.041   2.147   0.227 -0.6757  0.2372 -0.6399
17197TIP3    H173082   6.132   2.176   0.240 -0.0486 -2.0084  0.2619
17197TIP3    H273083   6.031   2.142   0.132 -0.0763  1.1350 -0.7614
17198TIP3   OH273084   2.288   3.779   2.070 -0.1929  0.5983  0.3735
17198TIP3    H173085   2.328   3.822   2.145 -0.6832  0.9539  0.4306
17198TIP3    H273086   2.199   3.759   2.097 -0.6499  1.5236 -0.4156
17199TIP3   OH273087   3.172   2.318  11.670 -0.4863 -0.0915 -0.3511
17199TIP3    H173088   3.223   2.323  11.590  0.7342  0.6055  0.4544
17199TIP3    H273089   3.222   2.369  11.734 -1.7451 -0.1288  0.6869
17200TIP3   OH273090   6.561   3.964  11.334  0.2733 -0.2495 -0.1163
17200TIP3    H173091   6.510   3.944  11.412  0.2232  2.9570  0.7406
17200TIP3    H273092   6.497   3.962  11.262 -0.1005 -1.0346  0.2310
17201TIP3   OH273093   0.846   0.649   2.291  0.7464  0.1019  0.4672
17201TIP3    H173094   0.831   0.670   2.199 -0.6021 -0.4627  0.5469
17201TIP3    H273095   0.880   0.730   2.329 -1.7123  1.3280  0.1627
17202TIP3   OH273096   1.298   3.868  12.098 -0.5210 -0.4193  0.1151
17202TIP3    H173097   1.361   3.804  12.065 -0.1869  0.3128 -0.7128
17202TIP3    H273098   1.308   3.943  12.039 -1.3234  0.1613  0.7077
17203TIP3   OH273099   5.331   3.432  15.338  0.1586 -0.4774 -0.0470
17203TIP3    H173100   5.370   3.517  15.359  0.0146 -0.5369  0.4584
17203TIP3    H273101   5.406   3.377  15.312 -0.0410  0.5929 -3.0752
17204TIP3   OH273102   6.810   6.391  10.843  0.1775 -1.0911  0.2045
17204TIP3    H173103   6.792   6.320  10.781  1.6135  0.2268 -1.8144
17204TIP3    H273104   6.901   6.377  10.870  0.3607 -0.2586  0.0580
17205TIP3   OH273105   3.058   2.580   6.358  0.2565  0.3689 -0.5720
17205TIP3    H173106   3.018   2.494   6.348  0.7423  0.0636  0.0999
17205TIP3    H273107   3.119   2.570   6.431 -0.0861  1.4320 -0.1326
17206TIP3   OH273108   4.095   4.185  15.794 -0.3449 -0.5795  0.1247
17206TIP3    H173109   4.153   4.246  15.749  0.0497 -1.7464 -0.9797
17206TIP3    H273110   4.047   4.239  15.857 -0.5312  0.9759 -1.3385
17207TIP3   OH273111   4.832   4.809   4.406 -0.1709  0.1099  0.3007
17207TIP3    H173112   4.873   4.767   4.482 -0.7439 -0.5237  0.2702
17207TIP3    H273113   4.781   4.739   4.365 -0.1601  0.5421 -0.4594
17208TIP3   OH273114   1.544   4.476  16.491 -0.0826 -0.2403 -0.1930
17208TIP3    H173115   1.541   4.420  16.568 -2.7919  0.6801  0.4237
17208TIP3    H273116   1.570   4.417  16.420  1.4834 -1.3010  1.2118
17209TIP3   OH273117   6.387   2.722   0.985 -0.0113  0.2091  0.1635
17209TIP3    H173118   6.326   2.660   0.944 -1.0874 -0.2477  2.3671
17209TIP3    H273119   6.335   2.801   0.999 -0.0457 -0.0700  1.7615
17210TIP3   OH273120   0.337   0.742   0.109 -0.2395 -0.6935  0.1849
17210TIP3    H173121   0.252   0.782   0.127  1.0481  1.5548  1.4875
17210TIP3    H273122   0.380   0.802   0.048  0.5680 -1.5951 -0.1578
17211TIP3   OH273123   1.929   2.263  16.653  0.5244  0.4675  0.4199
17211TIP3    H173124   2.021   2.246  16.676  0.6409  1.0440  0.3914
17211TIP3    H273125   1.920   2.358  16.660  0.0908  0.4750 -0.1685
17212TIP3   OH273126   4.108   4.818   5.605 -0.6362 -0.2580  0.8093
17212TIP3    H173127   4.196   4.820   5.568 -0.3302 -0.3861  1.5051
17212TIP3    H273128   4.087   4.909   5.623 -1.0196 -0.1441 -0.2110
17213TIP3   OH273129   2.133   6.298  11.501  0.2729  0.0120  0.0199
17213TIP3    H173130   2.065   6.358  11.532  0.2145  0.7651 -1.4822
17213TIP3    H273131   2.205   6.356  11.476  0.6989 -0.6382 -0.2489
17214TIP3   OH273132   1.519   3.207  12.870 -0.1305 -0.2084 -0.1574
17214TIP3    H173133   1.538   3.256  12.950 -0.3500  1.0450 -0.8720
17214TIP3    H273134   1.425   3.191  12.874  0.1544 -1.8261  0.7658
17215TIP3   OH273135   1.831   6.756  16.642 -0.5562  0.1144  0.2599
17215TIP3    H173136   1.857   6.671  16.606 -2.7833 -1.3259  1.8927
17215TIP3    H273137   1.877   6.763  16.725  1.1289  1.4212 -0.7562
17216TIP3   OH273138   1.100   4.108  14.067  0.4151 -0.1669  0.0863
17216TIP3    H173139   1.070   4.071  14.150 -1.0097  1.0757  0.1577
17216TIP3    H273140   1.190   4.076  14.057  0.1170 -1.4760  1.4034
17217TIP3   OH273141   0.715   6.272   4.430  0.0827 -0.6344  0.5071
17217TIP3    H173142   0.678   6.287   4.517  0.4073  2.3404  0.1899
17217TIP3    H273143   0.643   6.233   4.380 -1.6099  1.9364  0.8545
17218TIP3   OH273144   0.492   5.218  13.664 -0.0637  0.7144 -0.6458
17218TIP3    H173145   0.475   5.220  13.758 -0.2973 -0.7327 -0.6469
17218TIP3    H273146   0.519   5.307  13.643  2.5653  0.4232  1.2554
17219TIP3   OH273147   1.517   4.067  12.147 -0.2274  0.4937 -0.3808
17219TIP3    H173148   1.528   4.115  12.229 -0.2278  0.9229 -0.6282
17219TIP3    H273149   1.567   4.117  12.083 -1.8046  1.2665 -1.0619
17220TIP3   OH273150   4.619   4.861  16.251  0.0421  0.2653 -0.5437
17220TIP3    H173151   4.566   4.941  16.246 -1.2861 -0.3581  2.6076
17220TIP3    H273152   4.574   4.807  16.315  1.2259 -2.8305 -2.2351
17221TIP3   OH273153   3.908   4.035  15.627 -0.2140 -0.0885 -0.3112
17221TIP3    H173154   3.989   3.995  15.660 -1.2668 -1.8710  0.1783
17221TIP3    H273155   3.929   4.128  15.618  1.6810 -0.4197  0.4629
17222TIP3   OH273156   1.347   1.086  16.219 -0.1094 -0.2060 -0.2787
17222TIP3    H173157   1.430   1.046  16.194 -0.5526 -0.3850 -1.4808
17222TIP3    H273158   1.281   1.023  16.191 -0.7066  0.4763 -0.4060
17223TIP3   OH273159   1.380   1.894   2.776  0.2973  0.0709 -0.1017
17223TIP3    H173160   1.428   1.967   2.737 -0.2472  0.4516 -0.0556
17223TIP3    H273161   1.335   1.853   2.703  0.9797 -0.5107 -0.2026
17224TIP3   OH273162   0.418   4.553  11.645 -0.1520 -0.0993 -0.1303
17224TIP3    H173163   0.463   4.621  11.696  0.6882  0.0185 -1.0116
17224TIP3    H273164   0.366   4.505  11.709  0.9864 -0.0205  0.8664
17225TIP3   OH273165   2.141   1.421   3.148 -0.0695 -0.1635  0.1221
17225TIP3    H173166   2.079   1.364   3.194  0.1344 -0.1149  0.4573
17225TIP3    H273167   2.225   1.374   3.152 -0.2100 -0.5018 -0.8351
17226TIP3   OH273168   3.014   3.971   3.427  0.5164  0.1223 -0.1534
17226TIP3    H173169   3.098   3.967   3.471 -0.0850  1.0563  1.1285
17226TIP3    H273170   3.004   4.064   3.403 -0.5395  0.1855  0.5036
17227TIP3   OH273171   4.731   3.608   5.571  0.1375  0.3227  0.0356
17227TIP3    H173172   4.662   3.562   5.524 -1.1192  0.1263  2.0114
17227TIP3    H273173   4.805   3.610   5.510 -0.6716 -1.9630 -1.0603
17228TIP3   OH273174   3.108   6.259  13.466 -0.5982  0.1230 -0.0829
17228TIP3    H173175   3.042   6.218  13.522 -1.8257  1.3107 -0.6322
17228TIP3    H273176   3.128   6.342  13.509 -1.5946  1.0726 -1.4021
17229TIP3   OH273177   6.507   3.629  12.754 -0.1840 -0.3670  0.1970
17229TIP3    H173178   6.595   3.661  12.735 -0.7488  1.7356  1.0178
17229TIP3    H273179   6.519   3.567  12.825  0.3554  1.8273  2.0564
17230TIP3   OH273180   2.767   0.434  16.208  0.1717 -0.0738 -0.1463
17230TIP3    H173181   2.840   0.475  16.163  0.4478  0.3297  0.6575
17230TIP3    H273182   2.772   0.467  16.298 -2.2116  1.5747 -0.5625
17231TIP3   OH273183   2.663   6.260  11.879  0.4259 -0.2990  0.1982
17231TIP3    H173184   2.749   6.292  11.851  0.3933 -1.1117 -0.8486
17231TIP3    H273185   2.680   6.212  11.959  0.9800 -0.6146 -0.1053
17232TIP3   OH273186   1.093   1.493  13.507  0.4372  0.5803  0.2199
17232TIP3    H173187   1.034   1.446  13.449 -0.9656 -0.2900  2.2808
17232TIP3    H273188   1.093   1.583  13.475 -0.6409  0.2023 -0.8465
17233TIP3   OH273189   4.316   3.350   4.311 -0.3318  0.0483 -0.1309
17233TIP3    H173190   4.286   3.319   4.225 -2.5037  2.3041 -0.2616
17233TIP3    H273191   4.411   3.360   4.301 -0.6443  1.0955 -2.5761
17234TIP3   OH273192   6.674   0.554   2.435 -0.1689 -0.2359 -0.3101
17234TIP3    H173193   6.604   0.531   2.374 -0.2695  0.3010 -0.3949
17234TIP3    H273194   6.640   0.629   2.484  0.2015 -0.2065 -0.0957
17235TIP3   OH273195   6.368   1.420  14.162 -0.1177  0.5006 -0.1040
17235TIP3    H173196   6.309   1.458  14.097 -1.0020  0.7484  0.8339
17235TIP3    H273197   6.439   1.484  14.171  0.1167  0.3661 -0.9711
17236TIP3   OH273198   4.034   1.562  13.131 -0.1829 -0.0737 -0.0773
17236TIP3    H173199   4.066   1.548  13.042 -1.1574  0.8516 -0.5830
17236TIP3    H273200   4.109   1.544  13.187  1.1827  1.8836 -1.2182
17237TIP3   OH273201   3.817   5.446   4.147 -0.1064 -0.1838 -0.3109
17237TIP3    H173202   3.804   5.412   4.058  0.1826 -0.4527 -0.2520
17237TIP3    H273203   3.741   5.501   4.163  0.2249  0.4905 -1.0254
17238TIP3   OH273204   3.899   0.380   0.473  0.5358 -0.7452  0.3255
17238TIP3    H173205   3.904   0.330   0.391 -0.7298  0.8540 -0.7702
17238TIP3    H273206   3.986   0.418   0.483  0.9235 -1.5642  0.1357
17239TIP3   OH273207   2.087   4.346   5.495 -0.1328 -0.0244 -0.4609
17239TIP3    H173208   2.036   4.365   5.417  0.1671  1.6927 -0.2534
17239TIP3    H273209   2.028   4.294   5.550 -0.4915 -0.8756 -1.6266
17240TIP3   OH273210   5.934   4.027  17.138 -0.3960  0.0999  0.0322
17240TIP3    H173211   5.841   4.016  17.157 -0.3804  2.1941  1.4591
17240TIP3    H273212   5.949   3.974  17.059 -3.0547  0.7714 -0.9670
17241TIP3   OH273213   5.953   4.058   1.285  0.8469  0.1645  0.4843
17241TIP3    H173214   5.978   4.078   1.376 -2.1219 -2.4968  1.9451
17241TIP3    H273215   5.869   4.101   1.273 -0.0423 -1.7090 -0.1277
17242TIP3   OH273216   1.503   1.410  17.005 -0.0544 -0.4750  0.6429
17242TIP3    H173217   1.428   1.428  16.949  1.8654 -2.0964 -2.5798
17242TIP3    H273218   1.535   1.496  17.031 -1.3975  0.2894 -0.2050
17243TIP3   OH273219   0.473   4.442  15.254  0.9767 -0.1518 -0.4842
17243TIP3    H173220   0.455   4.498  15.179 -0.9428  2.2349  1.6406
17243TIP3    H273221   0.388   4.428  15.295  1.8515 -2.1523  0.7316
17244TIP3   OH273222   6.706   6.374  15.477 -0.1561  0.1608  0.2603
17244TIP3    H173223   6.784   6.427  15.462  1.2895 -1.5363  1.5880
17244TIP3    H273224   6.731   6.312  15.545 -1.9631 -1.8791 -0.8474
17245TIP3   OH273225   3.449   3.860  14.535  0.7703  0.1811  0.1557
17245TIP3    H173226   3.510   3.923  14.575  0.4867  0.2077  0.5430
17245TIP3    H273227   3.505   3.807  14.478  1.1243  0.3477  0.3418
17246TIP3   OH273228   3.433   2.398  12.055 -0.0136 -0.4255 -0.0262
17246TIP3    H173229   3.390   2.314  12.039  1.1077 -0.5586 -2.6110
17246TIP3    H273230   3.526   2.381  12.036  0.5849  0.8387  1.6436
17247TIP3   OH273231   0.450   3.374   4.994  0.0020 -0.6351  0.1860
17247TIP3    H173232   0.449   3.282   5.022 -2.5853 -0.5582  0.4537
17247TIP3    H273233   0.417   3.423   5.069 -0.3142  0.3208 -0.5540
17248TIP3   OH273234   4.738   0.308   2.413 -0.4925 -0.1405  0.6325
17248TIP3    H173235   4.692   0.234   2.454 -1.3095 -0.5501 -0.9653
17248TIP3    H273236   4.755   0.369   2.484 -1.5071 -1.0241  1.6419
17249TIP3   OH273237   5.835   5.986   2.321  0.0082 -0.1162 -0.2600
17249TIP3    H173238   5.880   5.905   2.346  1.9231  1.4251  1.4847
17249TIP3    H273239   5.898   6.032   2.266 -0.1884  1.1442  0.5396
17250TIP3   OH273240   2.321   2.089  14.716  0.0605  0.3500 -0.4754
17250TIP3    H173241   2.305   2.079  14.622 -1.2245  0.3387 -0.2670
17250TIP3    H273242   2.253   2.150  14.745  0.9560  0.9930  0.2979
17251TIP3   OH273243   0.991   3.134  14.547 -0.7829  0.3372  0.7078
17251TIP3    H173244   0.948   3.219  14.558 -2.0025 -0.3939  1.8240
17251TIP3    H273245   0.934   3.073  14.595  0.4553 -0.9849  0.5066
17252TIP3   OH273246   3.211   2.989   5.833 -0.2427 -0.4323  0.6410
17252TIP3    H173247   3.305   2.979   5.842 -0.0809  1.6297  1.5838
17252TIP3    H273248   3.174   2.920   5.889  0.7353  0.2390  2.1383
17253TIP3   OH273249   0.267   5.948  14.388  0.3957  0.0169  0.0784
17253TIP3    H173250   0.304   5.965  14.301 -0.9846  2.5689 -0.0401
17253TIP3    H273251   0.288   6.026  14.439 -0.2513 -0.7686  1.5744
17254TIP3   OH273252   4.764   5.630  15.739  0.2275 -0.1863 -0.4765
17254TIP3    H173253   4.699   5.563  15.758 -0.7415  1.0585  0.6934
17254TIP3    H273254   4.836   5.583  15.697 -0.8211 -1.7970 -0.5021
17255TIP3   OH273255   6.071   1.631  11.130 -0.1874 -0.0138  0.3469
17255TIP3    H173256   6.042   1.672  11.212  0.5667 -1.4130  1.3436
17255TIP3    H273257   6.081   1.538  11.152  0.1106 -0.3949 -1.3204
17256TIP3   OH273258   0.946   4.784   1.085 -0.1432 -0.2019  0.2619
17256TIP3    H173259   1.034   4.810   1.058  0.2638 -0.8794  0.9291
17256TIP3    H273260   0.889   4.852   1.049  0.7157  0.5847  0.3680
17257TIP3   OH273261   4.957   5.520  14.032  0.5223  0.3722  0.3255
17257TIP3    H173262   4.866   5.548  14.019  0.1624 -0.5415  0.8453
17257TIP3    H273263   4.997   5.592  14.081  0.4084  1.3169 -0.9345
17258TIP3   OH273264   0.975   5.384   4.080  0.0698 -0.2120 -0.5119
17258TIP3    H173265   0.905   5.448   4.076  0.3468  0.0718 -0.8937
17258TIP3    H273266   0.974   5.352   4.170  1.3537  1.9475  0.3047
17259TIP3   OH273267   5.663   2.923   4.335  0.0027 -0.6793 -0.0596
17259TIP3    H173268   5.638   2.996   4.392  0.5077 -0.8123  0.3355
17259TIP3    H273269   5.622   2.944   4.251  0.2735  0.1421  0.0039
17260TIP3   OH273270   2.266   1.878   3.003  0.3049  0.0271  0.3901
17260TIP3    H173271   2.209   1.825   3.058  0.9317 -2.3232 -1.1730
17260TIP3    H273272   2.296   1.949   3.060 -1.7780 -0.4042  2.0682
17261TIP3   OH273273   5.786   6.423  12.594  0.2482 -0.3399  0.1608
17261TIP3    H173274   5.804   6.466  12.511  1.3933 -0.1468  0.4904
17261TIP3    H273275   5.851   6.353  12.600 -0.0989 -0.6256  0.6978
17262TIP3   OH273276   2.049   2.535   4.326  0.3877 -0.0147 -0.0753
17262TIP3    H173277   2.022   2.508   4.414  0.9153  1.5947  0.5924
17262TIP3    H273278   1.975   2.586   4.292 -0.7680 -2.4906 -1.4889
17263TIP3   OH273279   2.868   0.605  14.873  0.1947 -0.0573  0.0935
17263TIP3    H173280   2.783   0.618  14.915 -0.2620  1.9679 -1.4186
17263TIP3    H273281   2.925   0.670  14.913  0.3256  0.3911 -0.8140
17264TIP3   OH273282   3.073   3.865  11.727 -0.0396  0.3886 -0.2909
17264TIP3    H173283   3.033   3.939  11.682 -0.5706 -0.1956 -0.7829
17264TIP3    H273284   3.107   3.902  11.809 -0.5516  1.1145 -0.4081
17265TIP3   OH273285   2.229   6.064   2.497 -0.1296  0.4953 -0.3506
17265TIP3    H173286   2.146   6.051   2.543 -0.1882  1.0033 -0.3106
17265TIP3    H273287   2.294   6.072   2.567  0.1343 -1.1111 -0.4040
17266TIP3   OH273288   1.434   5.400   2.453  0.5651  0.6977  0.0691
17266TIP3    H173289   1.516   5.393   2.402  0.6949 -1.2668  0.5099
17266TIP3    H273290   1.446   5.339   2.526 -0.6759  1.5727  1.0205
17267TIP3   OH273291   4.027   5.374   5.415 -0.0361  0.0821 -0.1946
17267TIP3    H173292   4.003   5.303   5.355 -1.3458  1.2510 -1.0854
17267TIP3    H273293   4.106   5.411   5.377  1.2525 -1.5322  0.8354
17268TIP3   OH273294   4.265   2.552  15.690  0.1077 -0.1780 -0.6322
17268TIP3    H173295   4.258   2.475  15.634  0.4746 -0.8754  0.2742
17268TIP3    H273296   4.282   2.517  15.778 -0.9494  0.8733  0.0183
17269TIP3   OH273297   3.913   2.557  12.865 -0.3912 -0.1234  0.3320
17269TIP3    H173298   3.844   2.583  12.926 -0.7127  0.1691 -0.1581
17269TIP3    H273299   3.886   2.471  12.832 -1.3065  0.6681 -1.0308
17270TIP3   OH273300   5.683   5.261   3.899  0.2962 -0.2711  0.2291
17270TIP3    H173301   5.647   5.209   3.826  0.0685 -0.9769  0.8420
17270TIP3    H273302   5.775   5.235   3.902 -0.0059 -1.2843  1.0759
17271TIP3   OH273303   6.249   0.310  17.234 -0.7026 -0.0133  0.5722
17271TIP3    H173304   6.236   0.215  17.223 -0.3704  0.1537 -1.5909
17271TIP3    H273305   6.340   0.324  17.209 -1.7058  1.3160 -2.5817
17272TIP3   OH273306   4.982   1.383  13.005  0.0407 -0.0988  0.9362
17272TIP3    H173307   4.980   1.299  12.959 -0.2807 -0.0949  0.9433
17272TIP3    H273308   4.927   1.441  12.951  1.4440  0.5088  0.1437
17273TIP3   OH273309   2.296   4.133   2.144  0.6374 -0.2405 -0.9786
17273TIP3    H173310   2.267   4.088   2.065 -1.1933 -1.5043  0.3794
17273TIP3    H273311   2.318   4.063   2.205  2.6322  0.7222 -0.5623
17274TIP3   OH273312   4.491   0.738  16.275 -0.2095  0.1602  0.1585
17274TIP3    H173313   4.471   0.788  16.354 -0.1520  0.9842 -0.3353
17274TIP3    H273314   4.408   0.696  16.251 -0.5620  0.9792 -0.0812
17275TIP3   OH273315   3.674   5.448   2.257  0.1975  0.3148  0.0331
17275TIP3    H173316   3.634   5.364   2.232 -0.3157  0.6040 -0.1119
17275TIP3    H273317   3.636   5.512   2.196 -0.1780  0.8224  0.7996
17276TIP3   OH273318   0.663   0.251  16.136  0.8747  0.0070 -0.0394
17276TIP3    H173319   0.735   0.297  16.092  0.4706 -0.0437 -0.7689
17276TIP3    H273320   0.584   0.287  16.095  0.5306 -0.7744 -0.0668
17277TIP3   OH273321   4.412   2.550   2.805 -0.0725  0.5836 -0.1814
17277TIP3    H173322   4.476   2.620   2.788 -0.8293  2.0255  2.6261
17277TIP3    H273323   4.328   2.589   2.781 -0.3589  0.1464  0.1191
17278TIP3   OH273324   2.133   1.780   6.511 -0.2891  0.3137  0.0410
17278TIP3    H173325   2.068   1.718   6.545 -0.5557  0.2952 -0.5034
17278TIP3    H273326   2.092   1.866   6.522 -0.7402  0.2430 -1.0434
17279TIP3   OH273327   1.544   4.095   1.522  0.4356  0.3147 -0.3818
17279TIP3    H173328   1.493   4.046   1.587  0.3783 -0.5240 -1.0519
17279TIP3    H273329   1.573   4.173   1.569 -0.7692  0.3996  0.2455
17280TIP3   OH273330   6.504   2.360   1.452  0.7860  0.5053  0.2214
17280TIP3    H173331   6.453   2.310   1.516 -1.1149  0.7012 -1.1119
17280TIP3    H273332   6.575   2.301   1.426  0.3180 -0.3581  0.8996
17281TIP3   OH273333   5.163   5.397  12.096 -0.4795 -0.2870  0.0898
17281TIP3    H173334   5.153   5.338  12.021 -2.2631 -0.9758  0.8588
17281TIP3    H273335   5.202   5.476  12.058 -0.7422 -0.8665 -1.4496
17282TIP3   OH273336   1.708   5.089   2.743 -0.3729 -0.2669  0.3869
17282TIP3    H173337   1.695   4.994   2.744  0.4435 -0.3789  0.7820
17282TIP3    H273338   1.722   5.113   2.834 -0.9469  0.2944  0.3345
17283TIP3   OH273339   5.643   2.831  14.966  0.1721  0.1972  0.5464
17283TIP3    H173340   5.609   2.863  15.050  0.0797  1.5546  0.0013
17283TIP3    H273341   5.695   2.754  14.989 -0.0568  0.4164  1.8243
17284TIP3   OH273342   5.388   0.021   3.134 -0.0624 -0.0049 -0.3130
17284TIP3    H173343   5.466   0.071   3.160 -0.4203  0.7519 -0.6667
17284TIP3    H273344   5.349   0.073   3.064 -0.2828 -0.9365 -0.8933
17285TIP3   OH273345   3.548   4.333  16.953  0.5757  0.3035 -0.6645
17285TIP3    H173346   3.456   4.350  16.932  0.0704 -2.0877 -0.5196
17285TIP3    H273347   3.584   4.297  16.872  1.8543  2.7836 -1.2535
17286TIP3   OH273348   2.210   2.749  15.534  0.2514 -0.4666 -0.1307
17286TIP3    H173349   2.124   2.755  15.575  0.2383 -1.2614 -0.0352
17286TIP3    H273350   2.221   2.656  15.514  0.2589 -0.0925 -1.9585
17287TIP3   OH273351   1.465   0.656   3.193  0.0932  0.4525  0.5648
17287TIP3    H173352   1.373   0.678   3.179  0.2350  1.0231  0.5163
17287TIP3    H273353   1.463   0.581   3.252 -0.3628  1.6479  2.1015
17288TIP3   OH273354   0.924   4.504   1.783 -0.2020  0.1235  0.3268
17288TIP3    H173355   0.983   4.553   1.841 -1.0622  0.3265  1.0302
17288TIP3    H273356   0.970   4.502   1.699 -0.0739  1.9988  0.3274
17289TIP3   OH273357   1.925   4.626  11.709  0.2850 -0.1819 -0.3216
17289TIP3    H173358   1.911   4.703  11.654  0.1433  0.0437  0.0291
17289TIP3    H273359   2.020   4.616  11.712  0.2346 -1.5632 -2.4850
17290TIP3   OH273360   3.930   4.860  11.681  0.1590 -0.1610 -0.0727
17290TIP3    H173361   3.926   4.842  11.775 -0.0569 -1.3506 -0.2890
17290TIP3    H273362   3.851   4.818  11.645 -0.4882  1.4691 -0.6090
17291TIP3   OH273363   4.324   2.738   0.176  0.4047 -0.0388 -0.1041
17291TIP3    H173364   4.379   2.731   0.255  1.1733  0.4027 -0.5958
17291TIP3    H273365   4.378   2.786   0.113  1.1559 -3.3451 -2.1022
17292TIP3   OH273366   5.452   0.159   5.123 -0.1744 -0.2542  0.2724
17292TIP3    H173367   5.481   0.176   5.033  0.2681  1.6083  0.7536
17292TIP3    H273368   5.531   0.130   5.169 -0.0415  0.3747  0.4495
17293TIP3   OH273369   2.988   2.788   0.119 -0.2279 -0.2136 -0.1038
17293TIP3    H173370   3.068   2.801   0.068 -0.3906  0.5285 -0.1768
17293TIP3    H273371   2.963   2.876   0.147 -0.0164 -0.6317  1.4523
17294TIP3   OH273372   2.193   3.656  15.071  0.3547  0.0361  0.2032
17294TIP3    H173373   2.235   3.661  14.985 -0.4392 -1.0143 -0.2624
17294TIP3    H273374   2.195   3.745  15.104  1.5261  0.2814 -0.4930
17295TIP3   OH273375   6.221   3.606  13.357 -0.1769 -0.2425 -0.3440
17295TIP3    H173376   6.206   3.540  13.423 -0.9732 -0.5154 -0.7886
17295TIP3    H273377   6.139   3.656  13.354  0.3952  0.7239 -0.0506
17296TIP3   OH273378   5.109   6.519  13.419 -0.0561 -0.2723 -0.0712
17296TIP3    H173379   5.162   6.594  13.392  0.3124  0.2855  2.1200
17296TIP3    H273380   5.172   6.452  13.443 -0.3805 -0.9772 -1.1521
17297TIP3   OH273381   1.556   3.704   6.308 -0.4488  0.4120 -0.8131
17297TIP3    H173382   1.536   3.634   6.247  0.9536  0.0138 -0.8315
17297TIP3    H273383   1.608   3.662   6.376 -0.3457  1.2614 -0.3585
17298TIP3   OH273384   1.703   3.544  15.638  0.4001  0.1765 -0.4741
17298TIP3    H173385   1.770   3.556  15.570  0.0566  0.6260 -0.7363
17298TIP3    H273386   1.698   3.629  15.682 -0.3195  0.2785 -0.7467
17299TIP3   OH273387   3.159   2.702  12.201 -0.0416 -0.0026 -0.1789
17299TIP3    H173388   3.183   2.766  12.133 -1.8065 -0.3359 -1.1489
17299TIP3    H273389   3.146   2.755  12.280  0.7219  0.5474 -0.4133
17300TIP3   OH273390   3.249   1.497   1.516  0.2610  0.0767  0.2286
17300TIP3    H173391   3.190   1.570   1.499 -0.2308 -0.3062  0.3058
17300TIP3    H273392   3.311   1.532   1.581  0.5391  0.6904 -0.3633
17301TIP3   OH273393   0.329   4.172   2.711  0.0717  0.0984  0.5208
17301TIP3    H173394   0.304   4.261   2.736  0.6776 -0.4082  3.0006
17301TIP3    H273395   0.249   4.121   2.718  0.1562  0.0382  1.0524
17302TIP3   OH273396   3.722   0.295   2.870  0.9006  0.2795  0.1148
17302TIP3    H173397   3.708   0.290   2.776 -0.0054 -1.0988  0.3060
17302TIP3    H273398   3.677   0.374   2.898 -2.3133 -1.4179 -0.0381
17303TIP3   OH273399   5.665   2.644   3.954 -0.8153  0.5540  0.6365
17303TIP3    H173400   5.746   2.670   3.910 -1.4360 -1.2700 -1.6513
17303TIP3    H273401   5.690   2.572   4.011 -0.4210  1.5023  1.6853
17304TIP3   OH273402   0.298   4.585   4.713  0.2123 -0.5561 -0.7437
17304TIP3    H173403   0.352   4.549   4.643  3.1884 -0.8595  1.6388
17304TIP3    H273404   0.280   4.511   4.771 -0.1258  0.2126  0.1418
17305TIP3   OH273405   2.456   2.021   0.229 -0.0354  0.5253  0.0945
17305TIP3    H173406   2.506   2.071   0.294 -1.8093  1.6557  0.6443
17305TIP3    H273407   2.408   2.088   0.180  0.0691 -0.4388 -1.3381
17306TIP3   OH273408   3.949   2.140  12.269 -0.3702 -0.2171 -0.0712
17306TIP3    H173409   3.999   2.082  12.212  0.2972  0.7511 -0.4949
17306TIP3    H273410   4.013   2.172  12.333 -0.6647  0.2706 -0.0139
17307TIP3   OH273411   4.124   6.023   1.417 -0.2626  0.3110 -0.1944
17307TIP3    H173412   4.093   6.045   1.505 -0.7470  0.7091 -0.4634
17307TIP3    H273413   4.197   5.963   1.432  0.1997  1.0249  0.5153
17308TIP3   OH273414   0.500   4.178  13.436  0.2717  0.1199  0.0841
17308TIP3    H173415   0.481   4.270  13.458 -0.1815 -0.0779  0.5372
17308TIP3    H273416   0.505   4.134  13.520  2.8608  0.1656 -0.0154
17309TIP3   OH273417   3.848   3.526  16.798  0.2830  0.5360 -0.5325
17309TIP3    H173418   3.864   3.455  16.860 -0.7828  2.6069  2.2165
17309TIP3    H273419   3.935   3.564  16.783  0.5319  0.1213 -0.1731
17310TIP3   OH273420   5.756   4.328  15.038  0.2519  0.1990 -0.2847
17310TIP3    H173421   5.845   4.352  15.061 -0.1050 -0.9400  2.4734
17310TIP3    H273422   5.705   4.408  15.054  0.2689 -0.1148  1.4692
17311TIP3   OH273423   2.583   6.662  15.722 -0.3883  0.0349  0.4502
17311TIP3    H173424   2.544   6.609  15.653  0.6764  0.2207 -0.3081
17311TIP3    H273425   2.651   6.605  15.760 -0.2498  0.3154  0.6213
17312TIP3   OH273426   5.739   3.560   5.252  0.1940  0.5794  0.2028
17312TIP3    H173427   5.738   3.656   5.252 -0.8343  0.5832 -0.8996
17312TIP3    H273428   5.826   3.537   5.219  0.1225  1.1455 -0.3964
17313TIP3   OH273429   4.592   4.255  12.588  0.1813 -0.4749 -0.6016
17313TIP3    H173430   4.549   4.308  12.655  0.2801 -1.7102  0.4531
17313TIP3    H273431   4.678   4.295  12.578  0.0491 -0.0869 -0.2361
17314TIP3   OH273432   3.184   2.897   4.508  0.0393  0.3344  0.0592
17314TIP3    H173433   3.127   2.860   4.441 -2.0702  2.0275  0.8700
17314TIP3    H273434   3.252   2.831   4.521 -1.7887 -1.7797 -0.8497
17315TIP3   OH273435   2.514   1.736   6.798  0.3373  0.1166 -0.6035
17315TIP3    H173436   2.600   1.742   6.839 -0.2011 -1.0114  0.7199
17315TIP3    H273437   2.467   1.671   6.850 -0.9072 -0.1701 -2.0464
17316TIP3   OH273438   3.032   1.996  15.692 -0.0514 -0.9916 -0.2108
17316TIP3    H173439   3.050   1.972  15.601  0.9520  0.7314 -0.5009
17316TIP3    H273440   3.119   2.010  15.730 -0.5435  1.2012  0.1816
17317TIP3   OH273441   4.850   3.699   4.667 -0.3611  0.7000  0.4583
17317TIP3    H173442   4.766   3.704   4.621  0.7261  0.2190 -1.6702
17317TIP3    H273443   4.911   3.746   4.610  1.2403 -0.7317  0.9572
17318TIP3   OH273444   2.778   5.062   4.347 -0.1968 -0.2747 -0.1914
17318TIP3    H173445   2.816   5.060   4.435 -2.0322  0.6421  0.6462
17318TIP3    H273446   2.726   4.982   4.342 -1.9195  0.7813  0.4210
17319TIP3   OH273447   4.312   4.244  13.205  0.3436  0.0327  0.1449
17319TIP3    H173448   4.323   4.252  13.110 -0.3950 -0.9580 -0.0378
17319TIP3    H273449   4.217   4.248  13.218  0.5617  5.9313  1.4141
17320TIP3   OH273450   1.316   3.308   1.258 -0.5810 -0.3058  0.3411
17320TIP3    H173451   1.302   3.358   1.178  0.8299  0.6170  0.6492
17320TIP3    H273452   1.255   3.347   1.322 -0.7457 -0.1583  0.0944
17321TIP3   OH273453   5.241   6.660  14.822 -0.0035 -0.1504  0.4163
17321TIP3    H173454   5.177   6.724  14.790  2.4570  2.9505  1.4666
17321TIP3    H273455   5.223   6.653  14.916  0.5436 -0.0136  0.5329
17322TIP3   OH273456   6.616   0.345  12.325  0.1002  0.0539  0.4425
17322TIP3    H173457   6.603   0.343  12.230 -1.5915 -1.5690  0.6913
17322TIP3    H273458   6.696   0.398  12.337  1.3752 -1.2368 -1.9929
17323TIP3   OH273459   5.030   4.577   1.427 -0.1652  0.0938 -0.4290
17323TIP3    H173460   5.072   4.550   1.345 -1.2060  0.1370 -0.9911
17323TIP3    H273461   5.091   4.550   1.495  0.5210 -0.3323 -1.1965
17324TIP3   OH273462   1.064   6.068   1.722  0.1556  0.5766 -0.0090
17324TIP3    H173463   1.016   6.151   1.731 -2.1641 -0.7030 -0.1157
17324TIP3    H273464   1.097   6.069   1.632  0.5833  1.6323  0.1612
17325TIP3   OH273465   2.303   2.614   6.169 -0.0715  0.2961  0.1641
17325TIP3    H173466   2.389   2.622   6.210 -0.0508  2.3531 -0.2406
17325TIP3    H273467   2.254   2.689   6.201 -1.9673 -1.2197  0.9076
17326TIP3   OH273468   5.301   3.779  14.810  0.2016  0.4180  0.6117
17326TIP3    H173469   5.387   3.820  14.820  1.0881 -0.8201 -1.5949
17326TIP3    H273470   5.249   3.844  14.763  1.0396 -0.2106 -1.2240
17327TIP3   OH273471   1.572   3.495  16.611 -0.4283 -0.1769 -0.2245
17327TIP3    H173472   1.516   3.564  16.647 -0.5620 -0.3401 -0.1231
17327TIP3    H273473   1.564   3.423  16.673 -0.8472 -0.5504 -0.7137
17328TIP3   OH273474   3.348   3.264   0.315 -0.5064 -0.3083  0.0495
17328TIP3    H173475   3.307   3.298   0.395 -3.5469  0.9185 -1.9542
17328TIP3    H273476   3.425   3.319   0.303 -0.8744  0.5024  1.2952
17329TIP3   OH273477   5.393   2.726   6.041  0.4477  0.2818  0.7505
17329TIP3    H173478   5.449   2.778   5.983  2.3009 -1.1337  1.2276
17329TIP3    H273479   5.452   2.661   6.079 -1.0952  0.1141  2.9178
17330TIP3   OH273480   3.555   5.628  15.483  0.1032 -0.4108 -0.4092
17330TIP3    H173481   3.598   5.545  15.504  0.2721 -0.0150  0.8480
17330TIP3    H273482   3.462   5.609  15.490  0.1758 -0.0522  1.6326
17331TIP3   OH273483   3.166   4.896  15.627  0.4198 -0.3708 -0.2424
17331TIP3    H173484   3.088   4.842  15.613  0.3172 -0.3388  0.2271
17331TIP3    H273485   3.143   4.955  15.698  0.8311 -0.2833 -0.1775
17332TIP3   OH273486   3.974   4.048  15.027  0.1688 -0.1288  0.1924
17332TIP3    H173487   3.906   3.983  15.013 -1.4659  1.7170 -0.5957
17332TIP3    H273488   4.024   4.048  14.945  0.4427 -0.6829  0.3555
17333TIP3   OH273489   1.081   1.731   1.975  0.4909  0.8634  0.2069
17333TIP3    H173490   1.002   1.715   1.923 -0.1088  0.8901  1.0915
17333TIP3    H273491   1.094   1.650   2.024  1.8445  0.3386 -0.9970
17334TIP3   OH273492   5.525   6.612  16.305  0.0233 -0.0188  0.3873
17334TIP3    H173493   5.555   6.523  16.325 -2.7114 -1.1221 -0.0868
17334TIP3    H273494   5.535   6.660  16.386  2.1042 -0.5908  0.4924
17335TIP3   OH273495   2.962   3.304   2.716 -0.1264  0.4281 -0.1955
17335TIP3    H173496   2.941   3.395   2.694 -0.7740  0.8986  2.1948
17335TIP3    H273497   2.888   3.274   2.768  0.8979 -0.9060  0.5370
17336TIP3   OH273498   4.698   2.260   5.305  0.2660 -0.0331  0.2789
17336TIP3    H173499   4.695   2.356   5.310 -1.7611 -0.1483  2.4800
17336TIP3    H273500   4.750   2.242   5.227 -1.7009  2.8918 -1.8453
17337TIP3   OH273501   0.342   4.584   1.717  0.1942  0.6210  0.6912
17337TIP3    H173502   0.424   4.625   1.690  0.1546 -0.9898 -2.0666
17337TIP3    H273503   0.274   4.635   1.673 -0.0386 -0.2527  0.0103
17338TIP3   OH273504   3.963   3.535  14.403  0.2312  0.1104  0.4996
17338TIP3    H173505   3.916   3.607  14.361  2.7751  1.7796  0.4733
17338TIP3    H273506   3.985   3.568  14.490 -0.0466 -1.2657  1.1064
17339TIP3   OH273507   1.711   0.653   0.996 -0.6148 -0.1027  0.3770
17339TIP3    H173508   1.707   0.679   0.904  1.7203 -0.8176  0.0369
17339TIP3    H273509   1.788   0.698   1.030 -0.5118 -1.1431  1.5578
17340TIP3   OH273510   6.268   2.267   1.024 -0.3395  0.5248 -0.1788
17340TIP3    H173511   6.340   2.254   0.962 -0.5220 -2.0849  0.0748
17340TIP3    H273512   6.295   2.218   1.102 -1.6173  0.9388  0.5333
17341TIP3   OH273513   2.919   1.677  17.007  0.4050  0.0881 -0.2641
17341TIP3    H173514   2.858   1.744  16.977  1.1727  1.0426  0.2920
17341TIP3    H273515   2.943   1.629  16.928 -2.0882 -1.1871 -0.3134
17342TIP3   OH273516   5.799   2.011  12.580 -0.5627  0.6103 -0.2708
17342TIP3    H173517   5.819   2.084  12.639  0.1346  0.9989 -0.9694
17342TIP3    H273518   5.747   2.050  12.510  2.1970  1.0615 -2.1498
17343TIP3   OH273519   3.621   1.399  11.686  0.1596  0.4461  0.2891
17343TIP3    H173520   3.539   1.442  11.710 -0.8798 -1.1826 -0.2998
17343TIP3    H273521   3.611   1.308  11.714  1.9309  0.3085  0.5848
17344TIP3   OH273522   5.873   3.264  12.777  0.1120 -0.3423 -0.2759
17344TIP3    H173523   5.849   3.262  12.869  1.9336  1.5770  0.2780
17344TIP3    H273524   5.968   3.253  12.776  0.0197 -1.2205 -1.9923
17345TIP3   OH273525   6.328   2.111   4.021 -0.1294  0.5771  0.6929
17345TIP3    H173526   6.361   2.190   4.062  1.3003  1.6900 -2.4464
17345TIP3    H273527   6.234   2.128   4.009 -0.2205  0.9392  1.8434
17346TIP3   OH273528   4.817   2.863  10.587  0.6343 -0.0224 -0.9830
17346TIP3    H173529   4.725   2.890  10.586  0.9672  1.1477 -0.8378
17346TIP3    H273530   4.818   2.781  10.538 -0.3739  0.3111 -1.5816
17347TIP3   OH273531   0.430   5.953  15.698 -0.3679 -0.0704 -0.1594
17347TIP3    H173532   0.430   5.857  15.707  1.8728  0.0456  1.4036
17347TIP3    H273533   0.522   5.978  15.701 -0.9643  2.2006  0.1176
17348TIP3   OH273534   2.976   1.997  13.251  0.4745  0.3010  0.3539
17348TIP3    H173535   2.905   2.059  13.235  0.6692  0.3005 -0.4899
17348TIP3    H273536   3.013   1.979  13.165 -0.4106 -1.9832  0.4167
17349TIP3   OH273537   3.217   6.498  13.977 -0.3311  0.0863 -0.1989
17349TIP3    H173538   3.292   6.524  13.923 -0.0912 -1.3515 -0.5770
17349TIP3    H273539   3.252   6.496  14.067 -0.5594  1.8253 -0.0587
17350TIP3   OH273540   5.634   3.174   0.968 -0.4857 -0.4022 -0.0076
17350TIP3    H173541   5.595   3.228   0.899 -1.0275  1.0120  1.3635
17350TIP3    H273542   5.712   3.137   0.929 -1.0746 -0.0539 -1.5492
17351TIP3   OH273543   6.086   6.391   5.720 -0.4290  0.2336  0.4305
17351TIP3    H173544   6.131   6.456   5.666 -0.9273 -0.0176 -0.2986
17351TIP3    H273545   6.088   6.427   5.808 -0.8464  1.3098  0.0047
17352TIP3   OH273546   5.335   1.357   4.945 -0.0177  0.2963 -0.2452
17352TIP3    H173547   5.294   1.365   5.032 -2.9066  1.6206 -1.6370
17352TIP3    H273548   5.271   1.307   4.894  1.7253 -0.5925 -1.5753
17353TIP3   OH273549   0.579   4.041   0.242 -0.0807 -0.1881  0.1774
17353TIP3    H173550   0.651   3.979   0.227 -0.4936 -0.1336 -2.1266
17353TIP3    H273551   0.583   4.101   0.168 -1.0861  1.2085  1.2321
17354TIP3   OH273552   0.285   5.983  15.470 -0.1042  0.2371 -0.0067
17354TIP3    H173553   0.321   6.008  15.555  2.2285  0.8538 -1.1498
17354TIP3    H273554   0.219   6.050  15.452  0.2547  0.7987  0.7423
17355TIP3   OH273555   5.496   1.558   3.890  0.0267  0.0715  0.4658
17355TIP3    H173556   5.463   1.644   3.862  2.1258  0.5910 -0.5604
17355TIP3    H273557   5.585   1.555   3.855 -0.1875 -2.7405  0.0986
17356TIP3   OH273558   0.281   5.550   0.831 -0.3631 -0.1197 -0.3956
17356TIP3    H173559   0.203   5.606   0.828 -0.4026 -0.2050 -1.0358
17356TIP3    H273560   0.280   5.512   0.919 -1.2219 -0.3721 -0.5105
17357TIP3   OH273561   5.820   5.745   3.104  0.1051  0.0574 -0.8459
17357TIP3    H173562   5.839   5.829   3.064  1.5559 -0.1719 -0.6564
17357TIP3    H273563   5.877   5.683   3.059  0.0175 -0.5932 -0.0733
17358TIP3   OH273564   2.268   0.702  14.412  0.2128 -0.0044 -0.2652
17358TIP3    H173565   2.189   0.651  14.390  0.8551 -1.7354  1.3022
17358TIP3    H273566   2.234   0.785  14.445 -0.9176 -0.2445 -0.7720
17359TIP3   OH273567   3.321   2.270   1.093  0.8677 -0.1179 -0.5618
17359TIP3    H173568   3.406   2.310   1.111 -0.6613  1.8784  2.7739
17359TIP3    H273569   3.275   2.333   1.038 -1.1403  2.4623  3.8135
17360TIP3   OH273570   2.521   3.534   4.432 -0.2200 -0.2816  0.7157
17360TIP3    H173571   2.512   3.502   4.343  1.0264 -0.3221  0.5870
17360TIP3    H273572   2.527   3.455   4.486  2.0060 -0.3168  0.4889
17361TIP3   OH273573   2.500   1.346   5.868  0.1949  0.2635 -0.4822
17361TIP3    H173574   2.466   1.297   5.943  1.3227  2.3927  1.4985
17361TIP3    H273575   2.585   1.304   5.849  0.0114 -0.1347 -0.4332
17362TIP3   OH273576   2.452   3.830  15.838 -0.3476 -0.0567 -0.4179
17362TIP3    H173577   2.380   3.851  15.778 -1.5839  0.3544  1.1515
17362TIP3    H273578   2.527   3.813  15.782 -1.5227  0.1493 -2.0740
17363TIP3   OH273579   6.397   2.345   5.416  0.4441  0.1537 -0.3310
17363TIP3    H173580   6.366   2.278   5.354 -1.1454  0.9194 -0.3804
17363TIP3    H273581   6.423   2.295   5.493  0.3526 -0.6342 -0.8019
17364TIP3   OH273582   5.004   0.077   3.585 -0.1085  0.2531 -0.4985
17364TIP3    H173583   5.059   0.049   3.658 -1.9521 -0.7484  0.5424
17364TIP3    H273584   4.951  -0.000   3.564 -2.4570  1.7159 -0.1999
17365TIP3   OH273585   1.505   0.949  11.663 -0.0759 -0.3681 -0.1263
17365TIP3    H173586   1.545   0.950  11.750 -1.1276 -0.3189  0.3617
17365TIP3    H273587   1.445   1.024  11.663 -1.0729 -1.1528 -0.4202
17366TIP3   OH273588   5.492   2.721  14.753  0.4280 -0.2047  0.3385
17366TIP3    H173589   5.542   2.735  14.834  0.1764 -1.0204  0.6444
17366TIP3    H273590   5.402   2.745  14.777  0.7442  1.8132 -0.3729
17367TIP3   OH273591   5.444   4.639   4.730  0.1218 -0.4051  0.5918
17367TIP3    H173592   5.489   4.595   4.802  0.9778 -0.4201  0.0676
17367TIP3    H273593   5.505   4.707   4.702 -0.9328  0.7175  0.9934
17368TIP3   OH273594   2.712   5.198  16.040 -0.2312  0.5778 -0.5131
17368TIP3    H173595   2.705   5.150  15.957  1.7080  1.7909 -1.4230
17368TIP3    H273596   2.703   5.290  16.015 -1.9489  0.8165  0.9537
17369TIP3   OH273597   3.875   3.214  13.508  0.4916  0.5900  0.2584
17369TIP3    H173598   3.923   3.189  13.429 -0.4737  0.4600 -0.2959
17369TIP3    H273599   3.889   3.142  13.568  1.2035  0.6708  0.1982
17370TIP3   OH273600   4.647   4.915   3.721  0.3504 -0.2475  0.3059
17370TIP3    H173601   4.555   4.934   3.702  0.5353  0.7615  0.4404
17370TIP3    H273602   4.663   4.832   3.675 -0.8213 -0.8146  0.8869
17371TIP3   OH273603   4.643   4.459  11.756 -0.7742 -0.1701  0.1333
17371TIP3    H173604   4.660   4.490  11.667 -1.2454  1.0982  0.4824
17371TIP3    H273605   4.720   4.487  11.807 -1.1864  0.4008  0.4420
17372TIP3   OH273606   3.879   2.441  15.816 -0.7142 -0.1928  0.0980
17372TIP3    H173607   3.869   2.534  15.839  1.5264 -0.3753  1.9808
17372TIP3    H273608   3.970   2.434  15.785 -1.1118 -1.6177 -0.7750
17373TIP3   OH273609   5.603   6.128  14.743 -0.1836 -0.3678 -0.1857
17373TIP3    H173610   5.640   6.057  14.691 -0.1588 -2.3398  2.4117
17373TIP3    H273611   5.669   6.197  14.739  0.3482 -0.9308 -1.7576
17374TIP3   OH273612   1.724   3.885  14.549 -0.3244 -0.1930  0.2623
17374TIP3    H173613   1.674   3.878  14.630  2.5764  2.1841  2.3590
17374TIP3    H273614   1.688   3.962  14.505 -0.6486 -0.3880  0.1833
17375TIP3   OH273615   0.043   1.968   3.479 -0.1316  0.1596 -0.2048
17375TIP3    H173616   0.135   1.953   3.499 -0.3233  0.2457  0.7650
17375TIP3    H273617  -0.001   1.887   3.505 -0.2515 -0.1334 -1.2703
17376TIP3   OH273618   1.687   6.623   3.972 -0.0252 -0.4912  0.0392
17376TIP3    H173619   1.674   6.537   4.012  0.7939 -0.9577 -0.6977
17376TIP3    H273620   1.718   6.678   4.044  1.0500 -1.2276  0.1511
17377TIP3   OH273621   0.148   6.168  14.048 -0.2095  0.1737  0.6019
17377TIP3    H173622   0.115   6.173  13.959  2.5396  5.2536 -0.3001
17377TIP3    H273623   0.074   6.192  14.103 -0.7543  1.3514 -0.6307
17378TIP3   OH273624   0.010   0.886   2.461 -0.5451  0.1362  0.1421
17378TIP3    H173625   0.013   0.961   2.519 -0.6110  1.0749 -1.0444
17378TIP3    H273626  -0.070   0.840   2.485 -0.0622 -0.0430  1.4488
17379TIP3   OH273627   0.702   5.127  16.513 -0.0249 -0.1600 -0.2859
17379TIP3    H173628   0.633   5.066  16.538 -1.3263  0.5213 -2.1130
17379TIP3    H273629   0.758   5.133  16.591 -2.6805  0.2177  1.7002
17380TIP3   OH273630   0.509   0.350   1.778 -0.0623  0.1596 -0.1482
17380TIP3    H173631   0.485   0.417   1.842  0.7281  0.1208  0.1951
17380TIP3    H273632   0.507   0.268   1.827 -0.6006 -0.0132 -0.4613
17381TIP3   OH273633   3.980   6.173  14.280  0.0278 -0.4832 -0.0036
17381TIP3    H173634   3.915   6.167  14.211  0.3367  0.2901 -0.3765
17381TIP3    H273635   3.947   6.117  14.350 -1.1109  0.0371 -0.1202
17382TIP3   OH273636   1.370   3.515   1.093  0.0476 -0.0815  0.2764
17382TIP3    H173637   1.388   3.608   1.107 -1.3572  0.1278  0.7308
17382TIP3    H273638   1.368   3.505   0.997 -0.0903  0.4111  0.2297
17383TIP3   OH273639   0.814   0.650   2.601 -0.3205  0.2121  0.2327
17383TIP3    H173640   0.841   0.741   2.611  0.6285  0.0066 -0.3540
17383TIP3    H273641   0.815   0.636   2.506 -3.8099  0.5748  0.0880
17384TIP3   OH273642   2.499   6.672   5.181  0.5745 -0.2299  0.4423
17384TIP3    H173643   2.548   6.676   5.099  0.3864  1.3941  0.3868
17384TIP3    H273644   2.447   6.592   5.175  2.3258 -1.3656  0.0006
17385TIP3   OH273645   3.145   1.430   2.583  0.4363 -0.4376 -0.5632
17385TIP3    H173646   3.066   1.384   2.611  0.2325  1.3838  2.0026
17385TIP3    H273647   3.122   1.523   2.591  2.9688  0.1051  0.5704
17386TIP3   OH273648   2.835   2.094  17.042 -0.1238  0.3363  0.8944
17386TIP3    H173649   2.773   2.043  16.990  0.1615  0.7285  0.1673
17386TIP3    H273650   2.815   2.185  17.022  0.8326  0.4648  0.4616
17387TIP3   OH273651   4.700   0.258   5.297  0.3741 -0.0197 -0.2203
17387TIP3    H173652   4.732   0.245   5.208 -0.5872  2.1521 -0.9255
17387TIP3    H273653   4.715   0.351   5.314 -1.3421  0.0410  1.1237
17388TIP3   OH273654   4.483   0.253   0.398  0.0549  0.1943 -0.2240
17388TIP3    H173655   4.532   0.311   0.340  1.6415  1.3810  2.2148
17388TIP3    H273656   4.391   0.268   0.374  0.7273 -1.1282 -3.9959
17389TIP3   OH273657   6.288   5.441  15.316 -0.2537  0.0567  0.2541
17389TIP3    H173658   6.203   5.482  15.300 -0.5667 -0.9391 -0.6963
17389TIP3    H273659   6.278   5.352  15.284  0.9886 -0.2267  0.6343
17390TIP3   OH273660   3.521   6.603   5.413  0.2791  0.4113  0.4031
17390TIP3    H173661   3.459   6.676   5.410  1.1754  1.1458 -0.2438
17390TIP3    H273662   3.502   6.552   5.334 -0.6792 -0.3539  1.1024
17391TIP3   OH273663   1.707   4.496   0.582 -0.4343 -0.6558 -0.4771
17391TIP3    H173664   1.799   4.470   0.586 -0.3125  0.0160  2.2850
17391TIP3    H273665   1.709   4.589   0.559 -0.4948 -0.9347 -1.6429
17392TIP3   OH273666   2.170   0.156  11.585 -0.0348 -1.0073 -0.0147
17392TIP3    H173667   2.251   0.193  11.549 -1.0012  2.3620  1.0592
17392TIP3    H273668   2.195   0.069  11.616  3.1790 -0.0434  0.3056
17393TIP3   OH273669   5.922   1.675  14.091 -0.3288 -0.4271  0.1833
17393TIP3    H173670   5.848   1.704  14.144 -0.6053 -0.9422  0.0893
17393TIP3    H273671   5.910   1.721  14.007 -0.7721 -0.8085  0.0290
17394TIP3   OH273672   4.280   4.162  15.589  0.0935 -0.3548 -0.1413
17394TIP3    H173673   4.254   4.074  15.616 -2.1089  0.3163  0.0296
17394TIP3    H273674   4.222   4.182  15.516 -1.3752  2.0506  1.6269
17395TIP3   OH273675   3.166   3.559   3.186  0.0592  0.0156 -0.5448
17395TIP3    H173676   3.231   3.630   3.181  0.2946 -0.2127 -0.7453
17395TIP3    H273677   3.208   3.485   3.142  0.1789 -0.5247  0.4576
17396TIP3   OH273678   1.027   5.114  14.005  0.0502 -0.2806  0.0643
17396TIP3    H173679   0.994   5.099  14.094  1.6093  0.1268  0.7316
17396TIP3    H273680   1.079   5.193  14.012 -1.0427  0.6118 -1.5672
17397TIP3   OH273681   4.668   4.784  12.561  0.1109  0.1371 -0.4517
17397TIP3    H173682   4.686   4.695  12.589  0.0537  0.6980  1.4526
17397TIP3    H273683   4.752   4.830  12.571 -0.4956  0.9383  1.2263
17398TIP3   OH273684   5.082   5.195   2.644 -0.1853  0.2941  0.0214
17398TIP3    H173685   5.015   5.261   2.663  2.4123  3.5507 -1.7593
17398TIP3    H273686   5.106   5.210   2.553  2.7308 -1.0574  0.5074
17399TIP3   OH273687   5.321   5.833   3.471  0.3054  0.1006 -0.0742
17399TIP3    H173688   5.233   5.794   3.468  0.9247 -1.3200 -0.3133
17399TIP3    H273689   5.346   5.827   3.563  0.8061 -1.0398 -0.2693
17400TIP3   OH273690   0.954   6.742  14.345 -0.2263  0.3675 -0.0917
17400TIP3    H173691   0.973   6.788  14.263 -0.4302  0.6294  0.0045
17400TIP3    H273692   1.017   6.778  14.408  0.2537 -0.1875 -0.2488
17401TIP3   OH273693   0.010   5.196   3.897  0.2099  0.6253  0.6902
17401TIP3    H173694  -0.012   5.242   3.978  0.8523  0.8081  0.7645
17401TIP3    H273695  -0.070   5.200   3.845 -0.9316 -1.4548  2.2294
17402TIP3   OH273696   5.653   2.209  14.569 -0.3556 -0.2498 -0.1130
17402TIP3    H173697   5.576   2.193  14.623 -1.4744  2.4268 -0.8308
17402TIP3    H273698   5.704   2.274  14.617  0.2170 -0.1771 -0.8024
17403TIP3   OH273699   5.301   5.510   3.300 -0.1465 -0.5243 -0.0792
17403TIP3    H173700   5.251   5.439   3.259  1.3560 -0.3565 -2.2741
17403TIP3    H273701   5.380   5.518   3.246  0.8898  1.1544  1.6206
17404TIP3   OH273702   3.107   5.093   3.877  0.0711 -0.0670  0.1603
17404TIP3    H173703   3.197   5.075   3.849 -0.2007 -0.4886 -0.4600
17404TIP3    H273704   3.111   5.092   3.973  0.6894 -0.2713  0.1339
17405TIP3   OH273705   0.212   3.171  14.855 -0.5113 -0.3300 -0.4037
17405TIP3    H173706   0.157   3.246  14.876  1.3745  1.0962 -0.4689
17405TIP3    H273707   0.163   3.122  14.790 -1.6742  0.9567 -0.5012
17406TIP3   OH273708   2.109   0.496  15.978  0.2966 -0.0705 -0.0056
17406TIP3    H173709   2.145   0.529  15.895  0.6623  0.7763  0.4775
17406TIP3    H273710   2.166   0.423  16.001 -0.5090 -1.0499 -1.0857
17407TIP3   OH273711   3.401   5.262  14.623  0.2139  0.5107  0.7972
17407TIP3    H173712   3.378   5.306  14.541 -0.9109  0.1891  0.9248
17407TIP3    H273713   3.496   5.252  14.620 -0.0676 -1.9423 -1.7227
17408TIP3   OH273714   2.151   5.960   5.862  0.2857  0.1578  0.0902
17408TIP3    H173715   2.196   6.044   5.870  0.3327  0.0845  0.6316
17408TIP3    H273716   2.121   5.941   5.951 -1.5261  0.6107 -0.3944
17409TIP3   OH273717   2.474   5.427  11.993  0.3921  0.2334 -0.3705
17409TIP3    H173718   2.556   5.410  12.038 -0.7143 -0.6656  1.3453
17409TIP3    H273719   2.418   5.353  12.017 -0.6030  0.3361 -2.3029
17410TIP3   OH273720   2.952   4.736  15.563  0.7334  0.3870 -0.0834
17410TIP3    H173721   2.928   4.825  15.540 -1.2746 -0.3625 -0.9918
17410TIP3    H273722   2.912   4.722  15.649  1.5148  0.5519  0.3050
17411TIP3   OH273723   0.519   5.916  14.821 -0.4380 -0.1758 -0.1194
17411TIP3    H173724   0.566   5.980  14.767 -0.2664 -0.6305 -0.5197
17411TIP3    H273725   0.427   5.942  14.815 -0.3955 -0.0972 -0.4613
17412TIP3   OH273726   2.846   5.246   2.413  0.3442 -0.2336 -0.3288
17412TIP3    H173727   2.847   5.265   2.506 -0.2047  0.4426 -0.4574
17412TIP3    H273728   2.802   5.321   2.373  1.0926 -0.2377 -1.1948
17413TIP3   OH273729   3.614   0.454  15.651  0.2676 -0.0608 -0.0060
17413TIP3    H173730   3.667   0.514  15.599  0.3074  1.1558  1.3844
17413TIP3    H273731   3.525   0.464  15.617  0.5825 -0.5968 -1.0040
17414TIP3   OH273732   1.349   1.686  11.208 -0.1914 -0.0738  0.2976
17414TIP3    H173733   1.355   1.683  11.112 -0.0560 -3.1261  0.3575
17414TIP3    H273734   1.311   1.772  11.226  0.9017  1.0612 -2.4189
17415TIP3   OH273735   2.205   0.975   0.912  0.4224  0.2805  0.3487
17415TIP3    H173736   2.162   0.992   0.828  0.5813  1.9116  0.5735
17415TIP3    H273737   2.138   0.996   0.977  1.1092  1.4868  0.6762
17416TIP3   OH273738   2.579   2.912  16.160 -0.2362  0.1154 -0.0821
17416TIP3    H173739   2.528   2.832  16.148 -0.6554  0.2718  0.6071
17416TIP3    H273740   2.516   2.983  16.151  0.2445  0.3937 -1.2687
17417TIP3   OH273741   2.470   1.956   2.050 -0.0551  0.0681 -0.1598
17417TIP3    H173742   2.545   1.975   2.106  1.2023 -2.1167 -1.0275
17417TIP3    H273743   2.397   2.002   2.091  1.2164  0.0631  2.2090
17418TIP3   OH273744   3.422   5.176   4.904  0.0927 -0.3920  0.1204
17418TIP3    H173745   3.444   5.254   4.956  1.0933 -1.3282  1.1487
17418TIP3    H273746   3.382   5.211   4.825  0.3720  1.1713  0.6354
17419TIP3   OH273747   2.808   4.918  16.368  0.8454 -0.2257 -0.3927
17419TIP3    H173748   2.862   4.906  16.446  1.1225 -0.6344 -0.6463
17419TIP3    H273749   2.809   5.012  16.352 -3.7244  0.6532  3.3334
17420TIP3   OH273750   2.741   1.806  16.318  0.5397 -0.0051 -0.1116
17420TIP3    H173751   2.676   1.781  16.253  3.3710 -0.4457 -2.9182
17420TIP3    H273752   2.719   1.896  16.341 -0.2004  0.3549 -2.1296
17421TIP3   OH273753   3.714   4.953  17.270  0.3936 -0.1674 -0.1583
17421TIP3    H173754   3.704   4.884  17.205  0.0809  0.6198 -0.9432
17421TIP3    H273755   3.809   4.967  17.275  0.3708  0.2670 -0.9529
17422TIP3   OH273756   2.552   1.432  13.613 -0.1881 -0.4428  0.2923
17422TIP3    H173757   2.528   1.498  13.548 -1.7036 -1.4180 -0.1713
17422TIP3    H273758   2.647   1.425  13.606 -0.2339  0.1881 -1.1286
17423TIP3   OH273759   3.686   4.887  11.369 -0.2858  0.7922 -0.0922
17423TIP3    H173760   3.772   4.918  11.340 -0.3875  1.2669  0.1123
17423TIP3    H273761   3.642   4.859  11.289  0.3945 -0.2757 -0.0930
17424TIP3   OH273762   4.348   1.247   1.919  0.2969  0.0709 -0.4381
17424TIP3    H173763   4.304   1.196   1.852 -1.0214 -0.0205  0.4719
17424TIP3    H273764   4.353   1.189   1.995  0.1920  0.7620  0.1065
17425TIP3   OH273765   5.487   4.643   1.799 -0.2561 -0.1517 -0.1333
17425TIP3    H173766   5.425   4.619   1.868  0.2016 -1.3622 -0.1263
17425TIP3    H273767   5.565   4.591   1.818 -0.1705 -0.6001 -1.6219
17426TIP3   OH273768   2.490   5.442   0.222 -0.3736 -0.3620  0.5545
17426TIP3    H173769   2.567   5.441   0.279 -0.9452 -0.3088  1.3266
17426TIP3    H273770   2.427   5.386   0.266 -1.4741  1.1176  0.8930
17427TIP3   OH273771   0.274   5.618   4.948  0.2445  0.2364  0.3549
17427TIP3    H173772   0.320   5.566   5.014  0.6369 -2.2671 -1.8139
17427TIP3    H273773   0.182   5.615   4.975  0.7161  1.3767  2.1607
17428TIP3   OH273774   6.710   0.903   5.712  0.9650  0.2615  0.3786
17428TIP3    H173775   6.741   0.963   5.780 -0.6917  0.9143  0.5664
17428TIP3    H273776   6.749   0.818   5.735  2.3431  0.9919  0.7890
17429TIP3   OH273777   0.964   6.123   5.401  0.2727  0.1843 -0.3141
17429TIP3    H173778   0.958   6.219   5.401  1.0146  0.2354 -0.2216
17429TIP3    H273779   0.874   6.093   5.401  0.0382  0.8849  0.4725
17430TIP3   OH273780   2.911   4.928   6.144  0.2601  0.1129 -0.1561
17430TIP3    H173781   2.830   4.978   6.134  0.9624  1.1201 -0.9009
17430TIP3    H273782   2.979   4.983   6.104  1.9495  0.9814  3.6385
17431TIP3   OH273783   4.293   4.597   3.574  0.0865  0.0522  0.0146
17431TIP3    H173784   4.269   4.682   3.538 -0.8321 -0.8230 -1.4850
17431TIP3    H273785   4.234   4.585   3.649 -0.5387  0.2584 -0.4413
17432TIP3   OH273786   2.276   6.673   3.246 -0.1491 -0.1191  0.3209
17432TIP3    H173787   2.256   6.653   3.155 -1.1283 -1.0361  0.7307
17432TIP3    H273788   2.233   6.603   3.296  0.4603  0.3216  1.4750
17433TIP3   OH273789   4.178   2.735  17.089  0.4427  0.2919  0.4777
17433TIP3    H173790   4.124   2.808  17.058  1.2594  0.0364 -1.6904
17433TIP3    H273791   4.115   2.669  17.118 -0.5201 -0.2521 -2.5831
17434TIP3   OH273792   2.129   6.188   5.500 -0.4929  0.1098 -0.1700
17434TIP3    H173793   2.186   6.251   5.456  0.8371 -1.0429 -0.1275
17434TIP3    H273794   2.066   6.162   5.432 -1.0036  1.4278 -0.2029
17435TIP3   OH273795   0.124   3.140   5.004  0.0684 -0.2528 -0.1467
17435TIP3    H173796   0.164   3.053   5.006  0.2833 -0.2092 -1.7661
17435TIP3    H273797   0.196   3.199   4.985  0.2055  0.4955  2.4363
17436TIP3   OH273798   2.339   6.220   5.311 -0.5826  0.2984 -0.4500
17436TIP3    H173799   2.408   6.156   5.330  1.4018  2.3970 -0.4804
17436TIP3    H273800   2.296   6.185   5.233  2.9798  0.9232 -2.7902
17437TIP3   OH273801   6.390   3.557  15.633 -1.0753 -0.3831 -0.1584
17437TIP3    H173802   6.384   3.572  15.727 -0.3443  0.4876 -0.2322
17437TIP3    H273803   6.449   3.482  15.624 -2.3502 -1.4274  0.1243
17438TIP3   OH273804   1.522   3.490  16.008 -0.1799  0.3613 -0.0388
17438TIP3    H173805   1.511   3.431  16.083 -0.6814  0.3368 -0.1276
17438TIP3    H273806   1.560   3.435  15.940 -1.2693 -0.0471 -0.3415
17439TIP3   OH273807   3.973   6.562  11.484  0.0677 -0.0372 -0.2379
17439TIP3    H173808   3.899   6.577  11.543  0.2117  1.3016 -0.3811
17439TIP3    H273809   3.933   6.546  11.399 -0.0900 -0.3713 -0.1015
17440TIP3   OH273810   1.778   0.177  15.424 -0.3295 -0.3397 -0.0416
17440TIP3    H173811   1.738   0.140  15.346 -1.7050 -0.4772  0.7157
17440TIP3    H273812   1.705   0.211  15.476  0.5231 -0.6256  1.3880
17441TIP3   OH273813   1.893   2.432   0.924  0.2572 -0.8344  0.2414
17441TIP3    H173814   1.875   2.376   0.849 -0.2377 -1.0913  0.5440
17441TIP3    H273815   1.827   2.501   0.920 -0.0194 -1.0722  0.6591
17442TIP3   OH273816   3.120   2.298   4.147  0.1510 -0.0274 -0.4065
17442TIP3    H173817   3.069   2.276   4.069 -1.4468 -0.4959  0.7342
17442TIP3    H273818   3.158   2.215   4.176  0.4885  0.0921 -0.4987
17443TIP3   OH273819   0.855   0.490  14.251  0.4693  0.0496 -0.0585
17443TIP3    H173820   0.764   0.508  14.229  0.1391 -1.4752  0.0585
17443TIP3    H273821   0.899   0.575  14.241 -0.7942  0.6151 -0.8963
17444TIP3   OH273822   5.169   1.948   4.208  0.3854 -0.1551 -0.4655
17444TIP3    H173823   5.119   2.026   4.183  0.7076  0.7531  1.5700
17444TIP3    H273824   5.120   1.911   4.282  1.8545 -0.1389  0.5521
17445TIP3   OH273825   1.708   2.981   4.690  0.4174 -0.1179 -0.5990
17445TIP3    H173826   1.759   3.055   4.725  1.6000 -0.5416 -1.3880
17445TIP3    H273827   1.672   3.014   4.607  1.2968 -0.5512 -1.1624
17446TIP3   OH273828   1.292   6.448   3.113  0.6466  0.4152 -0.3074
17446TIP3    H173829   1.346   6.409   3.045  1.2869 -0.5841  0.7459
17446TIP3    H273830   1.229   6.380   3.136 -0.4842  1.2417 -0.8708
17447TIP3   OH273831   3.205   3.366   2.116 -0.4239 -0.1680  0.1556
17447TIP3    H173832   3.265   3.383   2.044  0.7331 -0.6859  0.9826
17447TIP3    H273833   3.174   3.277   2.101  0.4971 -0.6047  0.7545
17448TIP3   OH273834   4.488   0.407  14.189  0.8622  0.2708  0.0034
17448TIP3    H173835   4.519   0.406  14.098  0.9825  0.0011  0.0461
17448TIP3    H273836   4.458   0.317  14.204  3.0078 -0.3141  0.9850
17449TIP3   OH273837   6.732   4.857   5.798 -0.3387 -0.4157  0.1487
17449TIP3    H173838   6.783   4.928   5.838 -0.1860 -0.5184  0.1368
17449TIP3    H273839   6.781   4.778   5.818  0.0192 -0.4122 -0.7033
17450TIP3   OH273840   0.058   3.910   5.600 -0.2882  0.3407 -0.1313
17450TIP3    H173841  -0.033   3.880   5.591 -0.3094 -0.3368  2.0236
17450TIP3    H273842   0.051   4.004   5.613 -0.7449  0.1643  0.9307
17451TIP3   OH273843   5.179   0.737   2.120 -0.0102 -0.5354 -0.4847
17451TIP3    H173844   5.094   0.707   2.150  0.4358 -2.1439 -0.8159
17451TIP3    H273845   5.221   0.772   2.199 -0.6954 -0.3656 -0.1904
17452TIP3   OH273846   0.656   0.994  14.576  0.3548  0.3016 -0.6669
17452TIP3    H173847   0.615   0.939  14.508  0.2950 -0.1073 -0.3005
17452TIP3    H273848   0.745   1.008  14.545  0.3215  0.1303 -0.8393
17453TIP3   OH273849   0.062   4.647   4.500 -0.0012  0.3270 -0.3327
17453TIP3    H173850   0.032   4.712   4.437 -0.9133 -0.0510 -0.2966
17453TIP3    H273851   0.021   4.674   4.583  0.4415  0.2858 -0.0959
17454TIP3   OH273852   3.233   3.796   1.726 -0.2870 -0.0376 -0.0166
17454TIP3    H173853   3.141   3.818   1.743  0.1366  1.3884  0.5936
17454TIP3    H273854   3.240   3.703   1.745 -1.5483 -0.0857  0.2460
17455TIP3   OH273855   3.763   0.144  13.047  0.8818  0.0725 -0.1816
17455TIP3    H173856   3.739   0.064  13.093  0.2663  0.4767  0.2054
17455TIP3    H273857   3.856   0.133  13.025  0.2443 -1.7308 -2.1361
17456TIP3   OH273858   1.335   6.570   0.031  0.0991 -0.3160 -0.1817
17456TIP3    H173859   1.389   6.499   0.065  1.0168  0.4978  0.0798
17456TIP3    H273860   1.377   6.595  -0.051 -0.8476 -0.7952 -0.8319
17457TIP3   OH273861   1.523   4.603   1.875  0.3399 -0.1180  0.2518
17457TIP3    H173862   1.443   4.654   1.890  0.7717  0.2796  1.2558
17457TIP3    H273863   1.527   4.544   1.950  1.4730  0.5044  0.6884
17458TIP3   OH273864   1.768   0.366  15.059 -0.0021  0.7488 -0.2314
17458TIP3    H173865   1.788   0.389  15.150  1.3147  0.5663 -0.4565
17458TIP3    H273866   1.695   0.305  15.065  0.2136  0.5719  0.7149
17459TIP3   OH273867   0.259   2.302  12.255 -0.8050  0.2821  0.3440
17459TIP3    H173868   0.339   2.337  12.216 -0.4803 -0.6230  0.1908
17459TIP3    H273869   0.259   2.336  12.344  0.9911 -1.6390  1.1222
17460TIP3   OH273870   0.973   2.841   2.136 -0.4124 -0.6620  0.0915
17460TIP3    H173871   0.888   2.799   2.147 -1.1149  0.9478  1.1334
17460TIP3    H273872   0.954   2.923   2.090  0.7546 -0.9016 -0.8442
17461TIP3   OH273873   4.206   4.416   5.587  0.0332  0.0054  0.2004
17461TIP3    H173874   4.209   4.484   5.655 -1.4930 -1.5024  1.8591
17461TIP3    H273875   4.133   4.442   5.530  1.0135  1.0293 -0.5837
17462TIP3   OH273876   4.050   6.468  14.311 -0.2168 -0.2910 -0.0363
17462TIP3    H173877   4.054   6.445  14.404  0.1499 -1.0050 -0.2276
17462TIP3    H273878   4.048   6.384  14.266  0.3339  0.0548 -0.7117
17463TIP3   OH273879   5.687   6.343   0.433 -0.1203 -0.1885  0.1795
17463TIP3    H173880   5.695   6.290   0.512  2.8924 -0.0114  0.0538
17463TIP3    H273881   5.773   6.383   0.422 -1.3770  2.1808 -1.5279
17464TIP3   OH273882   1.955   3.110  13.259  0.2745 -0.0504  0.2957
17464TIP3    H173883   1.905   3.153  13.190  1.9796  0.6274 -0.5185
17464TIP3    H273884   1.988   3.030  13.218  0.9310  0.1376  0.4672
17465TIP3   OH273885   6.530   2.300  16.809 -0.0798 -0.4521  0.1156
17465TIP3    H173886   6.524   2.278  16.716  0.4465 -0.7892  0.1578
17465TIP3    H273887   6.563   2.390  16.810 -0.8672 -0.1635 -0.0350
17466TIP3   OH273888   5.838   5.655  14.579  0.0335 -0.4752  0.2172
17466TIP3    H173889   5.931   5.636  14.591 -0.0080 -0.6042  0.3307
17466TIP3    H273890   5.834   5.700  14.494 -0.0732 -2.6260 -0.9469
17467TIP3   OH273891   6.649   4.281   1.176  0.2087  0.3646  0.8331
17467TIP3    H173892   6.716   4.214   1.174 -1.2596 -1.1248 -0.8227
17467TIP3    H273893   6.623   4.292   1.084 -0.1846  2.5875  1.1616
17468TIP3   OH273894   1.829   0.193   2.430 -0.2135 -0.0063  0.2189
17468TIP3    H173895   1.770   0.231   2.366  0.8469  0.6641 -0.3854
17468TIP3    H273896   1.838   0.102   2.404 -1.7057 -0.3486  0.8732
17469TIP3   OH273897   2.879   5.597  12.645  0.3208 -0.0626  0.7580
17469TIP3    H173898   2.974   5.581  12.649  0.0824 -1.8702 -0.1874
17469TIP3    H273899   2.854   5.610  12.736  0.8717 -3.5870  1.4931
17470TIP3   OH273900   4.221   1.151  11.984 -0.7094  0.2589 -0.2793
17470TIP3    H173901   4.166   1.133  12.060 -0.1660 -1.4837 -0.2734
17470TIP3    H273902   4.289   1.084  11.988 -1.3691 -0.6150 -2.9916
17471TIP3   OH273903   2.434   1.571   3.977 -0.0264 -0.3822 -0.5307
17471TIP3    H173904   2.386   1.517   3.914 -0.2100  0.2219 -0.9140
17471TIP3    H273905   2.449   1.654   3.931 -0.9281  0.3810  0.5211
17472TIP3   OH273906   0.540   1.510   1.857  0.2259 -0.2923 -0.1381
17472TIP3    H173907   0.591   1.461   1.921  0.3766 -0.2033 -0.1893
17472TIP3    H273908   0.549   1.602   1.885 -0.4073 -0.3312  0.2110
17473TIP3   OH273909   1.475   6.048  12.261 -0.1699 -0.8066  0.6673
17473TIP3    H173910   1.564   6.034  12.294  0.1311 -1.9476 -0.5985
17473TIP3    H273911   1.484   6.047  12.166 -1.0637  2.2778  0.5189
17474TIP3   OH273912   0.473   1.001  10.954  0.1658 -0.2738  0.4957
17474TIP3    H173913   0.396   0.953  10.923 -0.7202  0.8361  0.9437
17474TIP3    H273914   0.545   0.939  10.946 -0.3234 -0.5489 -2.2503
17475TIP3   OH273915   6.583   6.085  11.064  0.5614 -0.1606  0.3233
17475TIP3    H173916   6.488   6.076  11.072  0.7964 -1.8045  1.5211
17475TIP3    H273917   6.612   6.001  11.027  1.7471 -0.4579  1.8916
17476TIP3   OH273918   2.814   5.454   0.616  0.1677  0.5656 -0.1259
17476TIP3    H173919   2.774   5.414   0.693 -1.9518  0.0266 -1.4525
17476TIP3    H273920   2.842   5.540   0.646 -0.8409  0.4519  1.2028
17477TIP3   OH273921   2.424   5.749   6.559 -0.4102 -0.2222 -0.2410
17477TIP3    H173922   2.505   5.722   6.602 -0.2049  0.0773 -0.4374
17477TIP3    H273923   2.442   5.740   6.466 -0.0667  1.3236 -0.3452
17478TIP3   OH273924   6.481   4.039  10.364 -0.0443 -0.1319 -0.4400
17478TIP3    H173925   6.561   3.996  10.334 -0.0519  0.3082 -1.1022
17478TIP3    H273926   6.494   4.131  10.344  1.2104  0.7019  3.6329
17479TIP3   OH273927   5.540   0.051  13.759 -0.3944 -0.6604 -0.3461
17479TIP3    H173928   5.517   0.142  13.778  0.5413 -0.4120 -0.3817
17479TIP3    H273929   5.600   0.026  13.830  0.4577 -0.8002 -1.1128
17480TIP3   OH273930   5.730   5.926   4.154 -0.2883 -0.3190 -0.1564
17480TIP3    H173931   5.675   5.985   4.205  1.7651  0.7659  0.9008
17480TIP3    H273932   5.679   5.846   4.146 -1.2646 -0.0153  2.4331
17481TIP3   OH273933   4.910   5.851   5.815 -0.7996  0.3443 -0.5322
17481TIP3    H173934   4.873   5.841   5.903  0.2234  1.4336  0.0402
17481TIP3    H273935   4.844   5.902   5.768 -1.0422  0.3477 -0.1956
17482TIP3   OH273936   1.691   1.330   3.778  0.2433 -0.1251 -0.1850
17482TIP3    H173937   1.693   1.406   3.836 -1.6882  0.7237 -1.1758
17482TIP3    H273938   1.691   1.254   3.837  0.4584  0.6791  0.8540
17483TIP3   OH273939   5.076   2.487  12.353 -0.4477 -0.1684  0.2427
17483TIP3    H173940   5.117   2.453  12.273  2.2260  0.9978  1.0771
17483TIP3    H273941   5.075   2.412  12.413  0.1285 -0.3044  0.0822
17484TIP3   OH273942   1.041   0.290  15.929 -0.1237 -0.1961  0.6545
17484TIP3    H173943   1.097   0.331  15.995  0.0993  0.2681  0.1699
17484TIP3    H273944   1.091   0.294  15.848 -1.6957  2.1088 -0.2446
17485TIP3   OH273945   2.075   0.566   5.596  0.2915  0.0290 -0.1884
17485TIP3    H173946   2.013   0.563   5.669  0.7198 -0.4227  0.1591
17485TIP3    H273947   2.116   0.652   5.603  2.4976 -1.1355  1.9160
17486TIP3   OH273948   3.446   2.133  13.068 -0.1317  0.1353  0.4479
17486TIP3    H173949   3.441   2.042  13.039  1.3048 -0.1824  1.1359
17486TIP3    H273950   3.356   2.165  13.065 -0.4604 -0.9074 -1.0702
17487TIP3   OH273951   2.146   1.875   3.428 -0.0448  0.0541  0.0728
17487TIP3    H173952   2.155   1.970   3.435 -1.9343  0.1537  1.3059
17487TIP3    H273953   2.055   1.857   3.449  0.1064 -1.9847 -0.8510
17488TIP3   OH273954   5.338   0.576   5.611  0.0411 -0.1415 -0.1038
17488TIP3    H173955   5.349   0.513   5.682 -1.0668  0.1676  0.3437
17488TIP3    H273956   5.245   0.596   5.610 -0.1965 -1.1388 -2.5028
17489TIP3   OH273957   4.433   6.792   2.326 -0.3414 -0.4987 -0.1343
17489TIP3    H173958   4.438   6.699   2.345  0.5445 -0.6571 -1.1039
17489TIP3    H273959   4.431   6.798   2.230  0.7047  0.5140 -0.1151
17490TIP3   OH273960   3.699   5.658  15.014  0.1998  0.4100 -0.2402
17490TIP3    H173961   3.794   5.656  15.006  0.3720  1.3391  1.2694
17490TIP3    H273962   3.681   5.744  15.053 -1.3409  0.6904 -1.5559
17491TIP3   OH273963   6.465   2.857  11.564 -0.1497  0.0631 -0.3192
17491TIP3    H173964   6.418   2.850  11.481 -0.6810  3.6836 -0.3933
17491TIP3    H273965   6.557   2.862  11.539  0.2043 -4.0973 -0.3132
17492TIP3   OH273966   4.655   6.546  13.132 -0.0865  0.5299  0.2702
17492TIP3    H173967   4.732   6.562  13.186 -0.1575  0.0708  0.5116
17492TIP3    H273968   4.690   6.525  13.046  0.1265 -1.0884  0.7278
17493TIP3   OH273969   4.785   5.900  15.366  0.3197 -0.2853  0.5458
17493TIP3    H173970   4.819   5.965  15.304 -0.5661 -0.1359  0.2173
17493TIP3    H273971   4.703   5.937  15.397  0.0587 -1.0244  0.7403
17494TIP3   OH273972   3.126   1.433  11.823 -0.2429  0.2633 -0.5203
17494TIP3    H173973   3.032   1.431  11.840 -0.8089  0.6312 -3.3318
17494TIP3    H273974   3.163   1.480  11.897 -2.1835 -0.4495  0.9443
17495TIP3   OH273975   6.258   2.588   6.032  0.2001 -0.2096  0.5528
17495TIP3    H173976   6.316   2.617   6.102  1.0966 -0.9576  0.1324
17495TIP3    H273977   6.178   2.639   6.045  1.0577  1.0931  0.9407
17496TIP3   OH273978   1.682   5.610  13.020 -0.1202 -0.2921  0.4647
17496TIP3    H173979   1.744   5.679  13.046 -1.0917  1.0406 -0.7067
17496TIP3    H273980   1.732   5.555  12.960  0.5592 -0.4264  1.1364
17497TIP3   OH273981   6.211   3.602   4.296  0.0430  0.0876  0.0579
17497TIP3    H173982   6.267   3.531   4.328 -1.1440 -0.1566  1.6305
17497TIP3    H273983   6.123   3.564   4.293 -0.4428  1.2068  0.0012
17498TIP3   OH273984   6.121   1.415  11.450 -0.2577  0.0229 -0.3531
17498TIP3    H173985   6.194   1.447  11.502  0.7823 -1.7309 -0.7048
17498TIP3    H273986   6.067   1.365  11.512  1.0818 -2.2277 -0.9399
17499TIP3   OH273987   3.282   1.457   5.515  0.4774  0.0135 -0.1753
17499TIP3    H173988   3.275   1.433   5.608 -0.1861  1.4879  0.1622
17499TIP3    H273989   3.376   1.451   5.496  0.4480 -1.8273  0.1624
17500TIP3   OH273990   6.065   6.123   0.580  0.0115 -0.1005 -0.2611
17500TIP3    H173991   6.096   6.047   0.629  0.1462  0.2057  0.1249
17500TIP3    H273992   5.978   6.141   0.615  0.7734  1.1494  1.0406
17501TIP3   OH273993   1.902   2.332   3.242 -0.4676 -0.0426  0.1155
17501TIP3    H173994   1.868   2.245   3.222 -2.1246  0.8147 -0.8809
17501TIP3    H273995   1.928   2.327   3.334  1.0606 -2.0821 -0.3969
17502TIP3   OH273996   1.521   5.264   0.768 -0.0045  0.1723  0.1646
17502TIP3    H173997   1.586   5.295   0.705  0.1057  0.3526  0.3650
17502TIP3    H273998   1.446   5.239   0.714  0.8713 -1.7097 -0.2045
17503TIP3   OH273999   5.693   2.965  13.469 -0.0261 -0.7596 -0.1120
17503TIP3    H174000   5.769   2.969  13.528  0.8009 -2.1413 -1.0471
17503TIP3    H274001   5.668   3.056  13.456  0.7180 -0.3529  1.1649
17504TIP3   OH274002   6.167   3.206  10.471 -0.3501 -0.1249 -0.2984
17504TIP3    H174003   6.089   3.151  10.464 -0.3975 -0.0887 -0.0401
17504TIP3    H274004   6.219   3.184  10.393 -0.4900 -0.3468 -0.3291
17505TIP3   OH274005   1.088   6.329   5.130 -0.0588 -0.1581 -0.1982
17505TIP3    H174006   0.993   6.342   5.140  0.3185  1.9943  0.9466
17505TIP3    H274007   1.124   6.348   5.217  1.4625 -0.5974 -0.7152
17506TIP3   OH274008   1.351   0.985  14.857  0.4060  1.3096  0.4447
17506TIP3    H174009   1.258   0.964  14.864  0.6394  0.4610  1.0554
17506TIP3    H274010   1.354   1.068  14.809 -0.5633  0.3959 -1.2056
17507TIP3   OH274011   6.414   2.838   2.704  0.2452 -0.0704  0.9012
17507TIP3    H174012   6.337   2.841   2.760  0.2741 -0.8549  0.9863
17507TIP3    H274013   6.469   2.769   2.742  0.6476 -0.0241  0.4085
17508TIP3   OH274014   5.283   2.749   4.348 -0.4993 -0.3752  0.1664
17508TIP3    H174015   5.283   2.653   4.344  0.8535 -0.3652 -0.3592
17508TIP3    H274016   5.362   2.770   4.398 -1.4115  0.4346  1.2721
17509TIP3   OH274017   3.543   2.210   3.012  0.2804  0.2107  0.3504
17509TIP3    H174018   3.613   2.153   2.980  1.0877  1.1443  0.4203
17509TIP3    H274019   3.524   2.268   2.938  0.3685  0.7035  0.7128
17510TIP3   OH274020   6.359   1.124  17.182 -0.0230  0.5138  0.0928
17510TIP3    H174021   6.453   1.111  17.178  0.0956  0.8919  1.3669
17510TIP3    H274022   6.322   1.038  17.160  0.5720  0.7994 -2.1302
17511TIP3   OH274023   1.191   0.025   0.817  0.1216  0.0807 -0.3398
17511TIP3    H174024   1.173  -0.044   0.881  2.0658 -1.1225 -1.0319
17511TIP3    H274025   1.133   0.005   0.744  0.4191 -0.6286 -0.3877
17512TIP3   OH274026   6.620   4.682  13.456 -0.2184  0.0924  0.5640
17512TIP3    H174027   6.672   4.714  13.382 -1.5082  0.1593 -0.3217
17512TIP3    H274028   6.673   4.611  13.493  0.0167 -0.5728 -0.9981
17513TIP3   OH274029   5.229   4.342   5.652  0.1557 -0.3472 -0.8037
17513TIP3    H174030   5.281   4.329   5.573 -0.0975  0.0792 -1.0395
17513TIP3    H274031   5.196   4.431   5.645  0.4855 -0.1574 -0.0136
17514TIP3   OH274032   1.582   5.372   1.437  0.3975 -0.2800  0.3608
17514TIP3    H174033   1.608   5.464   1.439  0.0539 -0.1995  1.1918
17514TIP3    H274034   1.647   5.330   1.381  0.8991  0.3553  0.4620
17515TIP3   OH274035   3.695   4.499   0.030  0.3785  0.1112 -0.0953
17515TIP3    H174036   3.738   4.439   0.091  1.5502  0.4086 -0.6228
17515TIP3    H274037   3.741   4.582   0.042 -0.4528  0.6007 -0.2302
17516TIP3   OH274038   3.662   4.676   2.914 -0.2028 -0.5780 -0.2243
17516TIP3    H174039   3.724   4.624   2.863  0.3520  0.8889 -1.0790
17516TIP3    H274040   3.686   4.659   3.005  0.7293 -0.9025 -0.5232
17517TIP3   OH274041   5.441   3.458  11.305  1.0427 -0.0661 -0.5712
17517TIP3    H174042   5.481   3.533  11.261  0.1181 -0.7636 -2.7062
17517TIP3    H274043   5.425   3.395  11.234 -0.6182 -1.1921  0.7565
17518TIP3   OH274044   3.017   4.756   4.690  0.3123 -0.2216  0.1817
17518TIP3    H174045   3.086   4.787   4.632  0.1599  0.7391  0.5134
17518TIP3    H274046   3.049   4.772   4.778  0.3935 -1.3668  0.3745
17519TIP3   OH274047   2.811   3.176  14.261 -0.3110 -0.0643 -0.2521
17519TIP3    H174048   2.874   3.150  14.327  0.7232  2.4637 -0.1777
17519TIP3    H274049   2.757   3.242  14.304 -0.3739  0.7596 -1.5594
17520TIP3   OH274050   1.460   1.530  12.674 -0.4490 -0.2929  0.0068
17520TIP3    H174051   1.511   1.576  12.607  2.4995  0.0900  2.3984
17520TIP3    H274052   1.491   1.439  12.669 -1.4976 -0.6293 -0.3304
17521TIP3   OH274053   2.817   0.106   0.238  0.3980  0.4275 -0.1443
17521TIP3    H174054   2.756   0.095   0.165  1.9581 -1.7751 -1.1926
17521TIP3    H274055   2.778   0.056   0.310 -0.8201  2.0680  0.3669
17522TIP3   OH274056   4.555   0.438   0.222  0.0795 -0.6005  0.2317
17522TIP3    H174057   4.508   0.452   0.139  1.8553  0.6071 -0.6072
17522TIP3    H274058   4.535   0.516   0.274  1.8052  0.3146 -0.4559
17523TIP3   OH274059   2.535   2.408  11.707  0.2887  0.2583 -0.0986
17523TIP3    H174060   2.490   2.491  11.720  0.3715  0.4260 -0.8442
17523TIP3    H274061   2.616   2.415  11.759  0.3313  0.6718 -0.2222
17524TIP3   OH274062   5.048   1.916   2.661  0.5239  0.3622 -0.1851
17524TIP3    H174063   5.003   1.855   2.719  0.4722  0.6307  0.0554
17524TIP3    H274064   5.066   1.993   2.715  1.7426  0.0489 -0.1183
17525TIP3   OH274065   0.067   2.709   0.285  0.2503  0.2257  0.4864
17525TIP3    H174066   0.101   2.626   0.318 -2.2782 -0.8680  0.4646
17525TIP3    H274067  -0.013   2.685   0.238  1.1851  2.3131 -2.3068
17526TIP3   OH274068   2.721   0.793   3.520  0.1959 -0.4811  0.2922
17526TIP3    H174069   2.697   0.704   3.547 -1.8034 -0.7374 -2.1148
17526TIP3    H274070   2.761   0.782   3.433  1.3241  0.8228  0.6329
17527TIP3   OH274071   4.610   2.426   4.035 -0.1085  0.0403  0.0446
17527TIP3    H174072   4.596   2.355   4.097 -1.5957 -0.4719 -0.8402
17527TIP3    H274073   4.704   2.441   4.037 -0.0464 -0.4492  1.8715
17528TIP3   OH274074   3.110   3.909   5.210  0.1718  0.0824  0.0614
17528TIP3    H174075   3.108   3.814   5.196  1.2665  0.1251 -0.4692
17528TIP3    H274076   3.072   3.922   5.297  0.5327 -0.8994  0.3698
17529TIP3   OH274077   6.042   2.953   0.166  0.8484 -0.3925  0.6270
17529TIP3    H174078   6.094   3.023   0.125 -1.4709  0.6559 -0.6379
17529TIP3    H274079   6.052   2.879   0.106 -0.1193  0.2080 -0.3008
17530TIP3   OH274080   0.451   0.137   1.061 -0.5423 -0.3591 -0.1056
17530TIP3    H174081   0.356   0.125   1.062 -0.5300 -0.4734 -0.3967
17530TIP3    H274082   0.477   0.124   1.152 -0.7128 -1.0594 -0.1594
17531TIP3   OH274083   3.538   4.654   3.483 -0.2610 -0.2105 -0.1035
17531TIP3    H174084   3.588   4.629   3.560 -1.4644 -0.7924  0.5004
17531TIP3    H274085   3.508   4.571   3.446 -2.3830  0.2046  0.6344
17532TIP3   OH274086   5.155   1.923  17.122 -0.4551  0.3043 -0.1416
17532TIP3    H174087   5.061   1.941  17.121 -0.3338  1.0378  0.8268
17532TIP3    H274088   5.191   1.988  17.182  0.8950  1.0149 -1.6792
17533TIP3   OH274089   5.467   4.863  11.600 -0.2604 -0.2209  0.1575
17533TIP3    H174090   5.481   4.834  11.510 -0.1427  0.9066 -0.2011
17533TIP3    H274091   5.375   4.890  11.603 -0.4077 -0.7631  0.5211
17534TIP3   OH274092   2.314   5.360  13.094 -0.9030 -0.0969 -0.1180
17534TIP3    H174093   2.263   5.421  13.039 -1.7660 -0.5474  0.1881
17534TIP3    H274094   2.389   5.412  13.122 -0.9403  0.4302 -0.9609
17535TIP3   OH274095   1.776   1.501   0.610  0.1815 -0.2884  0.4378
17535TIP3    H174096   1.810   1.486   0.698 -2.5434 -2.0387  1.2821
17535TIP3    H274097   1.788   1.417   0.566  0.8517  0.3638 -0.6349
17536TIP3   OH274098   3.985   2.885   1.442 -0.2211 -0.1415 -0.4619
17536TIP3    H174099   4.056   2.947   1.429  0.2403 -0.6571 -0.3808
17536TIP3    H274100   3.954   2.864   1.353 -0.5182  0.3632 -0.4805
17537TIP3   OH274101   0.434   6.309  17.042  0.9566 -0.1296  0.0621
17537TIP3    H174102   0.468   6.388  16.999  0.2476  0.5859  0.8153
17537TIP3    H274103   0.356   6.338  17.088 -1.4009 -1.9771 -2.5848
17538TIP3   OH274104   6.506   6.251   2.675 -0.2274  0.1866 -0.0339
17538TIP3    H174105   6.432   6.218   2.726 -0.0697  1.2799  0.9065
17538TIP3    H274106   6.470   6.265   2.587 -0.9244 -0.0816  0.2064
17539TIP3   OH274107   2.325   5.548  11.763 -0.0748  0.1033  0.2972
17539TIP3    H174108   2.362   5.501  11.689 -1.2408  0.0596 -0.2658
17539TIP3    H274109   2.401   5.575  11.815  0.8056  0.8927 -1.3574
17540TIP3   OH274110   1.551   0.494  13.520 -0.5181  0.5392  0.1888
17540TIP3    H174111   1.610   0.420  13.505  1.2394  1.5577  1.7964
17540TIP3    H274112   1.483   0.460  13.578  1.0818  0.5255  2.1078
17541TIP3   OH274113   1.732   1.412  12.849  0.0551 -0.1155 -0.1627
17541TIP3    H174114   1.827   1.409  12.833  0.1416  0.4500  0.2223
17541TIP3    H274115   1.711   1.505  12.846 -0.5899 -0.2832 -0.8133
17542TIP3   OH274116   5.520   3.517  16.510  0.1729 -0.7661  0.9613
17542TIP3    H174117   5.545   3.609  16.502 -1.4459 -0.3832 -0.1407
17542TIP3    H274118   5.575   3.482  16.579  1.5989  0.7548  0.6200
17543TIP3   OH274119   0.670   0.792   3.526  0.0943  0.6027 -0.7254
17543TIP3    H174120   0.667   0.836   3.441  4.3626  0.9189 -0.8194
17543TIP3    H274121   0.703   0.859   3.586  0.1711 -0.5510  0.5230
17544TIP3   OH274122   2.092   6.232   3.946  0.4030 -0.2819  0.4946
17544TIP3    H174123   2.167   6.290   3.935 -0.1555  0.1650 -1.0872
17544TIP3    H274124   2.035   6.277   4.008  0.3183  0.5235 -0.1575
17545TIP3   OH274125   4.116   4.109   6.534 -0.1792  0.2874 -0.1296
17545TIP3    H174126   4.135   4.017   6.516 -0.0182  0.5913 -1.5651
17545TIP3    H274127   4.021   4.113   6.539 -0.1986  0.0839 -0.3145
17546TIP3   OH274128   0.878   3.249  13.288 -0.8840 -0.3275  0.3515
17546TIP3    H174129   0.922   3.191  13.350 -1.3836 -0.6786  0.3772
17546TIP3    H274130   0.928   3.330  13.292  0.1825 -0.9484 -0.1331
17547TIP3   OH274131   0.656   5.612  16.955  0.4575  0.3289 -0.1489
17547TIP3    H174132   0.665   5.517  16.955 -1.8432  0.0459  1.9674
17547TIP3    H274133   0.575   5.629  16.906 -2.3527  0.6876  4.3007
17548TIP3   OH274134   5.105   0.851  13.917 -0.5475  0.8198  0.1036
17548TIP3    H174135   5.165   0.783  13.948 -0.6481 -0.1246 -1.6675
17548TIP3    H274136   5.099   0.836  13.822 -0.0275  3.7340 -0.4481
17549TIP3   OH274137   1.997   0.968   2.336  0.2307 -0.4309  0.4689
17549TIP3    H174138   2.091   0.982   2.325  0.1751  0.9098  1.4896
17549TIP3    H274139   1.990   0.911   2.412  0.2474 -1.1045 -0.0375
17550TIP3   OH274140   5.434   5.844   4.858  0.8156  0.3131 -0.3014
17550TIP3    H174141   5.418   5.764   4.908  1.4521  0.8160  0.7320
17550TIP3    H274142   5.347   5.878   4.839  0.5396 -0.7712 -0.9787
17551TIP3   OH274143   0.241   6.794   3.706 -0.4331 -0.9037 -0.0597
17551TIP3    H174144   0.266   6.864   3.766 -0.8122 -1.0651  0.2893
17551TIP3    H274145   0.205   6.840   3.630 -1.2071 -0.7238  0.4064
17552TIP3   OH274146   1.968   0.755   1.069  0.6097 -0.4986 -0.2918
17552TIP3    H174147   2.010   0.780   1.151 -0.8066 -0.5430  0.4540
17552TIP3    H274148   2.037   0.710   1.020  0.9999 -1.9935  1.5778
17553TIP3   OH274149   6.646   2.169   1.070 -0.5091 -0.0443  0.0739
17553TIP3    H174150   6.734   2.145   1.099 -0.7654  0.5825  1.4237
17553TIP3    H274151   6.649   2.164   0.975  0.8191 -0.5928  0.1363
17554TIP3   OH274152   5.680   5.538  14.747 -0.3868  0.7064 -0.3616
17554TIP3    H174153   5.741   5.577  14.685  1.0497 -1.2824 -0.2261
17554TIP3    H274154   5.727   5.537  14.831 -1.0211  0.2228 -0.0009
17555TIP3   OH274155   4.572   3.483  16.820 -0.6491  0.0124 -0.4279
17555TIP3    H174156   4.517   3.430  16.762 -2.0127  2.2248 -1.2161
17555TIP3    H274157   4.515   3.503  16.894 -0.2451  0.6525 -0.2914
17556TIP3   OH274158   3.697   6.708  12.592 -0.9357  0.3234  0.1774
17556TIP3    H174159   3.664   6.794  12.566 -1.0779  0.9590  2.3234
17556TIP3    H274160   3.626   6.670  12.644  0.0254 -0.0842  1.2182
17557TIP3   OH274161   1.067   3.806  12.297  0.4360  0.3314  0.0373
17557TIP3    H174162   1.154   3.819  12.337  1.4970  0.2504 -2.1732
17557TIP3    H274163   1.084   3.809  12.203 -1.9370 -0.0029 -0.4108
17558TIP3   OH274164   4.144   1.405   5.935 -0.2823  0.8133 -0.3441
17558TIP3    H174165   4.138   1.310   5.921  2.2584  0.6866 -0.8130
17558TIP3    H274166   4.137   1.415   6.030 -2.5005  0.3557 -0.4302
17559TIP3   OH274167   5.627   0.333  16.242 -0.3052  0.4683 -0.0958
17559TIP3    H174168   5.567   0.261  16.258  0.4261 -0.3373 -0.8858
17559TIP3    H274169   5.696   0.295  16.187  0.1424  1.7402 -0.4376
17560TIP3   OH274170   0.535   1.587   3.650 -0.2628  0.1406 -0.3083
17560TIP3    H174171   0.444   1.573   3.623 -0.0312  0.2614 -1.1585
17560TIP3    H274172   0.546   1.682   3.649  0.4786  0.0631 -2.2778
17561TIP3   OH274173   5.357   3.886  16.595 -0.5055 -0.3210  0.1676
17561TIP3    H174174   5.410   3.885  16.674  0.0123  1.0974 -0.1588
17561TIP3    H274175   5.295   3.814  16.607 -0.0594 -0.4704  1.6059
17562TIP3   OH274176   2.868   1.556  16.376 -0.2456  0.3474  0.1398
17562TIP3    H174177   2.789   1.508  16.403  0.4941  0.1627  2.1106
17562TIP3    H274178   2.837   1.645  16.358 -1.2685 -0.3016 -1.3724
17563TIP3   OH274179   6.745   2.594  16.888 -0.3233  0.0138 -0.0386
17563TIP3    H174180   6.680   2.607  16.819  0.4803  0.4171 -0.7329
17563TIP3    H274181   6.759   2.681  16.924 -0.4943 -0.1452  0.4177
17564TIP3   OH274182   2.914   0.738   4.963 -0.1020 -0.1708  0.3535
17564TIP3    H174183   2.836   0.711   4.915 -1.4291 -1.3216  3.0101
17564TIP3    H274184   2.885   0.811   5.017  0.4298 -1.0667  1.8948
17565TIP3   OH274185   2.325   6.135  16.246 -0.6016 -0.4869 -0.9759
17565TIP3    H174186   2.328   6.040  16.258  0.9432 -0.4185 -0.7908
17565TIP3    H274187   2.327   6.147  16.152  3.2683 -0.5315 -0.9458
17566TIP3   OH274188   1.334   0.520  12.654  0.2895 -0.4898 -0.3235
17566TIP3    H174189   1.318   0.466  12.731  0.1188  0.1378  0.0791
17566TIP3    H274190   1.428   0.539  12.658 -0.3154  2.3878  1.6086
17567TIP3   OH274191   1.047   1.709  13.071  0.1427 -0.1783 -0.2310
17567TIP3    H174192   1.135   1.746  13.074  0.0388  0.1219 -0.9212
17567TIP3    H274193   0.998   1.759  13.136 -0.1517  1.3239 -1.5633
17568TIP3   OH274194   1.502   4.871   5.692  0.1854 -0.7445  0.2944
17568TIP3    H174195   1.454   4.953   5.709  0.9615 -0.5478  1.6782
17568TIP3    H274196   1.442   4.802   5.722 -0.2593 -0.6646 -0.3878
17569TIP3   OH274197   2.807   0.097   1.278 -0.1442 -0.3162  0.3295
17569TIP3    H174198   2.729   0.115   1.226  0.2202  0.5450  0.0583
17569TIP3    H274199   2.880   0.119   1.219  0.2689  0.9026  1.2656
17570TIP3   OH274200   0.694   0.885  17.117 -0.7074 -0.2086  1.0412
17570TIP3    H174201   0.635   0.918  17.049  0.9629  0.1443 -0.2553
17570TIP3    H274202   0.644   0.895  17.199 -2.7369 -0.6454 -0.1145
17571TIP3   OH274203   5.015   3.017   0.629  0.3262 -0.6650  0.1927
17571TIP3    H174204   4.974   3.072   0.562  1.0806  0.7117  0.8562
17571TIP3    H274205   5.099   2.992   0.590  1.7127  1.8728  1.4232
17572TIP3   OH274206   2.217   0.050  16.281  0.2359 -0.3273  0.3912
17572TIP3    H174207   2.157  -0.021  16.302 -0.1022 -1.4918 -3.9858
17572TIP3    H274208   2.291   0.007  16.238  2.2093  1.5203  1.8430
17573TIP3   OH274209   5.318   3.769  16.104 -0.0040  0.8143 -0.8965
17573TIP3    H174210   5.364   3.685  16.109  2.7831  2.2403 -1.5690
17573TIP3    H274211   5.292   3.787  16.195  0.8796  0.0324 -0.4782
17574TIP3   OH274212   2.646   6.094  11.439  0.1302  0.2654  0.2308
17574TIP3    H174213   2.608   6.020  11.486 -0.3429 -0.9225 -1.9716
17574TIP3    H274214   2.739   6.072  11.429 -0.2619 -0.6734 -1.5577
17575TIP3   OH274215   6.299   6.209   3.792  0.6625  0.2623 -0.4916
17575TIP3    H174216   6.217   6.193   3.745  0.7883 -1.0493 -0.2988
17575TIP3    H274217   6.273   6.213   3.884  0.8536 -0.5922 -0.3902
17576TIP3   OH274218   0.922   2.983   2.468 -0.1646 -0.1583  0.7059
17576TIP3    H174219   0.891   2.892   2.475 -0.4597 -0.0242  1.1639
17576TIP3    H274220   0.868   3.021   2.399 -0.1981 -0.2627  0.6730
17577TIP3   OH274221   0.311   2.043  17.172 -0.1819  0.3301 -0.5511
17577TIP3    H174222   0.309   2.063  17.266  1.0104  2.4891 -0.9364
17577TIP3    H274223   0.391   1.993  17.160  0.6569  1.6686 -0.6761
17578TIP3   OH274224   2.839   2.446   2.050 -0.0026 -0.3651 -0.4271
17578TIP3    H174225   2.756   2.494   2.055 -0.9693 -1.8152 -1.6996
17578TIP3    H274226   2.875   2.449   2.139 -0.0860  2.5557 -0.4536
17579TIP3   OH274227   5.611   4.196  16.941  0.6078 -0.2520  0.3208
17579TIP3    H174228   5.655   4.189  16.856  0.6696  0.0057  0.3302
17579TIP3    H274229   5.518   4.207  16.919  0.7099  0.5664  0.2660
17580TIP3   OH274230   0.747   6.734   6.046  0.7071  0.4799 -0.7212
17580TIP3    H174231   0.722   6.811   5.994  1.0622  1.1547  0.0911
17580TIP3    H274232   0.730   6.760   6.137  1.7749 -0.0403 -0.3598
17581TIP3   OH274233   0.713   2.505   0.472 -0.3442 -0.0713 -0.5067
17581TIP3    H174234   0.797   2.531   0.434  0.3622  1.9056  2.2416
17581TIP3    H274235   0.708   2.411   0.456  2.0450 -0.0896 -1.3631
17582TIP3   OH274236   5.222   1.350  11.135  0.7324 -0.0043  0.0571
17582TIP3    H174237   5.155   1.297  11.093  1.7737  0.6023 -2.4471
17582TIP3    H274238   5.302   1.297  11.130  0.9690  0.2533  0.9296
17583TIP3   OH274239   1.412   2.941   5.158 -0.2224 -0.9414  0.0075
17583TIP3    H174240   1.398   2.847   5.162 -2.1727 -0.7618 -1.7393
17583TIP3    H274241   1.324   2.979   5.167  0.4275  0.6568 -0.1727
17584TIP3   OH274242   0.547   1.629   4.743  0.1064  0.2799  0.5161
17584TIP3    H174243   0.577   1.700   4.800  1.5610  0.4398 -0.4147
17584TIP3    H274244   0.593   1.552   4.776 -2.1026 -0.4183  2.0442
17585TIP3   OH274245   4.643   0.676  17.151 -0.6634  0.5555 -0.1289
17585TIP3    H174246   4.602   0.671  17.065 -0.8638  1.9891 -0.1253
17585TIP3    H274247   4.580   0.634  17.210 -0.6648 -0.1443 -0.6277
17586TIP3   OH274248   1.407   4.500   3.176  0.0467 -0.4740  0.2070
17586TIP3    H174249   1.469   4.554   3.224  0.7301 -0.8897 -0.2020
17586TIP3    H274250   1.432   4.511   3.084 -1.9250  1.1951 -0.1717
17587TIP3   OH274251   5.742   3.472   5.950  0.0008  0.2664 -0.0438
17587TIP3    H174252   5.811   3.505   6.007  1.6271  0.8648 -2.2816
17587TIP3    H274253   5.715   3.389   5.989  2.7778 -0.5238  0.2666
17588TIP3   OH274254   4.346   4.247   6.474 -0.1561  0.5742  0.1022
17588TIP3    H174255   4.281   4.186   6.510 -0.3304  0.9694  0.4748
17588TIP3    H274256   4.326   4.330   6.517  1.0977  0.5206  0.8256
17589TIP3   OH274257   0.117   4.484   5.321  0.0353 -0.1002 -0.4250
17589TIP3    H174258   0.194   4.489   5.264 -0.5226  0.5871 -1.1323
17589TIP3    H274259   0.057   4.426   5.274 -1.6747  2.8942 -2.0686
17590TIP3   OH274260   0.627   6.708  14.097  0.4584 -0.1461  0.2318
17590TIP3    H174261   0.696   6.656  14.139  0.5754 -0.0969  0.1037
17590TIP3    H274262   0.618   6.786  14.153  0.6734 -0.0396  0.1209
17591TIP3   OH274263   3.558   4.495   5.096 -0.1378  0.6979  0.0320
17591TIP3    H174264   3.540   4.558   5.166  1.1299 -0.3843  1.3639
17591TIP3    H274265   3.489   4.429   5.105  0.5591  0.0699  0.8765
17592TIP3   OH274266   2.580   4.843   3.595 -0.5014 -0.2982  0.5841
17592TIP3    H174267   2.608   4.909   3.658 -1.5734  0.2123  0.5380
17592TIP3    H274268   2.496   4.875   3.562  0.4651 -0.0691 -1.8070
17593TIP3   OH274269   3.347   3.253   1.907 -0.3630 -0.0490  0.2613
17593TIP3    H174270   3.390   3.203   1.837 -0.5734 -0.3427  0.3439
17593TIP3    H274271   3.321   3.187   1.972 -0.4282  0.1916  0.4800
17594TIP3   OH274272   3.229   3.525  16.777 -0.1359 -0.4381  0.3463
17594TIP3    H174273   3.272   3.461  16.833  1.5010  1.2228  1.0567
17594TIP3    H274274   3.256   3.501  16.688 -0.0887 -1.1272  0.5484
17595TIP3   OH274275   0.760   3.168   3.787  0.0566  0.3598 -0.3754
17595TIP3    H174276   0.753   3.097   3.723  2.0830  1.0611 -1.4102
17595TIP3    H274277   0.827   3.226   3.752  1.0823  0.8619  2.2920
17596TIP3   OH274278   0.152   1.198   2.884  0.8353 -0.2994 -0.2683
17596TIP3    H174279   0.177   1.228   2.971 -0.7032 -1.3519  0.5742
17596TIP3    H274280   0.235   1.175   2.842  1.7711  2.1675  0.1368
17597TIP3   OH274281   3.576   1.497  13.382 -0.2356  0.1916 -0.0192
17597TIP3    H174282   3.608   1.416  13.341 -1.5911 -1.2479  1.6614
17597TIP3    H274283   3.495   1.470  13.426 -0.8125  2.5298  0.3941
17598TIP3   OH274284   4.349   6.314  13.152  0.3198 -0.5972  0.1255
17598TIP3    H174285   4.316   6.391  13.200 -2.1194 -0.9885 -0.8358
17598TIP3    H274286   4.358   6.344  13.062 -1.2831 -1.5998 -0.3813
17599TIP3   OH274287   0.125   3.958  16.797 -0.3097 -0.0318  0.2517
17599TIP3    H174288   0.087   3.932  16.880  0.5235 -0.6920  0.4357
17599TIP3    H274289   0.211   3.993  16.820 -0.1427 -0.0669 -0.3123
17600TIP3   OH274290   5.096   6.198   2.452  0.9217  0.2215 -0.2681
17600TIP3    H174291   5.091   6.246   2.369 -2.4445  1.4289  0.5547
17600TIP3    H274292   5.094   6.266   2.519 -2.4181 -0.9154  0.8910
17601TIP3   OH274293   3.275   3.455  10.515  0.5143  0.5235  0.2017
17601TIP3    H174294   3.193   3.485  10.477 -0.0855 -0.3919  0.7630
17601TIP3    H274295   3.342   3.485  10.454 -0.2053  1.5660 -0.0824
17602TIP3   OH274296   1.258   2.693   1.409  0.0755 -0.5879 -0.2506
17602TIP3    H174297   1.300   2.649   1.482  0.8217 -0.0768 -0.3708
17602TIP3    H274298   1.211   2.766   1.449  3.1812  1.6861 -0.6090
17603TIP3   OH274299   5.920   1.465   4.045  0.1586  0.5030 -0.3831
17603TIP3    H174300   5.869   1.515   3.981  0.1723 -0.8530 -1.4932
17603TIP3    H274301   5.860   1.397   4.075  0.1385  1.1703  1.1170
17604TIP3   OH274302   4.784   1.807   0.930  0.0328  0.5544 -0.8288
17604TIP3    H174303   4.779   1.885   0.875 -1.2458  0.1351 -1.3481
17604TIP3    H274304   4.707   1.812   0.986  1.0112  0.6681  0.5200
17605TIP3   OH274305   5.940   4.622  12.374  0.1404  0.0176  0.2965
17605TIP3    H174306   5.876   4.555  12.347 -0.0063  0.0718  0.5056
17605TIP3    H274307   6.002   4.626  12.301  1.3939 -1.9158  1.2267
17606TIP3   OH274308   5.322   0.944   6.455  0.2760 -0.4119  0.0697
17606TIP3    H174309   5.247   1.004   6.463 -0.4945 -1.3020 -0.3472
17606TIP3    H274310   5.360   0.942   6.542 -0.0272  0.2551  0.2247
17607TIP3   OH274311   5.990   1.747  11.358 -0.3941 -0.1890  1.1048
17607TIP3    H174312   5.903   1.786  11.351 -0.7750 -1.2288 -0.1405
17607TIP3    H274313   5.988   1.695  11.438 -0.6793  0.3421  1.4479
17608TIP3   OH274314   3.317   6.702  11.838 -0.3084  0.0261 -0.3768
17608TIP3    H174315   3.231   6.696  11.796 -0.6176  1.6029  0.0202
17608TIP3    H274316   3.360   6.620  11.815 -1.5140 -0.3137 -1.4860
17609TIP3   OH274317   6.574   0.985   3.452  0.2222 -0.4879  0.0180
17609TIP3    H174318   6.527   0.965   3.371  0.7335  1.0251 -0.6804
17609TIP3    H274319   6.595   1.078   3.445 -0.3719 -0.1481  2.2350
17610TIP3   OH274320   2.718   4.344  15.994  0.0587  0.3152 -0.4853
17610TIP3    H174321   2.623   4.343  15.988  0.0868  2.0168 -1.6792
17610TIP3    H274322   2.737   4.355  16.087 -0.8988  0.3041 -0.2885
17611TIP3   OH274323   1.993   0.959   6.206 -0.0704  0.3811 -0.1652
17611TIP3    H174324   1.988   0.962   6.301 -0.4876  0.3973 -0.1854
17611TIP3    H274325   1.914   1.005   6.176 -0.9255 -1.2804 -0.5140
17612TIP3   OH274326   4.511   5.363   6.131  0.0227 -0.0150 -0.4103
17612TIP3    H174327   4.458   5.438   6.105 -0.7808 -0.3543  0.2321
17612TIP3    H274328   4.600   5.398   6.137 -0.4431  1.0491  0.5250
17613TIP3   OH274329   4.001   6.406  13.840 -0.6875  0.7063  0.2913
17613TIP3    H174330   4.049   6.416  13.758 -2.9098  0.7486 -1.0598
17613TIP3    H274331   4.006   6.313  13.860 -0.8075  0.5580 -0.3462
17614TIP3   OH274332   2.496   4.993  17.131  0.2690  0.0970 -0.3299
17614TIP3    H174333   2.509   4.911  17.084  0.3544  0.3225 -0.7000
17614TIP3    H274334   2.510   5.061  17.065 -1.2690  0.3814 -0.3901
17615TIP3   OH274335   5.570   6.354   4.763 -0.2543 -0.6694 -0.5197
17615TIP3    H174336   5.478   6.373   4.746 -0.5619 -1.2891  0.4293
17615TIP3    H274337   5.617   6.398   4.691 -1.1643  0.9916 -0.1351
17616TIP3   OH274338   6.615   0.616  12.476  0.1801  0.0477  0.2831
17616TIP3    H174339   6.620   0.610  12.571 -0.4635  1.0574  0.3895
17616TIP3    H274340   6.706   0.623  12.448  0.3735 -0.2657  0.8162
17617TIP3   OH274341   6.099   4.672   0.731  0.1732 -0.0634  0.1857
17617TIP3    H174342   6.012   4.635   0.744 -0.4701 -0.2450 -3.7436
17617TIP3    H274343   6.082   4.758   0.691  1.7561  0.2622  0.1780
17618TIP3   OH274344   1.220   0.851  14.289 -0.4092  0.1337 -0.0749
17618TIP3    H174345   1.261   0.914  14.230 -0.6772  2.1997  1.8861
17618TIP3    H274346   1.242   0.882  14.377 -2.6222 -1.0990  0.9650
17619TIP3   OH274347   1.063   0.361  13.784  0.4065 -0.8752  0.3107
17619TIP3    H174348   1.010   0.294  13.828 -1.9944  0.9669  0.3047
17619TIP3    H274349   1.067   0.434  13.846 -2.1251  1.3418 -2.0112
17620TIP3   OH274350   3.398   5.894   4.405 -0.1791 -0.0178  0.3291
17620TIP3    H174351   3.336   5.936   4.465  1.6400  0.9311  1.6013
17620TIP3    H274352   3.453   5.839   4.462  2.2331  1.6843 -0.2661
17621TIP3   OH274353   6.064   3.727  14.831 -0.1120 -0.6877  0.0067
17621TIP3    H174354   6.130   3.714  14.899  0.4438  2.2471  0.0817
17621TIP3    H274355   5.987   3.759  14.878 -1.1321 -2.6022 -0.2799
17622TIP3   OH274356   3.650   5.894  15.430 -0.8142  0.5104  0.0085
17622TIP3    H174357   3.562   5.930  15.431 -0.7625  0.7810 -2.1256
17622TIP3    H274358   3.638   5.801  15.446 -1.3719  0.7223  0.8625
17623TIP3   OH274359   1.338   6.707  15.755  0.4269  0.4709 -0.1797
17623TIP3    H174360   1.362   6.796  15.780  1.8639 -0.0613  0.4196
17623TIP3    H274361   1.421   6.659  15.756 -0.5843 -1.3067  1.3037
17624TIP3   OH274362   5.212   5.738   5.344  0.2472 -0.1443  0.3075
17624TIP3    H174363   5.286   5.792   5.370 -0.7059  0.4954  1.7494
17624TIP3    H274364   5.168   5.716   5.426 -1.3029 -0.2882 -0.5346
17625TIP3   OH274365   6.100   1.008  13.809  0.1321  0.2559 -0.1747
17625TIP3    H174366   6.124   0.970  13.725  1.3941 -0.4437  0.4891
17625TIP3    H274367   6.065   0.935  13.860 -2.6203  1.1003 -0.8261
17626TIP3   OH274368   3.119   1.823  11.423 -0.2740 -0.2422  0.7826
17626TIP3    H174369   3.066   1.900  11.402 -0.6573 -0.3031  1.5306
17626TIP3    H274370   3.069   1.750  11.388  0.8604 -0.0208 -1.3625
17627TIP3   OH274371   0.544   2.481  14.742  0.1177  0.2966 -0.0598
17627TIP3    H174372   0.465   2.431  14.762  0.8057 -0.5384  0.6102
17627TIP3    H274373   0.539   2.558  14.799 -1.0530  1.1342 -1.2574
17628TIP3   OH274374   3.564   6.264   4.972 -0.3203 -0.0003 -0.5912
17628TIP3    H174375   3.565   6.263   4.876  1.9114  3.1221 -0.6474
17628TIP3    H274376   3.648   6.227   4.997 -0.5741 -0.0711  0.1827
17629TIP3   OH274377   3.489   2.585  11.169  0.6805 -0.6305 -0.6689
17629TIP3    H174378   3.520   2.573  11.259 -0.7566 -0.0386 -0.0774
17629TIP3    H274379   3.476   2.497  11.136  0.1137 -0.8444  0.1089
17630TIP3   OH274380   4.157   6.215   5.091  0.1278  0.2353 -0.0864
17630TIP3    H174381   4.169   6.182   5.003 -0.4417  0.0349 -0.0946
17630TIP3    H274382   4.102   6.293   5.081 -0.8347 -0.3995  0.1841
17631TIP3   OH274383   5.355   6.407  13.456  0.2155  0.0980 -0.7051
17631TIP3    H174384   5.395   6.320  13.457  2.1146  0.9042 -2.2706
17631TIP3    H274385   5.378   6.445  13.541  0.5351 -0.4270 -0.5547
17632TIP3   OH274386   5.706   1.289   2.203  0.2290  0.1230 -0.2168
17632TIP3    H174387   5.656   1.240   2.137 -1.1522  2.8860 -1.2807
17632TIP3    H274388   5.794   1.296   2.165 -0.2032  0.5507 -1.1669
17633TIP3   OH274389   1.354   5.370  14.274 -0.4240 -0.3098 -0.1568
17633TIP3    H174390   1.333   5.390  14.365 -1.4183 -1.4644 -0.1120
17633TIP3    H274391   1.342   5.453  14.227 -2.6078 -0.3279  0.3230
17634TIP3   OH274392   6.180   5.102   1.893  0.8040  0.5099  0.0708
17634TIP3    H174393   6.144   5.013   1.893 -0.4823  1.0108 -0.4096
17634TIP3    H274394   6.207   5.116   1.983 -0.4108  0.1722  0.5051
17635TIP3   OH274395   4.994   3.764   1.603 -0.1014 -0.1755  0.1928
17635TIP3    H174396   4.997   3.824   1.529  1.9797 -0.0120  0.3799
17635TIP3    H274397   4.901   3.756   1.625 -0.6832  0.2154 -2.0696
17636TIP3   OH274398   0.218   4.386   4.975 -0.2008  0.3009  0.3114
17636TIP3    H174399   0.243   4.473   5.007  0.3081 -0.0557  0.8765
17636TIP3    H274400   0.185   4.340   5.051 -0.7179  0.0822 -0.0425
17637TIP3   OH274401   5.167   1.294   3.234  0.3953 -0.5906 -0.2946
17637TIP3    H174402   5.090   1.296   3.177 -0.8784 -0.9495  1.3798
17637TIP3    H274403   5.158   1.213   3.283  2.1965 -0.9456 -0.5372
17638TIP3   OH274404   1.833   2.513  13.713 -0.7199  0.0750 -0.0487
17638TIP3    H174405   1.862   2.586  13.658 -0.9569  0.4010  0.2545
17638TIP3    H274406   1.836   2.548  13.802 -1.9405  0.0855 -0.0020
17639TIP3   OH274407   5.375   5.932  12.530  0.6222  0.0563 -0.1128
17639TIP3    H174408   5.414   5.895  12.609  2.5267  0.9657 -0.5958
17639TIP3    H274409   5.420   5.889  12.457 -0.2492  0.1190 -0.7008
17640TIP3   OH274410   6.049   2.078   6.418 -0.3494  0.6800 -0.8892
17640TIP3    H174411   6.051   2.140   6.491  0.6489 -2.9186  2.3091
17640TIP3    H274412   6.138   2.080   6.383  0.2147 -0.3028  0.4524
17641TIP3   OH274413   0.150   3.829   1.339 -0.3389 -0.3232 -0.5030
17641TIP3    H174414   0.184   3.889   1.406  0.2783 -0.6415 -0.5212
17641TIP3    H274415   0.216   3.832   1.269 -1.1713  0.3060 -1.2685
17642TIP3   OH274416   0.080   0.517  14.103  0.4733  0.1281 -0.3202
17642TIP3    H174417   0.026   0.471  14.040  0.3608  1.3612 -1.1447
17642TIP3    H274418   0.130   0.580  14.051  1.6281  0.0103  0.6128
17643TIP3   OH274419   4.142   2.304   3.686  0.2659  0.1238  0.3194
17643TIP3    H174420   4.203   2.237   3.654  0.6021  0.1231  0.9596
17643TIP3    H274421   4.149   2.375   3.622 -0.5840 -0.7160 -0.7245
17644TIP3   OH274422   1.230   2.519  15.649 -0.3202 -0.4062 -0.3467
17644TIP3    H174423   1.278   2.585  15.600  0.8781 -1.2702 -0.3449
17644TIP3    H274424   1.164   2.486  15.588 -0.9342  0.7825 -0.3421
17645TIP3   OH274425   4.467   6.281  16.073 -0.2780 -0.1546  0.6147
17645TIP3    H174426   4.442   6.318  15.988 -0.6178  1.6321  1.4576
17645TIP3    H274427   4.478   6.358  16.130  0.0416 -1.3191  2.1582
17646TIP3   OH274428   6.817   1.707   3.594 -0.3899  0.2841 -0.3709
17646TIP3    H174429   6.809   1.758   3.675  0.5739  1.0058 -0.7139
17646TIP3    H274430   6.774   1.624   3.613  1.0462 -0.0932  1.3504
17647TIP3   OH274431   1.136   0.344  14.354 -0.4691  0.1966 -0.3067
17647TIP3    H174432   1.140   0.249  14.367  2.9383  0.3659  0.3594
17647TIP3    H274433   1.150   0.356  14.260  1.8558  0.0959 -0.0124
17648TIP3   OH274434   3.799   1.330  17.045 -0.3177 -0.1913  0.5498
17648TIP3    H174435   3.888   1.321  17.010 -0.0683  1.1920  0.8070
17648TIP3    H274436   3.793   1.264  17.114 -0.4613 -2.2369 -1.3543
17649TIP3   OH274437   1.905   0.840   0.611  0.7977  0.3003  0.0160
17649TIP3    H174438   1.950   0.920   0.584 -0.8193  1.1195 -0.3406
17649TIP3    H274439   1.889   0.853   0.705  1.4601 -0.0654  0.1785
17650TIP3   OH274440   5.276   6.596  16.130  0.7916 -0.2407 -0.1454
17650TIP3    H174441   5.369   6.599  16.154  0.6949 -0.8672  0.3182
17650TIP3    H274442   5.234   6.549  16.202 -0.1451  1.4485  0.4408
17651TIP3   OH274443   5.605   1.275  14.350  0.1796  0.0165  0.1256
17651TIP3    H174444   5.528   1.252  14.297 -0.4595  0.3520  0.8935
17651TIP3    H274445   5.667   1.313  14.287 -0.5440  0.3501 -0.3950
17652TIP3   OH274446   4.438   0.629  16.922  0.1760  0.5035  0.3080
17652TIP3    H174447   4.358   0.664  16.885 -0.8255 -1.3218  0.6646
17652TIP3    H274448   4.410   0.551  16.970  2.0792  0.1610  0.9094
17653TIP3   OH274449   6.157   1.750  14.410 -0.5049 -0.1576  0.0294
17653TIP3    H174450   6.130   1.658  14.416  2.2507 -0.9942  0.2607
17653TIP3    H274451   6.207   1.755  14.329 -0.5926  1.1408  0.0536
17654TIP3   OH274452   0.987   4.295   4.215 -0.2117 -0.8336  0.2869
17654TIP3    H174453   0.925   4.251   4.274  0.3041  0.3571  1.7469
17654TIP3    H274454   1.050   4.336   4.273  1.7357 -1.6903 -1.1904
17655TIP3   OH274455   4.456   0.747   2.477 -0.1792  0.3182  0.3553
17655TIP3    H174456   4.532   0.706   2.519 -0.5445  0.0651  0.7752
17655TIP3    H274457   4.381   0.719   2.530 -0.3659  2.1078  1.0634
17656TIP3   OH274458   0.174   4.866  15.120  0.1799 -0.3821 -0.3756
17656TIP3    H174459   0.112   4.830  15.057 -0.9167  1.5009 -0.4127
17656TIP3    H274460   0.245   4.902  15.066  0.7744 -1.5345 -0.3802
17657TIP3   OH274461   6.455   1.520   2.211  0.6139  0.2590  0.1238
17657TIP3    H174462   6.548   1.518   2.188  0.0039 -1.2574 -2.3476
17657TIP3    H274463   6.424   1.603   2.177  0.5348 -0.3337 -1.2768
17658TIP3   OH274464   6.006   5.823   3.766  0.0666 -0.4401  0.1418
17658TIP3    H174465   6.045   5.741   3.735  0.5926 -0.3913  0.6579
17658TIP3    H274466   5.912   5.810   3.754  0.2136 -0.6969 -0.7791
17659TIP3   OH274467   4.292   3.630   4.169 -0.2318 -0.1438  0.1740
17659TIP3    H174468   4.292   3.600   4.078 -2.2253  0.6635 -0.1280
17659TIP3    H274469   4.267   3.553   4.220  1.2045 -0.6816  0.0866
17660TIP3   OH274470   3.060   2.539   0.772 -0.1808 -0.7595 -0.4211
17660TIP3    H174471   3.092   2.630   0.774 -1.3172 -0.3822  1.5867
17660TIP3    H274472   2.966   2.547   0.756 -0.4905 -1.5221  0.9966
17661TIP3   OH274473   5.306   0.152   5.534  0.1935 -0.2702 -0.0490
17661TIP3    H174474   5.397   0.161   5.505 -0.0129  0.0541 -0.5944
17661TIP3    H274475   5.303   0.198   5.618  0.2720  0.6615 -0.5551
17662TIP3   OH274476   4.414   6.679  15.790  0.6446 -0.3095  0.0419
17662TIP3    H174477   4.460   6.762  15.794 -0.1202  0.0897  0.5635
17662TIP3    H274478   4.328   6.696  15.828  0.0437 -1.0423 -0.9501
17663TIP3   OH274479   5.354   5.791   3.736  0.0969  0.0658  0.7283
17663TIP3    H174480   5.408   5.813   3.811  1.0611 -0.1370  0.1021
17663TIP3    H274481   5.264   5.794   3.769  0.3437  2.5824  1.2235
17664TIP3   OH274482   0.272   5.140   3.086 -0.2647 -1.2319 -0.4444
17664TIP3    H174483   0.295   5.082   3.158 -2.5005 -1.1972  0.3458
17664TIP3    H274484   0.205   5.198   3.123  2.0305  1.9932 -1.1481
17665TIP3   OH274485   4.127   4.539  14.547  0.2040 -0.0529 -0.1635
17665TIP3    H174486   4.064   4.481  14.505  0.6348  0.7707 -1.9957
17665TIP3    H274487   4.123   4.516  14.640  1.5982 -4.2028 -1.0174
17666TIP3   OH274488   2.166   6.517   3.596 -0.2029  0.1117 -0.2071
17666TIP3    H174489   2.143   6.424   3.585  0.6215 -0.0162 -0.9624
17666TIP3    H274490   2.176   6.549   3.506  1.3578  0.4573  0.0815
17667TIP3   OH274491   6.716   5.705   2.434 -0.2558  0.5414  0.2258
17667TIP3    H174492   6.799   5.749   2.450 -0.2441  0.6150 -0.0381
17667TIP3    H274493   6.650   5.773   2.449 -0.2714  0.4749  0.4647
17668TIP3   OH274494   1.555   2.619  16.165  0.4146  0.3231  0.4684
17668TIP3    H174495   1.622   2.552  16.176 -0.2426 -0.4103  0.0259
17668TIP3    H274496   1.473   2.570  16.155  0.0726  1.1500 -0.9090
17669TIP3   OH274497   3.312   3.065  12.901 -0.4802 -0.1636 -0.0229
17669TIP3    H174498   3.368   3.117  12.958  2.3942 -0.2053 -2.7220
17669TIP3    H274499   3.316   2.976  12.938 -0.9953  0.3591  1.3439
17670TIP3   OH274500   4.489   0.551  12.361  0.3777  0.5926 -0.6107
17670TIP3    H174501   4.444   0.621  12.408 -0.8308 -0.2636 -0.4743
17670TIP3    H274502   4.459   0.559  12.271 -0.9922 -0.7141 -0.2912
17671TIP3   OH274503   3.918   5.796  12.423  0.7378 -0.5180  0.2575
17671TIP3    H174504   3.969   5.874  12.445 -0.7756  0.1071  1.6093
17671TIP3    H274505   3.981   5.724  12.428  1.7675  0.4040  0.7177
17672TIP3   OH274506   3.474   5.572  16.337 -0.0070  0.0004 -0.5276
17672TIP3    H174507   3.566   5.586  16.318  0.1263 -0.2705 -0.0936
17672TIP3    H274508   3.472   5.551  16.430 -0.4405 -0.6405 -0.6823
17673TIP3   OH274509   0.486   1.988   1.609 -0.2192  0.5410  0.2483
17673TIP3    H174510   0.461   1.905   1.568  0.5836  0.3386  0.1543
17673TIP3    H274511   0.431   1.994   1.686  0.2141 -0.4349  0.6488
17674TIP3   OH274512   6.308   4.739   2.977 -0.1029  0.2669  0.4159
17674TIP3    H174513   6.266   4.728   3.062 -0.0553 -0.7116  0.3215
17674TIP3    H274514   6.357   4.821   2.985  0.7313 -0.3326  1.6805
17675TIP3   OH274515   4.550   4.426   4.270  0.0416 -0.0487 -0.2458
17675TIP3    H174516   4.512   4.465   4.349  0.0913  0.2026 -0.3439
17675TIP3    H274517   4.636   4.468   4.262  0.4093 -0.7456  0.0750
17676TIP3   OH274518   4.590   6.341  11.626  0.8859  0.5254  0.3129
17676TIP3    H174519   4.643   6.272  11.586 -0.2558  0.0170 -0.3531
17676TIP3    H274520   4.533   6.294  11.688 -1.2535  0.6144 -1.5492
17677TIP3   OH274521   0.770   6.599   5.033  0.5215 -0.0871  0.4330
17677TIP3    H174522   0.798   6.580   4.943  3.4512  1.1445  1.0281
17677TIP3    H274523   0.825   6.673   5.060 -1.7448  0.8847  2.5545
17678TIP3   OH274524   6.595   0.003   2.965 -0.0825 -0.5998 -0.2352
17678TIP3    H174525   6.664   0.068   2.952  0.0392 -0.6972 -0.0814
17678TIP3    H274526   6.618  -0.069   2.905 -1.1950  0.2561 -1.7227
17679TIP3   OH274527   4.614   6.385   2.724  0.0908 -0.2682 -0.2450
17679TIP3    H174528   4.669   6.430   2.660  0.7850 -2.3899 -1.1987
17679TIP3    H274529   4.659   6.397   2.808  0.8277 -0.0726 -0.6660
17680TIP3   OH274530   4.947   0.927  12.639  0.7250 -0.1496  0.7361
17680TIP3    H174531   4.932   0.911  12.546  0.6896 -1.5772  0.9768
17680TIP3    H274532   5.001   0.854  12.667  1.4600  0.7347  1.6530
17681TIP3   OH274533   5.319   2.242   5.578  0.0709 -0.1232  0.1687
17681TIP3    H174534   5.407   2.223   5.545  0.9394  1.8460  1.2721
17681TIP3    H274535   5.327   2.328   5.621 -2.6122  0.5360 -0.5599
17682TIP3   OH274536   4.766   0.192   0.300 -0.3782  0.2507  0.1858
17682TIP3    H174537   4.699   0.163   0.238 -1.2148 -0.0507  1.2165
17682TIP3    H274538   4.817   0.258   0.252  0.3293 -1.4908 -1.5266
17683TIP3   OH274539   3.876   1.539   1.808 -0.3400  0.3797 -0.2749
17683TIP3    H174540   3.954   1.485   1.812  0.1475  1.1226  0.2972
17683TIP3    H274541   3.864   1.573   1.897 -0.8152  0.9627 -0.5521
17684TIP3   OH274542   4.951   4.666  14.077 -0.1057  0.5307  1.1141
17684TIP3    H174543   4.951   4.688  13.984  0.2305 -2.0321  0.4633
17684TIP3    H274544   4.881   4.601  14.086 -1.6211  2.3721  3.0941
17685TIP3   OH274545   3.310   3.552  15.112 -0.2443 -0.2518  0.5495
17685TIP3    H174546   3.296   3.488  15.182  0.2865 -0.8334  0.1429
17685TIP3    H274547   3.235   3.541  15.054 -0.0436 -0.6774  0.3629
17686TIP3   OH274548   3.479   3.605  17.045 -0.2511 -0.0510 -0.6712
17686TIP3    H174549   3.445   3.572  17.128 -0.7736 -0.5079 -1.0701
17686TIP3    H274550   3.534   3.535  17.011  1.7632  0.9903  0.3649
17687TIP3   OH274551   2.499   3.091  13.330  0.7434 -0.3791  0.0012
17687TIP3    H174552   2.466   3.177  13.355  2.8343  0.3967  0.1942
17687TIP3    H274553   2.447   3.030  13.382  0.3087  0.8563  1.0468
17688TIP3   OH274554   5.309   6.147   3.614 -0.5399  0.0832 -0.7048
17688TIP3    H174555   5.287   6.057   3.590 -1.8452  0.5521 -1.3128
17688TIP3    H274556   5.301   6.149   3.709 -0.0616 -0.5581 -0.6458
17689TIP3   OH274557   3.363   2.987  13.752  0.4272 -0.0709  0.4966
17689TIP3    H174558   3.275   2.986  13.790  0.7713 -0.7449  1.2825
17689TIP3    H274559   3.398   2.900  13.770  1.1814  0.1266  0.0008
17690TIP3   OH274560   1.657   1.209   5.882 -0.2599  0.0872 -0.6942
17690TIP3    H174561   1.561   1.207   5.879 -0.3159  0.1530  1.0415
17690TIP3    H274562   1.678   1.291   5.926  0.5964 -0.2097 -0.5521
17691TIP3   OH274563   1.490   3.643  15.217  0.4748 -0.1858  0.1301
17691TIP3    H174564   1.550   3.698  15.167 -1.7372  1.8122 -0.4010
17691TIP3    H274565   1.442   3.593  15.152  1.2027 -1.4653  0.5393
17692TIP3   OH274566   6.551   2.764  16.099 -0.2229 -0.4499  0.3847
17692TIP3    H174567   6.485   2.782  16.166 -0.4891  4.9584 -1.0959
17692TIP3    H274568   6.625   2.819  16.124  1.4399 -1.8744 -1.2751
17693TIP3   OH274569   1.627   6.480   4.368  0.6072  0.1985  0.0021
17693TIP3    H174570   1.696   6.484   4.302  1.1431 -1.1657  0.4686
17693TIP3    H274571   1.619   6.571   4.399 -0.5873  1.1170 -2.8673
17694TIP3   OH274572   4.945   3.056  15.645 -0.0325 -0.1732 -0.5880
17694TIP3    H174573   4.936   3.132  15.587  0.7206 -0.5623 -1.2227
17694TIP3    H274574   4.998   3.087  15.718  0.0407 -0.0175 -0.7077
17695TIP3   OH274575   2.097   0.409  13.015  0.3368 -0.2591 -0.6232
17695TIP3    H174576   2.089   0.478  12.948 -0.5255 -0.0059 -0.2685
17695TIP3    H274577   2.162   0.443  13.076  0.4278 -0.0670 -0.8256
17696TIP3   OH274578   4.160   3.008  10.730 -0.1960  0.2342  0.7291
17696TIP3    H174579   4.102   3.031  10.658 -0.4577  0.3987  0.9949
17696TIP3    H274580   4.131   3.062  10.803  2.4766  2.9102 -0.0837
17697TIP3   OH274581   4.410   4.264  16.525  0.5922  0.1183 -0.2398
17697TIP3    H174582   4.433   4.282  16.433  0.8481 -0.6709 -0.3377
17697TIP3    H274583   4.477   4.311  16.575  0.7751  0.1097 -0.4696
17698TIP3   OH274584   4.340   4.352   3.783  0.2990 -0.0693 -0.2925
17698TIP3    H174585   4.378   4.410   3.849  0.7019 -0.1573 -0.4412
17698TIP3    H274586   4.290   4.410   3.726  1.3876  0.2624 -0.9350
17699TIP3   OH274587   0.289   5.954  11.970 -0.3965 -0.0894 -0.3994
17699TIP3    H174588   0.364   5.944  11.911  1.5631 -1.2690  2.1744
17699TIP3    H274589   0.326   5.941  12.057 -3.4159  0.4840  1.0184
17700TIP3   OH274590   1.318   5.955  12.803  0.6612 -0.6532 -0.4073
17700TIP3    H174591   1.292   5.877  12.852  0.1203 -0.4842 -0.4211
17700TIP3    H274592   1.235   5.992  12.771  0.9257 -0.1373 -0.4984
17701TIP3   OH274593   6.328   0.486   4.528 -0.5429 -0.0648 -0.0922
17701TIP3    H174594   6.342   0.486   4.433  0.2975 -0.6603  0.0219
17701TIP3    H274595   6.367   0.404   4.558  0.7857  0.9443  1.0038
17702TIP3   OH274596   0.522   1.584  15.242 -0.4950 -0.2925 -0.5164
17702TIP3    H174597   0.431   1.577  15.212  0.3822  1.3917 -3.8622
17702TIP3    H274598   0.520   1.657  15.304 -1.6785 -1.3297  0.7168
17703TIP3   OH274599   2.997   5.547   5.580 -0.0764  0.1091  0.3805
17703TIP3    H174600   2.922   5.585   5.626 -0.3661 -0.0046  0.0044
17703TIP3    H274601   2.959   5.509   5.500  0.0809 -1.7712  1.1890
17704TIP3   OH274602   2.542   5.118  11.734  0.1655  0.3272  0.0407
17704TIP3    H174603   2.460   5.086  11.774 -0.0245  0.4606 -0.2420
17704TIP3    H274604   2.579   5.041  11.690 -0.0633  0.3860 -0.2560
17705TIP3   OH274605   3.131   5.096  15.820 -0.5112  0.1556  0.1046
17705TIP3    H174606   3.082   5.082  15.901  0.0499  3.3822  1.0849
17705TIP3    H274607   3.139   5.191  15.814  1.4628 -0.1444 -2.5591
17706TIP3   OH274608   4.317   0.666  13.662 -0.1148  0.2606 -0.4056
17706TIP3    H174609   4.374   0.609  13.714 -1.5554  0.2860  1.2090
17706TIP3    H274610   4.275   0.607  13.599  0.6041  0.0256 -0.6770
17707TIP3   OH274611   1.104   0.263  16.937  0.2068  0.3582 -0.3399
17707TIP3    H174612   1.140   0.271  17.026 -2.0031 -1.6025  0.7755
17707TIP3    H274613   1.089   0.354  16.909  0.3563  0.9748  1.5154
17708TIP3   OH274614   4.622   5.419  16.761 -0.2971 -0.1862  0.1011
17708TIP3    H174615   4.695   5.363  16.735 -0.9843 -0.6261 -0.9239
17708TIP3    H274616   4.652   5.508  16.741  0.5827 -0.2143  1.2195
17709TIP3   OH274617   0.059   2.693  12.973 -0.0520 -0.4933  0.1687
17709TIP3    H174618  -0.024   2.714  12.930 -0.5618 -0.5564  1.0938
17709TIP3    H274619   0.102   2.630  12.915 -1.9032 -2.5969  0.9815
17710TIP3   OH274620   3.446   0.945  13.694 -0.1122 -0.0163 -0.2209
17710TIP3    H174621   3.470   1.037  13.708  0.5717 -0.3831  1.1352
17710TIP3    H274622   3.392   0.923  13.770  1.3222 -1.2713  0.4677
17711TIP3   OH274623   5.256   4.882   3.239 -0.8568 -0.3918 -0.5560
17711TIP3    H174624   5.190   4.934   3.286 -0.3365  1.7410 -2.1046
17711TIP3    H274625   5.327   4.944   3.221  2.0006 -2.8380  1.7826
17712TIP3   OH274626   6.347   2.128   1.228  0.0180  0.7798 -0.1489
17712TIP3    H174627   6.442   2.132   1.219  0.0362  0.6864 -0.0078
17712TIP3    H274628   6.333   2.112   1.322 -0.1246  0.3873 -0.2373
17713TIP3   OH274629   1.095   1.192   0.736 -0.4714 -0.2941 -0.0353
17713TIP3    H174630   1.121   1.177   0.827  1.3673 -1.3474 -0.7130
17713TIP3    H274631   1.110   1.109   0.692 -0.6372  0.4113 -1.4719
17714TIP3   OH274632   1.250   0.920   4.035 -0.0839 -0.2634 -0.3931
17714TIP3    H174633   1.296   0.840   4.062  2.7089  1.5482  0.4667
17714TIP3    H274634   1.240   0.970   4.116  1.2919  1.7349 -1.4194
17715TIP3   OH274635   5.672   2.129  14.944 -0.1410 -0.3294  0.3700
17715TIP3    H174636   5.680   2.224  14.936  2.3768 -0.4845  0.6750
17715TIP3    H274637   5.628   2.116  15.028 -1.0052  0.5595  0.0739
17716TIP3   OH274638   1.126   1.694   6.332  0.6536 -0.2668  0.6049
17716TIP3    H174639   1.061   1.676   6.400  0.1446 -0.7705 -0.0074
17716TIP3    H274640   1.185   1.758   6.371 -0.0306 -0.0441  1.2810
17717TIP3   OH274641   4.605   5.548  17.148  0.2938 -0.1570  0.1349
17717TIP3    H174642   4.568   5.600  17.077 -0.8077 -0.5250  0.4300
17717TIP3    H274643   4.695   5.531  17.120 -0.7688 -2.1747 -2.2200
17718TIP3   OH274644   1.766   3.108   3.108  0.0574 -0.5571  0.0826
17718TIP3    H174645   1.850   3.140   3.075  0.0954  1.1106  1.6717
17718TIP3    H274646   1.708   3.185   3.106 -0.2602 -0.6602  2.6669
17719TIP3   OH274647   3.593   4.811  11.115 -0.1174  0.2771  0.2954
17719TIP3    H174648   3.520   4.795  11.055  0.2754 -0.8905  0.1373
17719TIP3    H274649   3.650   4.872  11.069 -0.0961 -0.1900 -0.2954
17720TIP3   OH274650   6.171   5.807  15.737  0.0173 -0.3776  0.7033
17720TIP3    H174651   6.093   5.754  15.718  1.1355 -0.8964 -2.7579
17720TIP3    H274652   6.234   5.744  15.771  0.1563 -0.6183  0.0004
17721TIP3   OH274653   6.160   4.524   4.969  0.0028  0.1832 -0.1866
17721TIP3    H174654   6.172   4.489   5.058  1.1309 -1.6972 -1.0557
17721TIP3    H274655   6.067   4.545   4.964 -0.4596 -1.5563  0.7882
17722TIP3   OH274656   4.083   0.366  13.254 -0.2995  0.5532  0.1038
17722TIP3    H174657   4.012   0.419  13.290 -0.0526  0.1913  1.1500
17722TIP3    H274658   4.067   0.364  13.160 -3.1912 -1.7120  0.5800
17723TIP3   OH274659   1.818   0.903   0.163  0.7468 -0.5938  0.6934
17723TIP3    H174660   1.762   0.931   0.091  1.4066  0.1719  0.4786
17723TIP3    H274661   1.868   0.981   0.187  1.9729 -1.3670  0.6652
17724TIP3   OH274662   4.933   0.313  13.978 -0.3916 -0.6361 -0.0790
17724TIP3    H174663   5.020   0.346  13.956 -1.0991 -0.3674 -2.5772
17724TIP3    H274664   4.877   0.344  13.907 -2.1765 -2.3365  0.5539
17725TIP3   OH274665   2.451   6.666   2.509  0.3120  0.8468 -0.1724
17725TIP3    H174666   2.412   6.579   2.499 -2.1241  2.1306 -2.5429
17725TIP3    H274667   2.409   6.703   2.587 -1.8295  1.4404 -1.5572
17726TIP3   OH274668   2.376   2.087   1.504 -0.2242  0.3780 -0.2598
17726TIP3    H174669   2.402   2.126   1.421 -0.2267  1.4152  0.2207
17726TIP3    H274670   2.453   2.098   1.560  0.2821 -1.5713 -0.5466
17727TIP3   OH274671   0.304   1.912   3.569 -0.4830  0.4840 -0.1177
17727TIP3    H174672   0.369   1.948   3.629 -0.3862 -0.9440  0.6532
17727TIP3    H274673   0.282   1.826   3.606 -1.6708  0.3057 -1.2042
17728TIP3   OH274674   3.636   5.421   3.661 -0.3720 -0.0537  0.6572
17728TIP3    H174675   3.672   5.443   3.575  1.0365 -2.5640  0.5554
17728TIP3    H274676   3.579   5.346   3.645  1.5250 -1.8790  2.1827
17729TIP3   OH274677   5.714   1.042  10.323  0.1494 -0.4670 -0.3813
17729TIP3    H174678   5.625   1.011  10.339  0.2295 -0.0055  1.0465
17729TIP3    H274679   5.703   1.118  10.266 -0.2319 -1.4636 -1.6645
17730TIP3   OH274680   6.521   5.678   2.251  0.6545  0.2044 -0.2884
17730TIP3    H174681   6.478   5.599   2.284  1.9183 -1.2306 -1.9827
17730TIP3    H274682   6.611   5.671   2.282  1.2844 -0.0506 -2.1229
17731TIP3   OH274683   0.674   6.126  14.725  0.1575  0.0591  0.0683
17731TIP3    H174684   0.677   6.152  14.633 -1.1159  3.5799  0.9676
17731TIP3    H274685   0.765   6.129  14.754  0.3721  0.5578 -0.6520
17732TIP3   OH274686   3.792   5.469  10.949 -0.0653  0.2230  0.3764
17732TIP3    H174687   3.865   5.411  10.969  0.3880  0.4682 -0.5441
17732TIP3    H274688   3.754   5.434  10.869 -0.1827  0.8160  0.1669
17733TIP3   OH274689   6.366   6.553   5.735  0.3263 -0.0060 -0.1511
17733TIP3    H174690   6.357   6.640   5.695 -2.0146 -0.9420 -1.7950
17733TIP3    H274691   6.295   6.549   5.799  1.5404 -0.0516  1.2033
17734TIP3   OH274692   2.389   0.792   2.246  0.1404 -0.0935  0.4217
17734TIP3    H174693   2.364   0.807   2.155  1.2897  0.2034  0.1435
17734TIP3    H274694   2.485   0.787   2.244  0.1413 -0.7146  1.5217
17735TIP3   OH274695   0.299   6.166   0.384 -0.1923 -0.3349  0.3944
17735TIP3    H174696   0.226   6.115   0.347 -0.0629 -0.3662  0.1778
17735TIP3    H274697   0.366   6.164   0.315 -0.1263 -0.0051  0.4495
17736TIP3   OH274698   5.974   2.204  10.876 -0.4564 -0.1336  0.3068
17736TIP3    H174699   5.889   2.240  10.853 -0.4487  0.9508  1.9143
17736TIP3    H274700   5.955   2.139  10.944 -0.0666 -0.4459  0.1226
17737TIP3   OH274701   2.860   1.114  11.392  0.2829 -0.3998 -0.0821
17737TIP3    H174702   2.841   1.201  11.357  0.7370  0.3182  1.4414
17737TIP3    H274703   2.918   1.074  11.327 -0.3038  0.2475 -1.0159
17738TIP3   OH274704   2.911   1.017  15.124  0.3161 -0.0850 -0.0647
17738TIP3    H174705   2.998   1.055  15.114  0.6436 -0.5415  0.9670
17738TIP3    H274706   2.853   1.078  15.079  1.2669 -0.1913 -1.4381
17739TIP3   OH274707   3.642   5.097  15.982  0.6084  0.1407  0.1638
17739TIP3    H174708   3.551   5.068  15.974  0.8397 -1.0614  1.6448
17739TIP3    H274709   3.673   5.104  15.892 -0.7455 -0.0697 -0.3348
17740TIP3   OH274710   6.165   4.086  14.958  0.5354  0.4091 -0.2725
17740TIP3    H174711   6.156   4.143  15.033  0.6486  0.2294 -0.1219
17740TIP3    H274712   6.112   4.009  14.979  0.2011  0.5586 -0.5719
17741TIP3   OH274713   0.121   0.885  15.531  0.4872 -0.0473 -0.7274
17741TIP3    H174714   0.191   0.880  15.466  0.4367  0.8734 -0.8674
17741TIP3    H274715   0.165   0.873  15.615  0.6125 -0.8503 -0.9103
17742TIP3   OH274716   0.763   0.825  15.955 -0.0242 -0.1240 -0.6887
17742TIP3    H174717   0.836   0.763  15.957 -0.7054 -0.8828  0.7512
17742TIP3    H274718   0.804   0.910  15.969  0.3429 -0.7878  2.5966
17743TIP3   OH274719   1.588   5.000   5.402 -0.4109 -0.0175 -0.6888
17743TIP3    H174720   1.587   5.068   5.469  4.2963  1.4314 -1.9530
17743TIP3    H274721   1.575   4.919   5.451  0.2052  1.2419  1.6482
17744TIP3   OH274722   1.676   5.725   4.833 -0.0392  0.3997  0.0450
17744TIP3    H174723   1.697   5.779   4.756  0.4498  0.5291  0.2677
17744TIP3    H274724   1.619   5.781   4.886  1.0712  1.0024  0.6410
17745TIP3   OH274725   1.327   1.345   4.431 -0.0958  0.2195  0.0171
17745TIP3    H174726   1.419   1.318   4.430  0.4251  1.8758  0.7022
17745TIP3    H274727   1.304   1.351   4.523 -0.0674  2.3959 -0.0798
17746TIP3   OH274728   5.003   4.046   1.473  0.2443 -0.1592  0.0235
17746TIP3    H174729   4.966   4.119   1.423  0.0466  0.1302  0.5889
17746TIP3    H274730   5.097   4.050   1.455  0.2071  0.1076 -0.1208
17747TIP3   OH274731   1.714   3.119   6.018  0.3593  0.2576 -0.2563
17747TIP3    H174732   1.741   3.147   6.106  1.9839  0.4659 -0.7970
17747TIP3    H274733   1.653   3.046   6.034  0.9510  0.0209  1.0422
17748TIP3   OH274734   1.201   6.384   0.222  0.1104 -0.1798 -0.1107
17748TIP3    H174735   1.164   6.297   0.213  1.1309 -0.5517 -0.8288
17748TIP3    H274736   1.190   6.424   0.135  0.6501 -0.0030 -0.1029
17749TIP3   OH274737   0.177   4.928  16.314 -0.5872  0.0096  0.2085
17749TIP3    H174738   0.205   4.888  16.397 -0.9168  1.1036  0.8590
17749TIP3    H274739   0.232   4.886  16.248  2.4982  1.9032  1.4261
17750TIP3   OH274740   1.191   6.757  12.952  0.0877  0.4403  0.6495
17750TIP3    H174741   1.135   6.823  12.994  0.4184  1.1328  0.0221
17750TIP3    H274742   1.195   6.784  12.860  0.0097 -0.6115  0.3246
17751TIP3   OH274743   1.430   0.106  11.765  0.4457 -0.1607 -0.2594
17751TIP3    H174744   1.425   0.063  11.850 -2.1388  0.3489 -0.1099
17751TIP3    H274745   1.379   0.187  11.775  0.6455  0.2282 -2.0772
17752TIP3   OH274746   4.007   1.562  16.918  0.4228  0.5787  0.0762
17752TIP3    H174747   4.044   1.529  16.836  0.8284  0.7216  0.2020
17752TIP3    H274748   3.974   1.484  16.962  0.2632  0.4921 -0.1917
17753TIP3   OH274749   3.992   0.022  16.576 -0.1376 -0.3276 -0.0894
17753TIP3    H174750   3.968  -0.067  16.602 -0.8480 -0.2767 -0.5583
17753TIP3    H274751   3.909   0.070  16.577  0.1987  0.2552 -0.1293
17754TIP3   OH274752   2.928   3.603  12.226  0.2245  0.0207 -0.3810
17754TIP3    H174753   3.012   3.620  12.184 -0.1494  1.0895 -0.7192
17754TIP3    H274754   2.878   3.553  12.162  0.7816 -1.0685  0.0219
17755TIP3   OH274755   3.785   5.457  14.839 -0.2109  1.2480 -0.2744
17755TIP3    H174756   3.743   5.466  14.753 -0.5480  0.7238 -0.1631
17755TIP3    H274757   3.713   5.467  14.902  0.0321  1.6120 -0.0477
17756TIP3   OH274758   3.809   2.004   1.116 -0.2226 -0.1415  0.4086
17756TIP3    H174759   3.847   2.030   1.200  0.0732  1.1998 -0.1315
17756TIP3    H274760   3.742   1.939   1.140  0.0248  0.0412  1.6570
17757TIP3   OH274761   4.665   4.230   4.538  0.1169 -0.6794 -0.6974
17757TIP3    H174762   4.698   4.243   4.628 -1.6577 -0.5156 -0.0581
17757TIP3    H274763   4.673   4.317   4.498  0.8648 -0.7382 -0.6968
17758TIP3   OH274764   5.163   0.391  12.596 -0.2588  0.5958 -0.0894
17758TIP3    H174765   5.195   0.308  12.631 -0.7637  0.3680 -0.1540
17758TIP3    H274766   5.219   0.457  12.636  0.0954  0.2305  0.0270
17759TIP3   OH274767   5.577   5.794   1.488  0.6639  0.1860  1.1215
17759TIP3    H174768   5.485   5.817   1.502  0.4495  0.7427 -0.9948
17759TIP3    H274769   5.578   5.752   1.402  2.3186 -0.3242  1.3737
17760TIP3   OH274770   3.628   5.959  10.457  0.0103 -0.0588  0.2110
17760TIP3    H174771   3.691   5.899  10.417  1.4665  0.3093  1.8811
17760TIP3    H274772   3.556   5.965  10.394  1.8717 -0.1182 -1.9646
17761TIP3   OH274773   6.813   0.232   5.890 -0.0533 -0.0288 -0.3855
17761TIP3    H174774   6.735   0.180   5.870 -0.6129 -0.2644  2.1960
17761TIP3    H274775   6.867   0.175   5.944  1.0498  0.7833 -0.6030
17762TIP3   OH274776   6.588   6.552  11.236  0.1976 -0.9945 -0.0724
17762TIP3    H174777   6.561   6.460  11.231  0.1992 -0.9012 -2.1992
17762TIP3    H274778   6.681   6.549  11.257 -0.0458 -1.4537  0.9550
17763TIP3   OH274779   6.615   5.975  14.008  0.3627  1.2771 -0.5378
17763TIP3    H174780   6.674   5.924  14.063 -0.0772  0.8229 -0.4825
17763TIP3    H274781   6.648   5.963  13.919  0.0019  0.5250 -0.5784
17764TIP3   OH274782   5.441   1.674  17.180 -0.2859 -0.0974 -0.1089
17764TIP3    H174783   5.424   1.766  17.199  0.6766  0.1515 -0.4011
17764TIP3    H274784   5.510   1.676  17.113 -1.7388 -0.9840 -1.6969
17765TIP3   OH274785   1.358   0.962   2.438  1.0883  0.3055  0.3974
17765TIP3    H174786   1.319   0.880   2.408 -0.3586  0.9009  0.6303
17765TIP3    H274787   1.452   0.951   2.420  0.5359 -0.1231 -2.5855
17766TIP3   OH274788   6.459   0.028   1.417 -0.3976 -0.0546  0.5431
17766TIP3    H174789   6.380   0.023   1.470 -1.2554 -1.9672 -0.8514
17766TIP3    H274790   6.434   0.079   1.341 -0.2674 -0.5944  0.1355
17767TIP3   OH274791   6.458   6.067  17.286 -0.0712 -0.1094  0.2492
17767TIP3    H174792   6.418   5.997  17.236  1.5056 -1.2125  0.4877
17767TIP3    H274793   6.478   6.027  17.371  0.4521  0.7345  0.5330
17768TIP3   OH274794   6.219   0.240  15.612 -0.5837 -0.4872 -0.3582
17768TIP3    H174795   6.298   0.195  15.582  0.7745  0.6861  1.3733
17768TIP3    H274796   6.215   0.318  15.556  0.5371  0.4018  0.7770
17769TIP3   OH274797   0.024   2.254   5.250  0.3136 -0.0100 -0.1918
17769TIP3    H174798   0.118   2.238   5.253  0.3883  0.4315 -0.1182
17769TIP3    H274799   0.008   2.315   5.322  0.1916  1.0440 -1.1001
17770TIP3   OH274800   6.306   1.373   4.574  0.2801  0.7851  0.0772
17770TIP3    H174801   6.343   1.450   4.618  0.7580  0.7341 -0.2301
17770TIP3    H274802   6.368   1.303   4.594 -0.0438  0.5265  0.1760
17771TIP3   OH274803   0.210   2.123  15.356  0.4758  0.0154  0.2465
17771TIP3    H174804   0.191   2.087  15.442 -0.1327  1.6505  0.8195
17771TIP3    H274805   0.188   2.053  15.295  0.9514 -1.1718  1.4118
17772TIP3   OH274806   5.200   4.301  10.573 -0.1439  0.2483  0.0219
17772TIP3    H174807   5.236   4.278  10.487 -1.3455  0.8385 -0.6491
17772TIP3    H274808   5.246   4.381  10.598 -1.5236  1.4665 -1.2113
17773TIP3   OH274809   0.707   1.171   3.122 -0.3999 -0.4450 -0.2976
17773TIP3    H174810   0.716   1.090   3.072 -1.5313 -0.0312 -1.1933
17773TIP3    H274811   0.615   1.195   3.111 -0.0435  1.0093 -0.1265
17774TIP3   OH274812   5.669   1.554  13.866  0.0079  0.2024 -0.4560
17774TIP3    H174813   5.574   1.540  13.866  0.2078 -1.3229  0.3767
17774TIP3    H274814   5.692   1.562  13.959  0.7680  0.0161 -0.6205
17775TIP3   OH274815   3.869   0.427   4.207 -0.3593  0.4354  0.0434
17775TIP3    H174816   3.830   0.341   4.221 -1.0011  0.9267  1.3513
17775TIP3    H274817   3.963   0.414   4.224 -0.2723 -0.2596 -0.9448
17776TIP3   OH274818   2.786   1.999  15.831 -0.5368 -0.4370 -0.0609
17776TIP3    H174819   2.758   1.908  15.842  0.5933 -0.8599 -0.5812
17776TIP3    H274820   2.858   1.994  15.768  0.3612  0.6762  0.8528
17777TIP3   OH274821   3.350   5.910   3.165  0.4713  0.4736 -0.2047
17777TIP3    H174822   3.303   5.909   3.248 -0.1354  0.7658 -0.5388
17777TIP3    H274823   3.308   5.980   3.114  1.4433  0.9208 -0.4073
17778TIP3   OH274824   1.082   2.711   6.504  0.5765 -0.0785 -0.6122
17778TIP3    H174825   1.018   2.671   6.562 -0.1927  0.0163 -1.3765
17778TIP3    H274826   1.167   2.695   6.546  0.1805 -1.4509 -0.3150
17779TIP3   OH274827   3.965   0.695  11.451  0.1600 -0.2726  0.4332
17779TIP3    H174828   3.991   0.713  11.361 -0.8708 -1.1627 -0.0520
17779TIP3    H274829   3.913   0.771  11.477 -0.2984 -0.4206 -0.0392
17780TIP3   OH274830   2.814   1.957   4.044  0.2560 -0.0340  0.2089
17780TIP3    H174831   2.887   1.928   3.989  0.8777  3.7419 -1.0797
17780TIP3    H274832   2.855   1.979   4.128 -0.1853 -2.4012  1.1085
17781TIP3   OH274833   5.860   5.291  13.509  0.5202  0.1632 -0.0176
17781TIP3    H174834   5.830   5.251  13.427  1.1572  0.2495 -0.2906
17781TIP3    H274835   5.878   5.382  13.486 -1.1182  0.6785  0.6465
17782TIP3   OH274836   4.154   1.469   6.192 -0.5527  0.6805 -0.4673
17782TIP3    H174837   4.191   1.557   6.187 -1.7981  1.1114 -2.0799
17782TIP3    H274838   4.099   1.470   6.270  2.1285  0.2800  1.4953
17783TIP3   OH274839   5.014   4.954  13.699 -0.1579  0.0190  0.3071
17783TIP3    H174840   4.984   4.885  13.640 -1.6443  0.5792  0.4019
17783TIP3    H274841   5.026   5.031  13.643  2.1936 -0.4773  0.0737
17784TIP3   OH274842   2.245   2.812   0.253  0.2469  0.3747 -0.8419
17784TIP3    H174843   2.257   2.817   0.348  1.5470 -0.0628 -0.9708
17784TIP3    H274844   2.332   2.792   0.219 -0.5033 -0.9605 -2.0211
17785TIP3   OH274845   4.499   1.787   0.154 -0.0769 -0.4903  0.5775
17785TIP3    H174846   4.546   1.819   0.231 -0.2784  1.2673 -0.0074
17785TIP3    H274847   4.534   1.839   0.082  1.8405 -3.7703 -0.9379
17786TIP3   OH274848   4.987   5.454   4.889  0.4306  0.2627  0.6071
17786TIP3    H174849   5.055   5.505   4.847  0.9137 -1.0643 -0.2608
17786TIP3    H274850   5.026   5.425   4.972  0.3787  0.7822  0.8102
17787TIP3   OH274851   1.715   3.299   4.538  0.7640  0.2616 -0.1319
17787TIP3    H174852   1.623   3.317   4.518  0.9360  2.1610  0.6636
17787TIP3    H274853   1.744   3.238   4.469 -1.1855 -0.6663 -0.1490
17788TIP3   OH274854   5.983   1.711   2.955  0.1573 -0.4618  0.1585
17788TIP3    H174855   5.957   1.770   2.884  1.9797  0.2471  0.0384
17788TIP3    H274856   6.077   1.726   2.965  0.0122 -0.8998  2.4123
17789TIP3   OH274857   0.365   0.349  16.731 -0.0634 -0.0712  0.0853
17789TIP3    H174858   0.390   0.306  16.812 -1.6356  0.7189  1.0182
17789TIP3    H274859   0.404   0.436  16.736 -1.3010  0.4578  0.6266
17790TIP3   OH274860   6.626   6.459   5.680  0.3469 -0.5481  0.3018
17790TIP3    H174861   6.631   6.367   5.705  0.4616 -0.7590 -0.4799
17790TIP3    H274862   6.535   6.484   5.697  0.4035 -0.7056  0.8479
17791TIP3   OH274863   6.756   1.161   4.256  0.3486  0.0489 -0.8528
17791TIP3    H174864   6.786   1.111   4.180  2.3347 -1.9998  1.1681
17791TIP3    H274865   6.669   1.126   4.275  0.7893 -1.0681 -0.8235
17792TIP3   OH274866   2.016   1.364   1.983  0.3319  0.8206 -0.0781
17792TIP3    H174867   2.090   1.373   1.923 -0.7826  0.4844 -1.5298
17792TIP3    H274868   1.987   1.454   1.998  0.2650  0.8642 -0.4739
17793TIP3   OH274869   2.290   4.755   0.602  0.4840  0.4409 -0.1782
17793TIP3    H174870   2.335   4.831   0.565 -0.8285  0.8613 -0.9292
17793TIP3    H274871   2.299   4.687   0.536 -0.4906  0.7078 -0.5904
17794TIP3   OH274872   2.800   1.696   1.667 -0.3491 -0.5380  0.1304
17794TIP3    H174873   2.877   1.745   1.638 -1.4908  1.8010  0.9046
17794TIP3    H274874   2.812   1.688   1.762 -1.5853  0.8403  0.4202
17795TIP3   OH274875   6.714   0.906   1.811  0.3643  0.2045 -0.3589
17795TIP3    H174876   6.637   0.874   1.858 -1.3872  3.8298 -0.6407
17795TIP3    H274877   6.717   0.851   1.732 -1.8510 -0.0955 -0.2854
17796TIP3   OH274878   4.068   3.710   2.401  0.0824  0.2827  0.0723
17796TIP3    H174879   4.157   3.742   2.389 -0.3173  1.0531 -0.8907
17796TIP3    H274880   4.012   3.784   2.377 -0.8611 -0.9883 -1.7668
17797TIP3   OH274881   1.897   1.147   0.219 -0.4984  0.1702 -0.2256
17797TIP3    H174882   1.825   1.170   0.277 -0.9236  1.0417 -1.0737
17797TIP3    H274883   1.883   1.202   0.141  0.6263 -0.2361 -0.7237
17798TIP3   OH274884   2.617   5.515   6.370  0.1155  0.4419  0.1129
17798TIP3    H174885   2.632   5.513   6.275 -0.6754 -2.7953 -0.0148
17798TIP3    H274886   2.703   5.497   6.408  0.1554  0.3546 -0.0186
17799TIP3   OH274887   2.545   5.658   3.517 -0.5034 -0.4136 -0.0281
17799TIP3    H174888   2.583   5.697   3.438 -2.1761 -0.4735 -0.8927
17799TIP3    H274889   2.575   5.568   3.516 -0.5495 -0.4270 -0.6439
17800TIP3   OH274890   1.990   5.722   4.882 -0.0500 -0.3165  0.2560
17800TIP3    H174891   1.992   5.777   4.961 -1.3308  1.4678 -0.8935
17800TIP3    H274892   1.897   5.717   4.859  0.2677 -1.1972 -0.8788
17801TIP3   OH274893   5.236   2.887  13.413  0.3267 -0.1829 -0.3915
17801TIP3    H174894   5.161   2.873  13.356 -0.6578  0.6604  0.6735
17801TIP3    H274895   5.288   2.955  13.369  0.2722 -0.4944 -0.9388
17802TIP3   OH274896   5.806   0.902   2.081  0.0944  0.3644 -0.4601
17802TIP3    H174897   5.776   0.827   2.030  0.3442  0.2779 -0.4796
17802TIP3    H274898   5.740   0.969   2.066 -0.7817 -0.2526  0.5279
17803TIP3   OH274899   6.644   3.096   3.299  0.5769 -0.2788 -0.1034
17803TIP3    H174900   6.590   3.146   3.239  2.2453  1.9060  0.1768
17803TIP3    H274901   6.711   3.055   3.244  0.5954 -0.3304 -0.0438
17804TIP3   OH274902   1.730   3.009   5.603  0.2322 -0.1069  0.1087
17804TIP3    H174903   1.654   2.989   5.658 -0.5879 -1.4096 -1.4253
17804TIP3    H274904   1.700   3.079   5.546  0.1755 -0.6032 -0.4785
17805TIP3   OH274905   0.632   3.435  12.254 -0.2362 -0.2794  0.6004
17805TIP3    H174906   0.673   3.352  12.279  0.7279  0.1652  0.4993
17805TIP3    H274907   0.695   3.502  12.278 -1.0863  0.4502  0.8347
17806TIP3   OH274908   1.840   4.848   4.022 -0.2559  0.6121 -0.1663
17806TIP3    H174909   1.796   4.767   4.049  0.7543  0.0515 -0.1607
17806TIP3    H274910   1.802   4.916   4.077 -0.4870 -0.0069  0.4375
17807TIP3   OH274911   3.712   2.108  11.726 -0.2765  0.2122  0.0935
17807TIP3    H174912   3.736   2.133  11.637  0.3599  0.7269  0.4049
17807TIP3    H274913   3.705   2.191  11.773 -0.0232 -0.0960  0.6719
17808TIP3   OH274914   0.158   1.620   3.891  0.0401 -0.0068  0.0195
17808TIP3    H174915   0.105   1.543   3.912  0.0890  0.1309  0.6674
17808TIP3    H274916   0.241   1.606   3.937  0.3920 -0.0019 -0.6127
17809TIP3   OH274917   3.670   5.811  17.188  0.0673 -1.1655 -0.0015
17809TIP3    H174918   3.679   5.716  17.192  0.6731 -1.0516  3.3406
17809TIP3    H274919   3.575   5.826  17.192  0.0736 -1.6072  3.1048
17810TIP3   OH274920   1.381   5.144   4.852 -0.2746  0.2700 -0.1590
17810TIP3    H174921   1.440   5.069   4.857  0.3272  0.7114 -0.4815
17810TIP3    H274922   1.352   5.145   4.761 -1.5967 -0.5618  0.2564
17811TIP3   OH274923   2.477   4.457  11.232 -0.3421 -0.8486  0.0697
17811TIP3    H174924   2.560   4.498  11.208  0.0942 -0.3336  2.3113
17811TIP3    H274925   2.483   4.369  11.197  1.6529 -1.1865  1.1446
17812TIP3   OH274926   2.948   0.663   0.804  0.0952  0.0215  0.6626
17812TIP3    H174927   2.917   0.573   0.813  2.7702 -1.0656 -0.6104
17812TIP3    H274928   3.009   0.675   0.877  1.9034 -0.1597 -0.7876
17813TIP3   OH274929   5.585   1.914  15.107 -1.0321  0.1114  0.1919
17813TIP3    H174930   5.654   1.928  15.172 -0.3752  0.5418 -0.5962
17813TIP3    H274931   5.613   1.837  15.058 -0.5125  1.0031 -0.9188
17814TIP3   OH274932   0.352   1.211  15.229  0.0667 -0.2303 -0.0470
17814TIP3    H174933   0.299   1.287  15.255  0.5875  0.6728 -1.5770
17814TIP3    H274934   0.354   1.215  15.134 -1.8516 -3.5283 -0.2797
17815TIP3   OH274935   4.055   4.195   5.378  0.3100  0.4018  0.0314
17815TIP3    H174936   4.082   4.286   5.369  0.9337  0.1837 -0.2801
17815TIP3    H274937   3.985   4.197   5.444 -0.9713  1.3497 -1.3175
17816TIP3   OH274938   1.194   5.143  12.756 -0.0587  0.0109  0.1945
17816TIP3    H174939   1.166   5.226  12.796  0.2459 -0.7643  2.0743
17816TIP3    H274940   1.114   5.091  12.752 -0.6552  1.0632 -2.7864
17817TIP3   OH274941   6.427   3.111  12.425  0.4538  0.2321  0.5998
17817TIP3    H174942   6.518   3.122  12.397  0.0488  0.2728 -0.7131
17817TIP3    H274943   6.386   3.196  12.412  0.0920  0.0817  0.7252
17818TIP3   OH274944   1.477   4.207   3.204 -0.2543  0.3493 -0.3275
17818TIP3    H174945   1.467   4.301   3.189 -0.6587  0.4795  0.7543
17818TIP3    H274946   1.395   4.180   3.244  0.4702 -0.1638  0.8361
17819TIP3   OH274947   1.867   5.686   3.531 -0.4597 -0.2981  0.0526
17819TIP3    H174948   1.900   5.757   3.586 -0.3182  0.3588 -0.8618
17819TIP3    H274949   1.774   5.680   3.551 -0.9243  1.5942 -1.4176
17820TIP3   OH274950   0.022   6.215  11.129 -0.0964  0.1326  0.1395
17820TIP3    H174951  -0.063   6.183  11.099  0.7935  0.1066 -2.5206
17820TIP3    H274952   0.004   6.304  11.160 -1.0022  0.3261 -0.8933
17821TIP3   OH274953   0.733   4.230   4.074  0.0299  0.3807 -0.2737
17821TIP3    H174954   0.702   4.314   4.107 -0.2075 -0.2745  1.1978
17821TIP3    H274955   0.815   4.214   4.120 -0.5454 -0.7605  0.4045
17822TIP3   OH274956   5.968   5.904   3.424  0.6034  0.0661  0.4156
17822TIP3    H174957   5.978   5.949   3.341  1.8398 -0.8936  0.0304
17822TIP3    H274958   5.919   5.824   3.402  1.6062 -0.5735  0.4574
17823TIP3   OH274959   3.350   4.787   3.320  0.0269  0.1863  0.8598
17823TIP3    H174960   3.351   4.701   3.278  0.3635 -0.2614  1.7778
17823TIP3    H274961   3.415   4.781   3.391 -0.1095  1.1189  1.0792
17824TIP3   OH274962   4.551   3.444   1.966 -0.5612 -0.0036  0.1712
17824TIP3    H174963   4.643   3.433   1.991 -1.1455 -0.2159  2.3231
17824TIP3    H274964   4.511   3.359   1.982 -1.0650 -0.0352 -1.1711
17825TIP3   OH274965   4.233   1.058  16.065 -0.1667  0.2249  0.3903
17825TIP3    H174966   4.299   1.114  16.104 -0.4358  1.3710 -0.7626
17825TIP3    H274967   4.151   1.084  16.106 -0.4685  1.5183 -1.0027
17826TIP3   OH274968   3.158   4.969  13.259 -0.3225  0.6134  0.9660
17826TIP3    H174969   3.226   4.915  13.300 -0.3434 -0.1052  0.0787
17826TIP3    H274970   3.079   4.949  13.310  0.0857  1.3128  1.8842
17827TIP3   OH274971   3.267   0.436   5.249  0.0866 -0.6614 -0.2389
17827TIP3    H174972   3.182   0.433   5.294  0.7959  1.8621  1.3862
17827TIP3    H274973   3.264   0.517   5.199  1.7535 -0.2454  0.3142
17828TIP3   OH274974   5.860   0.939   1.711 -0.2267  0.0417 -0.1068
17828TIP3    H174975   5.884   0.883   1.638  0.8328 -0.3021  0.4862
17828TIP3    H274976   5.811   1.011   1.672 -2.7107 -1.9200 -0.7372
17829TIP3   OH274977   5.585   1.016  13.868  0.1102 -0.1827 -0.1932
17829TIP3    H174978   5.492   1.006  13.889 -0.0646 -0.2014 -0.9629
17829TIP3    H274979   5.590   1.000  13.774  0.4542  2.5705 -0.7085
17830TIP3   OH274980   6.467   1.478   0.417 -1.0024 -0.3607 -0.1800
17830TIP3    H174981   6.525   1.470   0.492 -1.5247  0.3514  0.3020
17830TIP3    H274982   6.519   1.448   0.342  0.0239  0.4151  0.2285
17831TIP3   OH274983   2.957   6.552  13.923 -0.4248 -0.2015  0.2474
17831TIP3    H174984   2.970   6.619  13.990 -1.3335 -0.9919  1.2309
17831TIP3    H274985   3.045   6.524  13.900  0.0248  2.3870 -1.2626
17832TIP3   OH274986   0.281   6.399   4.607 -0.3930 -0.3581 -0.1659
17832TIP3    H174987   0.318   6.420   4.693  1.7307  0.0715 -1.1504
17832TIP3    H274988   0.311   6.310   4.589 -0.6034 -0.3468 -0.5681
17833TIP3   OH274989   4.282   3.489   1.840 -0.0658 -0.8547 -0.3433
17833TIP3    H174990   4.280   3.480   1.745  1.0047 -3.7588 -0.1398
17833TIP3    H274991   4.339   3.419   1.870  0.0628  0.3539  2.4242
17834TIP3   OH274992   4.456   0.143  12.185  0.6884 -0.1518  0.6628
17834TIP3    H174993   4.365   0.134  12.215  1.1000  0.1909  2.0562
17834TIP3    H274994   4.450   0.140  12.090 -0.5078 -2.6731  0.7739
17835TIP3   OH274995   4.867   5.316   2.379 -0.1450  0.7731 -0.1297
17835TIP3    H174996   4.809   5.387   2.406  0.0383  1.5384 -1.6862
17835TIP3    H274997   4.948   5.360   2.354  1.3044 -0.3166  2.4506
17836TIP3   OH274998   5.681   2.174   1.314  0.0916 -0.0412 -0.1370
17836TIP3    H174999   5.640   2.102   1.363 -0.0469  0.4183  0.4309
17836TIP3    H275000   5.665   2.153   1.222 -0.4263 -0.4563  0.0445
17837TIP3   OH275001   2.615   6.130  12.752  0.1470  0.1446 -0.3343
17837TIP3    H175002   2.592   6.150  12.661 -0.1106 -2.5503 -0.9003
17837TIP3    H275003   2.550   6.178  12.804  0.8115  2.4034 -1.4899
17838TIP3   OH275004   2.807   3.857   1.178  0.2347 -0.5292  0.1476
17838TIP3    H175005   2.804   3.950   1.197  1.9157  0.4177 -3.5869
17838TIP3    H275006   2.890   3.827   1.216  0.0339 -0.3144  0.7443
17839TIP3   OH275007   3.472   6.053   2.709  0.5851  0.1508 -0.1209
17839TIP3    H175008   3.494   5.960   2.718  1.4542  0.4594  1.1466
17839TIP3    H275009   3.478   6.070   2.615 -2.8877 -1.8575 -0.7842
17840TIP3   OH275010   4.655   6.393   4.770  0.2433  0.0799  0.1626
17840TIP3    H175011   4.563   6.411   4.751 -0.1611 -1.8187  0.2148
17840TIP3    H275012   4.700   6.402   4.686 -0.4343 -1.5458 -0.4008
17841TIP3   OH275013   1.348   4.517  12.918 -0.3674 -0.9798 -0.1847
17841TIP3    H175014   1.434   4.555  12.940 -0.1615 -0.9246 -1.0426
17841TIP3    H275015   1.369   4.433  12.878 -0.6695 -0.6518 -1.0560
17842TIP3   OH275016   5.870   3.483  13.281 -0.0305 -0.2712  0.2782
17842TIP3    H175017   5.866   3.489  13.377 -2.7206  1.3090  0.1364
17842TIP3    H275018   5.783   3.451  13.256  1.2652 -2.4656 -1.5590
17843TIP3   OH275019   5.969   0.240   5.628  1.3295 -0.0384 -0.0616
17843TIP3    H175020   5.903   0.181   5.664 -0.5960  1.3487 -1.2380
17843TIP3    H275021   5.975   0.312   5.692 -0.4489  1.2841 -1.3180
17844TIP3   OH275022   2.773   0.049  15.681 -0.2516 -0.3094 -0.1146
17844TIP3    H175023   2.842  -0.013  15.703  0.0787 -0.0617 -0.4294
17844TIP3    H275024   2.692  -0.001  15.686 -0.1325 -0.3912  1.0924
17845TIP3   OH275025   3.920   2.183   3.287  0.3371 -0.3506  0.0816
17845TIP3    H175026   3.922   2.087   3.280  1.9601 -0.1446 -3.1247
17845TIP3    H275027   3.992   2.204   3.347 -0.2678 -1.1394  1.1003
17846TIP3   OH275028   5.816   6.446   0.958  0.1058  0.2824  0.0496
17846TIP3    H175029   5.811   6.448   1.053 -0.2723 -0.8787  0.0683
17846TIP3    H275030   5.776   6.529   0.930  0.8811  0.9554  0.9105
17847TIP3   OH275031   2.630   1.891   1.581  0.2039  0.2010  0.3430
17847TIP3    H175032   2.604   1.953   1.650 -0.3811 -0.4272  0.6887
17847TIP3    H275033   2.685   1.827   1.626  0.9454  0.5511 -0.0514
17848TIP3   OH275034   2.013   4.526   3.626  0.3302  0.2027  0.4054
17848TIP3    H175035   2.059   4.610   3.637  1.5059 -0.5202  1.1803
17848TIP3    H275036   1.965   4.536   3.544 -0.0787  1.8782  0.8313
17849TIP3   OH275037   0.174   1.635  13.710  0.8791 -0.3252  0.1205
17849TIP3    H175038   0.111   1.692  13.665  1.7072  1.7630  1.4935
17849TIP3    H275039   0.191   1.564  13.648 -0.6130  0.6313 -1.4389
17850TIP3   OH275040   5.517   1.081  14.814 -0.6554 -0.3487  0.6447
17850TIP3    H175041   5.597   1.131  14.829 -0.8231 -0.3357  1.5242
17850TIP3    H275042   5.472   1.081  14.899 -1.4638 -0.5690  0.2260
17851TIP3   OH275043   5.578   1.258  14.040  0.2666  0.3825 -0.7021
17851TIP3    H175044   5.655   1.245  14.095 -0.1409 -0.3656 -0.3144
17851TIP3    H275045   5.574   1.180  13.984 -0.7984 -0.0651 -0.0168
17852TIP3   OH275046   4.690   3.433  11.321 -0.3838 -1.0828 -0.1711
17852TIP3    H175047   4.765   3.383  11.353  0.9521  1.0737  0.1664
17852TIP3    H275048   4.711   3.451  11.229 -0.5686 -0.6098 -0.1203
17853TIP3   OH275049   6.018   4.630  12.836 -0.2211  0.8553  0.1882
17853TIP3    H175050   6.055   4.660  12.753  0.3929 -1.7840 -0.5491
17853TIP3    H275051   6.080   4.660  12.902  1.7180 -0.9543 -0.7632
17854TIP3   OH275052   4.321   6.473  12.899  0.3872  0.2958 -0.2429
17854TIP3    H175053   4.384   6.464  12.827 -0.6551 -1.6286 -0.9536
17854TIP3    H275054   4.265   6.546  12.872  0.2079 -0.1939 -1.2541
17855TIP3   OH275055   1.133   4.179  15.824 -0.5237  0.1299 -0.3491
17855TIP3    H175056   1.089   4.210  15.903  0.7817 -0.6259  0.7004
17855TIP3    H275057   1.226   4.184  15.846 -0.1323  0.4281 -2.0448
17856TIP3   OH275058   5.562   4.595  11.965  0.0709 -0.0403  0.7882
17856TIP3    H175059   5.599   4.591  11.876  0.1282  0.2926  0.7962
17856TIP3    H275060   5.527   4.508  11.980 -0.4325  0.0550  0.2268
17857TIP3   OH275061   4.021   0.196   3.635 -0.0742  0.4741  0.4570
17857TIP3    H175062   3.933   0.182   3.600  0.0751  0.1427  0.2077
17857TIP3    H275063   4.022   0.148   3.718  0.0279  0.0697  0.2227
17858TIP3   OH275064   2.334   1.783  15.639 -0.1229 -0.0762  0.2702
17858TIP3    H175065   2.351   1.716  15.705 -1.4777 -0.5552  0.1386
17858TIP3    H275066   2.317   1.863  15.689  2.7391  0.5024  0.4093
17859TIP3   OH275067   5.485   5.760  15.818 -0.4971 -0.1332  0.5607
17859TIP3    H175068   5.450   5.729  15.902  0.8974  0.6478  1.4418
17859TIP3    H275069   5.441   5.705  15.753 -1.2367 -1.0842  1.8273
17860TIP3   OH275070   4.769   5.923   3.231  0.3568 -0.2892 -0.3104
17860TIP3    H175071   4.779   5.968   3.315 -0.1925  1.1345 -0.9799
17860TIP3    H275072   4.722   5.842   3.253  0.1777  0.0826  0.7489
17861TIP3   OH275073   4.879   4.966   4.017  0.5493  0.0730  0.0433
17861TIP3    H175074   4.945   5.019   4.061  1.3112 -1.3043  0.6074
17861TIP3    H275075   4.928   4.910   3.957 -0.1343 -0.6847  0.1750
17862TIP3   OH275076   4.995   0.087  15.358 -0.4489  0.2127  0.4373
17862TIP3    H175077   4.954   0.087  15.271  1.5243 -1.4186 -0.5355
17862TIP3    H275078   4.922   0.069  15.418 -1.4135 -1.3586 -1.1359
17863TIP3   OH275079   5.782   1.817   1.042 -0.0881 -0.4216 -0.5746
17863TIP3    H175080   5.812   1.834   1.131  0.3243 -2.6084 -0.2749
17863TIP3    H275081   5.748   1.902   1.011 -1.0467  0.1388  1.9544
17864TIP3   OH275082   3.848   3.426   0.712 -0.0653 -0.4280  0.1173
17864TIP3    H175083   3.904   3.357   0.674 -0.3439 -0.4182 -0.3149
17864TIP3    H275084   3.770   3.426   0.657 -0.1864  0.0447  0.2905
17865TIP3   OH275085   2.673   2.275   2.673  0.1648 -0.3731 -0.3958
17865TIP3    H175086   2.613   2.344   2.703  1.5711  0.1244  1.3837
17865TIP3    H275087   2.630   2.193   2.696 -1.0008 -0.0937 -1.4967
17866TIP3   OH275088   5.782   6.764   4.811 -0.0017 -0.1699 -0.2375
17866TIP3    H175089   5.695   6.747   4.849  0.6592 -1.9262  0.5173
17866TIP3    H275090   5.812   6.679   4.780  0.8090  0.7133 -1.9159
17867TIP3   OH275091   6.089   1.856  10.957 -0.0953 -0.3134 -0.1159
17867TIP3    H175092   6.066   1.823  10.871  0.5239 -2.0476  0.3564
17867TIP3    H275093   6.038   1.803  11.018 -0.1804  0.5851  0.6124
17868TIP3   OH275094   1.287   6.777   5.254  0.4874 -0.0880  0.5671
17868TIP3    H175095   1.246   6.804   5.336 -1.0641  0.9230 -0.4978
17868TIP3    H275096   1.309   6.859   5.211  2.5614 -0.6219  0.5658
17869TIP3   OH275097   6.505   3.667   3.182 -0.1653  0.4769 -0.1125
17869TIP3    H175098   6.538   3.642   3.096  0.8751 -0.0063  0.4022
17869TIP3    H275099   6.484   3.584   3.225  0.3318  0.6385  0.4696
17870TIP3   OH275100   2.820   4.865  14.587 -0.0161 -0.1775  0.0155
17870TIP3    H175101   2.795   4.923  14.659  1.0723  0.3099  0.0005
17870TIP3    H275102   2.872   4.919  14.528 -0.6808 -0.6459 -1.0104
17871TIP3   OH275103   3.938   3.802  13.605  0.2047 -0.6260 -0.3234
17871TIP3    H175104   3.847   3.800  13.576  0.7037  0.1544 -2.0144
17871TIP3    H275105   3.971   3.714  13.590  0.2798 -0.3916 -1.5902
17872TIP3   OH275106   5.672   3.853   4.239 -0.0602 -0.0695  0.6000
17872TIP3    H175107   5.657   3.818   4.326 -1.8893 -0.8052  0.0253
17872TIP3    H275108   5.666   3.777   4.181  0.0307  0.5778 -0.2697
17873TIP3   OH275109   4.146   1.235   2.233 -0.1454 -1.0556 -0.2221
17873TIP3    H175110   4.164   1.166   2.298 -0.9512 -1.5555 -0.5266
17873TIP3    H275111   4.115   1.188   2.156 -1.0334 -0.3259 -0.3166
17874TIP3   OH275112   2.032   4.410   4.198  0.4529 -0.0752  0.2396
17874TIP3    H175113   2.089   4.356   4.143  0.4423 -0.4204  0.5621
17874TIP3    H275114   1.970   4.348   4.236  0.5087  0.1500  0.7010
17875TIP3   OH275115   3.957   0.077  14.287 -1.1652 -0.5208  0.1422
17875TIP3    H175116   3.983   0.145  14.226  0.8263 -1.6982 -0.3399
17875TIP3    H275117   3.991   0.106  14.372 -0.4858 -0.8128 -0.0277
17876TIP3   OH275118   2.206   5.111  15.232 -0.0965  0.6500  0.1928
17876TIP3    H175119   2.240   5.090  15.320  0.9324 -0.0526 -0.3614
17876TIP3    H275120   2.121   5.151  15.249  0.7997  2.0807  1.6115
17877TIP3   OH275121   2.750   6.606  15.165 -0.3082  0.4172 -0.1753
17877TIP3    H175122   2.706   6.680  15.122  1.0481  0.9223 -0.7244
17877TIP3    H275123   2.834   6.641  15.194  1.0230 -1.2774 -1.8166
17878TIP3   OH275124   1.458   3.915  11.184  0.1122  0.3377 -0.0766
17878TIP3    H175125   1.410   3.838  11.153 -0.6789  0.7404  0.1275
17878TIP3    H275126   1.390   3.974  11.216  0.7250  1.0703 -0.1102
17879TIP3   OH275127   4.724   3.165   2.573 -0.0828 -0.4045  0.0457
17879TIP3    H175128   4.718   3.222   2.650 -3.4114 -1.7430  0.8858
17879TIP3    H275129   4.758   3.083   2.607  2.3933  0.2689 -0.7206
17880TIP3   OH275130   3.271   5.765  14.418  0.3874  0.0622 -0.4143
17880TIP3    H175131   3.365   5.750  14.418  0.2581 -0.7512  0.1369
17880TIP3    H275132   3.244   5.750  14.327  0.7994  0.4311 -0.6022
17881TIP3   OH275133   1.231   1.607   4.377  0.4553 -0.0220 -0.3675
17881TIP3    H175134   1.242   1.516   4.404 -0.5776  0.0330  0.2918
17881TIP3    H275135   1.271   1.658   4.448 -0.0069  0.0559 -0.1553
17882TIP3   OH275136   1.767   2.292   6.419  0.0211 -0.7037  0.3673
17882TIP3    H175137   1.711   2.247   6.357  0.1477 -0.3791  0.0153
17882TIP3    H275138   1.854   2.291   6.379 -0.3166  1.3875 -0.4635
17883TIP3   OH275139   3.598   2.604   2.044  0.7860  0.3506 -0.0668
17883TIP3    H175140   3.585   2.602   2.139  0.8532  2.3746  0.0019
17883TIP3    H275141   3.682   2.648   2.032  0.4651  0.6940 -1.0927
17884TIP3   OH275142   5.122   5.946  11.243  0.6420 -0.2940  0.2888
17884TIP3    H175143   5.193   5.969  11.303  1.4825 -3.9401  0.8000
17884TIP3    H275144   5.096   5.858  11.269 -1.3262 -0.6103 -2.5283
17885TIP3   OH275145   5.422   4.133   4.416  0.0801  0.2059  0.4436
17885TIP3    H175146   5.337   4.089   4.425  0.0683  0.4743  1.7190
17885TIP3    H275147   5.482   4.078   4.467  1.2867 -1.5710 -2.7464
17886TIP3   OH275148   5.298   4.753  11.113  0.5648  0.1807 -0.3471
17886TIP3    H175149   5.209   4.788  11.103  0.7569  0.7620 -0.0807
17886TIP3    H275150   5.346   4.789  11.038  0.1251 -1.6167 -1.5027
17887TIP3   OH275151   1.738   5.068   4.897 -0.8060 -0.0202 -0.7481
17887TIP3    H175152   1.719   5.157   4.925  1.8983  1.1114 -2.3013
17887TIP3    H275153   1.652   5.027   4.885 -2.1351  2.9501 -1.7619
17888TIP3   OH275154   2.581   0.178  14.666  0.0827  0.7880  0.5760
17888TIP3    H175155   2.640   0.163  14.593  1.3157 -1.9152  2.0512
17888TIP3    H275156   2.594   0.270  14.688 -1.6224  2.1590 -3.6409
17889TIP3   OH275157   5.732   0.964  12.375  0.3125 -0.0202 -0.1059
17889TIP3    H175158   5.774   1.017  12.307 -1.3325 -0.6042 -1.5885
17889TIP3    H275159   5.692   0.891  12.328 -1.8786  0.2077  1.3365
17890TIP3   OH275160   0.735   6.229  17.137  0.4754 -0.1408 -0.0440
17890TIP3    H175161   0.831   6.236  17.129  0.5228  1.6914  1.6372
17890TIP3    H275162   0.701   6.295  17.076  0.3543  0.4151  0.6125
17891TIP3   OH275163   6.288   3.962   4.519  0.0533  0.4057 -0.2856
17891TIP3    H175164   6.352   3.929   4.582 -0.3569 -0.8383 -0.4974
17891TIP3    H275165   6.336   3.965   4.436  0.0381  0.1411 -0.3042
17892TIP3   OH275166   0.396   6.326   2.089 -0.3790  0.5198  0.4530
17892TIP3    H175167   0.322   6.340   2.031 -1.1076  0.5976  1.3974
17892TIP3    H275168   0.450   6.261   2.043 -1.9662 -0.9346  0.5898
17893TIP3   OH275169   2.798   0.839  10.646  0.5689  0.5815  0.5684
17893TIP3    H175170   2.830   0.899  10.579  2.0527  1.0623  1.6531
17893TIP3    H275171   2.871   0.778  10.660 -1.0127 -1.6500 -0.6823
17894TIP3   OH275172   4.004   0.609  13.780 -0.1956  0.4332  0.1026
17894TIP3    H175173   3.958   0.590  13.861 -0.2734  0.5700  0.0903
17894TIP3    H275174   3.940   0.654  13.725 -0.3079 -0.1418 -0.2416
17895TIP3   OH275175   3.368   5.936  12.499  0.5474  0.2460 -0.1355
17895TIP3    H175176   3.451   5.983  12.488 -0.1445  1.3455 -0.7387
17895TIP3    H275177   3.341   5.956  12.589  0.8094  0.0966 -0.0250
17896TIP3   OH275178   0.144   5.850   1.435 -0.5338 -0.0041 -0.6911
17896TIP3    H175179   0.073   5.829   1.374 -1.3096 -0.4823  0.3685
17896TIP3    H275180   0.116   5.813   1.518 -0.7957  3.0741  0.6428
17897TIP3   OH275181   1.137   6.753  16.985  0.1875 -0.4252 -0.0726
17897TIP3    H175182   1.085   6.830  16.962  0.4210 -0.5354 -1.0186
17897TIP3    H275183   1.137   6.700  16.905 -0.5961 -1.7661  0.8141
17898TIP3   OH275184   1.840   3.172   2.440  0.3743 -0.1259 -0.0874
17898TIP3    H175185   1.803   3.242   2.494  1.4935  0.3156  0.1372
17898TIP3    H275186   1.766   3.138   2.390 -0.1199  1.5336 -0.5310
17899TIP3   OH275187   4.800   3.363   0.196 -0.4491  0.2381 -0.5863
17899TIP3    H175188   4.800   3.277   0.154  1.7846 -0.2317  0.3098
17899TIP3    H275189   4.828   3.424   0.127  0.7583 -0.1689 -0.4587
17900TIP3   OH275190   5.963   5.167   0.548  0.1897  0.4434 -0.0369
17900TIP3    H175191   5.976   5.200   0.458 -0.0243 -2.1915 -1.0644
17900TIP3    H275192   6.048   5.180   0.590  1.1474 -0.8446 -1.5009
17901TIP3   OH275193   3.224   6.473  13.623 -0.1393 -0.0807  0.5421
17901TIP3    H175194   3.184   6.517  13.549 -0.8386  0.6008  1.3173
17901TIP3    H275195   3.302   6.526  13.643 -1.0651  0.9167  1.5738
17902TIP3   OH275196   0.375   5.335   0.387  0.6092 -0.5112  0.0625
17902TIP3    H175197   0.384   5.430   0.396  0.3350 -0.4431 -0.3329
17902TIP3    H275198   0.459   5.300   0.415  0.3516 -0.2206  1.2083
17903TIP3   OH275199   3.849   2.678  14.329  0.3082  0.7826 -0.7383
17903TIP3    H175200   3.874   2.768  14.350  1.1362  0.1724  1.0144
17903TIP3    H275201   3.770   2.663  14.380  1.0555  0.0116  0.1973
17904TIP3   OH275202   5.829   0.308  17.237 -0.1586 -0.0660 -0.5415
17904TIP3    H175203   5.766   0.369  17.200  0.3895  0.5769 -0.4328
17904TIP3    H275204   5.911   0.329  17.192  0.2122 -0.1893  0.0736
17905TIP3   OH275205   3.717   4.189  12.235 -0.6432  0.4929  0.2384
17905TIP3    H175206   3.787   4.249  12.209  0.1527 -0.7427 -0.5261
17905TIP3    H275207   3.710   4.200  12.330 -0.0605  1.3158  0.1894
17906TIP3   OH275208   0.423   1.265  14.953  0.5343 -0.0464 -0.3098
17906TIP3    H175209   0.433   1.340  14.896  0.4846 -0.8179 -1.3497
17906TIP3    H275210   0.469   1.194  14.908  0.8748 -0.5625  0.8161
17907TIP3   OH275211   0.952   0.915   6.795 -0.5953 -0.0486  0.0189
17907TIP3    H175212   1.018   0.846   6.786 -1.4309 -0.8432  0.0258
17907TIP3    H275213   0.925   0.935   6.705  1.2008  1.7957 -0.1581
17908TIP3   OH275214   5.335   5.224   1.893 -0.1104  0.1020 -0.2051
17908TIP3    H175215   5.253   5.243   1.849  1.6137  0.0056 -3.6509
17908TIP3    H275216   5.354   5.133   1.870  2.5518  1.1183 -2.3286
17909TIP3   OH275217   6.049   6.016  16.559 -0.2120  0.2647  0.1163
17909TIP3    H175218   6.019   5.977  16.641  0.1476  0.8527  0.5324
17909TIP3    H275219   6.021   5.955  16.492  1.2287 -1.2579  0.8476
17910TIP3   OH275220   3.363   0.425  11.409  0.2564 -0.0574 -0.0942
17910TIP3    H175221   3.407   0.407  11.492  0.0987  0.0472  0.0127
17910TIP3    H275222   3.274   0.450  11.434  1.1246  3.1605 -0.1065
17911TIP3   OH275223   4.655   6.575  11.468 -0.0745  0.2024 -0.3786
17911TIP3    H175224   4.691   6.569  11.379 -3.0995  2.8557 -1.8652
17911TIP3    H275225   4.610   6.492  11.481  1.1866 -0.5860 -0.9007
17912TIP3   OH275226   6.345   0.393  15.393 -0.1450 -0.3683 -0.8029
17912TIP3    H175227   6.390   0.363  15.314  1.5995  0.7266 -0.2637
17912TIP3    H275228   6.271   0.445  15.360 -1.7035 -3.0538 -1.7077
17913TIP3   OH275229   4.219   3.914   1.757  0.3609 -0.3357  0.0163
17913TIP3    H175230   4.259   3.835   1.795 -0.6972 -0.4423  0.9248
17913TIP3    H275231   4.271   3.931   1.679  0.7974 -1.7673 -0.0316
17914TIP3   OH275232   6.182   5.873   4.663 -0.0362 -0.0255 -0.2630
17914TIP3    H175233   6.128   5.894   4.587  0.3490  2.3701  0.0662
17914TIP3    H275234   6.187   5.955   4.712  2.3519 -0.6738  0.6700
17915TIP3   OH275235   2.961   2.429  17.266 -0.0230 -0.3759  0.2048
17915TIP3    H175236   2.881   2.413  17.317  0.6321 -0.2453  1.2889
17915TIP3    H275237   2.982   2.344  17.228 -2.3158  0.1931 -2.5436
17916TIP3   OH275238   5.642   2.423   4.470  0.1288 -0.0217 -0.6580
17916TIP3    H175239   5.598   2.338   4.471  0.5686 -0.2548 -0.9532
17916TIP3    H275240   5.574   2.485   4.496  0.0729 -0.5876  0.6161
17917TIP3   OH275241   5.026   6.276   5.511 -0.3764  0.2876  0.4574
17917TIP3    H175242   4.947   6.224   5.493 -0.0816  0.4485 -1.4710
17917TIP3    H275243   5.068   6.231   5.584 -0.6065 -1.6895 -0.5746
17918TIP3   OH275244   6.756   6.427  16.493  0.1936  0.2658  0.5032
17918TIP3    H175245   6.759   6.523  16.483  0.7644  0.1880 -0.1263
17918TIP3    H275246   6.733   6.395  16.406 -0.1002 -0.1674  0.7416
17919TIP3   OH275247   0.417   1.489  12.223 -0.2916  0.3921  0.7527
17919TIP3    H175248   0.497   1.504  12.274  0.2956 -0.5030  0.1049
17919TIP3    H275249   0.395   1.397  12.240 -0.5864  0.3411  0.0883
17920TIP3   OH275250   5.190   0.980  10.688  0.4348  0.2608 -0.2166
17920TIP3    H175251   5.179   0.947  10.598 -0.5187 -0.7518  0.2523
17920TIP3    H275252   5.126   1.050  10.695  1.1430  0.9508 -0.6125
17921TIP3   OH275253   4.194   6.522  15.620  0.2050 -0.3894  0.3424
17921TIP3    H175254   4.139   6.470  15.561 -1.3361 -0.4142  1.7883
17921TIP3    H275255   4.272   6.542  15.568 -0.3824 -1.8464 -1.1395
17922TIP3   OH275256   3.204   0.594  13.716 -0.6690 -0.2041  0.0700
17922TIP3    H175257   3.200   0.662  13.649 -0.4468 -1.2223 -0.9938
17922TIP3    H275258   3.262   0.528  13.680 -0.8493 -0.9512  1.1112
17923TIP3   OH275259   6.499   0.142  14.429 -0.3010  0.1944 -0.0648
17923TIP3    H175260   6.541   0.086  14.493  0.3236  0.0789 -0.5712
17923TIP3    H275261   6.412   0.103  14.416  0.8313 -1.8299 -1.8659
17924TIP3   OH275262   2.901   4.574   2.971 -0.8153 -0.0886  0.4013
17924TIP3    H175263   2.939   4.505   3.025 -0.0442 -0.4059 -0.5511
17924TIP3    H275264   2.963   4.647   2.977 -0.4249 -0.3415 -0.5524
17925TIP3   OH275265   1.833   0.343   1.964  0.3855  0.2361 -0.0319
17925TIP3    H175266   1.755   0.288   1.971  0.4553  0.3847  2.4605
17925TIP3    H275267   1.807   0.413   1.904 -0.8642 -0.5683 -0.4677
17926TIP3   OH275268   3.859   2.206  13.228  0.2327 -0.0052 -0.2662
17926TIP3    H175269   3.788   2.166  13.278 -0.3760  1.9497  0.4793
17926TIP3    H275270   3.846   2.175  13.139 -1.9972  0.8772 -0.2760
17927TIP3   OH275271   3.082   4.247  10.338 -0.3183  0.4485  0.4088
17927TIP3    H175272   3.140   4.316  10.305  0.2034  0.3815  1.1689
17927TIP3    H275273   3.135   4.199  10.401 -0.4492 -1.1073 -0.6412
17928TIP3   OH275274   4.831   3.823   0.625  0.8545  0.3198 -0.2908
17928TIP3    H175275   4.815   3.912   0.657  0.2990  0.2951 -0.4835
17928TIP3    H275276   4.744   3.782   0.623  1.1324 -0.2858 -0.0293
17929TIP3   OH275277   5.603   6.362  14.296 -0.0455  0.3253 -0.3384
17929TIP3    H175278   5.698   6.351  14.304  0.2028  1.0760 -2.0388
17929TIP3    H275279   5.570   6.346  14.384  1.6526 -0.0536  0.2540
17930TIP3   OH275280   5.127   1.119   6.533 -0.3875  0.1151 -0.3104
17930TIP3    H175281   5.083   1.182   6.476 -2.6224 -0.3670  0.8210
17930TIP3    H275282   5.081   1.127   6.617  1.7189 -0.4173  0.9294
17931TIP3   OH275283   4.445   4.657   2.267 -0.8080 -0.0198 -0.3796
17931TIP3    H175284   4.513   4.679   2.204 -0.4454 -1.2594 -0.4203
17931TIP3    H275285   4.424   4.565   2.250 -0.9176 -0.2848  1.1141
17932TIP3   OH275286   2.117   2.815   2.955  0.6381 -0.4525  0.5278
17932TIP3    H175287   2.066   2.837   2.878  4.2555  2.7890 -1.1248
17932TIP3    H275288   2.130   2.720   2.949 -1.7867 -0.7213 -1.0923
17933TIP3   OH275289   1.147   1.954   0.472 -0.3044  0.4008 -0.7120
17933TIP3    H175290   1.173   2.028   0.417 -0.5113  1.8455  1.0873
17933TIP3    H275291   1.052   1.948   0.461 -0.1719 -0.2417 -1.6095
17934TIP3   OH275292   6.221   5.280  16.674 -0.0055 -0.1126  0.3519
17934TIP3    H175293   6.205   5.324  16.591  0.1408 -1.6954 -0.5403
17934TIP3    H275294   6.278   5.207  16.652  0.0113 -0.5735  1.8443
17935TIP3   OH275295   2.528   2.681  15.678 -0.2934 -0.0569 -0.0713
17935TIP3    H175296   2.518   2.589  15.703 -0.9997  0.0407  0.0055
17935TIP3    H275297   2.574   2.721  15.752  1.4578 -0.6821 -0.7877
17936TIP3   OH275298   2.571   3.555  11.523  0.3576 -0.2558 -0.0699
17936TIP3    H175299   2.479   3.545  11.548  0.7190 -1.2955  0.8982
17936TIP3    H275300   2.583   3.492  11.452  0.0690  0.6081 -0.8906
17937TIP3   OH275301   0.880   1.546  15.615  0.4114 -0.2344  0.2047
17937TIP3    H175302   0.787   1.524  15.609 -0.0879  1.6715  0.4795
17937TIP3    H275303   0.907   1.561  15.524 -0.0357  0.9778  0.2510
17938TIP3   OH275304   1.562   3.146   3.567 -0.3602  0.2615  0.0626
17938TIP3    H175305   1.587   3.147   3.474  0.1508  0.1271  0.1945
17938TIP3    H275306   1.621   3.210   3.607  0.0859 -0.4052  0.4645
17939TIP3   OH275307   5.359   4.745  13.725 -0.3304 -0.0896  0.1012
17939TIP3    H175308   5.300   4.780  13.792  0.5183  0.1310  0.7415
17939TIP3    H275309   5.359   4.812  13.656 -0.3973  0.1611  0.3445
17940TIP3   OH275310   4.565   1.361   1.516  0.3062  0.1455 -0.1559
17940TIP3    H175311   4.550   1.332   1.425  0.9362  0.4142 -0.3449
17940TIP3    H275312   4.567   1.279   1.566 -0.4332  0.0156 -0.3216
17941TIP3   OH275313   1.431   5.428   3.972 -0.5821  0.3659  0.4866
17941TIP3    H175314   1.400   5.485   4.041 -1.2548 -1.0186  1.3553
17941TIP3    H275315   1.352   5.400   3.926 -0.5099 -1.5581  1.4432
17942TIP3   OH275316   5.930   5.094  15.056 -0.0253 -0.5885  0.2681
17942TIP3    H175317   5.877   5.026  15.015  1.0368 -0.5483 -1.1891
17942TIP3    H275318   6.018   5.059  15.056  0.4113  0.4885  0.1709
17943TIP3   OH275319   4.080   5.422   1.537  0.4028 -0.4810 -0.1150
17943TIP3    H175320   4.009   5.361   1.517  0.3816  0.2191 -2.3489
17943TIP3    H275321   4.123   5.437   1.453  2.1329  0.4373  0.9010
17944TIP3   OH275322   1.631   1.422   1.410  0.6025 -0.0190  0.4330
17944TIP3    H175323   1.704   1.472   1.445  1.6380 -0.8282 -0.5292
17944TIP3    H275324   1.609   1.465   1.328  0.3711 -0.1157  0.4429
17945TIP3   OH275325   4.619   4.546  17.238 -0.6242  0.0492  0.2358
17945TIP3    H175326   4.652   4.607  17.304  0.9919 -1.3600  0.7864
17945TIP3    H275327   4.540   4.587  17.204  0.9856  2.9601 -0.1625
17946TIP3   OH275328   1.489   3.560  16.939  0.4886  0.0603  0.2468
17946TIP3    H175329   1.580   3.561  16.908  0.1323  1.0950 -0.7891
17946TIP3    H275330   1.438   3.534  16.863  0.0427 -2.2885  1.2711
17947TIP3   OH275331   0.383   3.844   1.152  0.0393 -0.2387  0.2444
17947TIP3    H175332   0.376   3.917   1.091  1.3662 -0.1496  0.1855
17947TIP3    H275333   0.393   3.767   1.096  1.4141 -0.1388  0.3448
17948TIP3   OH275334   5.874   0.022  11.745  0.4253 -0.0945 -0.4339
17948TIP3    H175335   5.860   0.116  11.754  1.2621  0.1520 -1.5065
17948TIP3    H275336   5.889  -0.009  11.834 -1.1048  0.5648  0.0711
17949TIP3   OH275337   6.531   2.384  12.045 -0.3748 -0.0328 -0.0589
17949TIP3    H175338   6.587   2.318  12.005 -1.1153  0.2851 -1.6563
17949TIP3    H275339   6.450   2.338  12.067  0.0074 -0.1948  1.0699
17950TIP3   OH275340   1.442   5.860   1.585 -0.2917  0.6252  0.1612
17950TIP3    H175341   1.428   5.836   1.676 -1.1617 -1.0998 -0.4128
17950TIP3    H275342   1.360   5.902   1.558 -0.7143 -0.5086 -0.3406
17951TIP3   OH275343   3.909   5.684   6.023 -0.4539  0.3534 -0.2921
17951TIP3    H175344   3.840   5.624   6.051 -0.0199 -0.4520 -0.9348
17951TIP3    H275345   3.865   5.747   5.965 -1.1071  1.2765  1.1855
17952TIP3   OH275346   0.087   3.940   4.651 -0.7905  0.0454  0.6546
17952TIP3    H175347   0.136   3.996   4.591  0.5586 -0.3771  1.3385
17952TIP3    H275348  -0.005   3.962   4.636 -0.3714  1.0552 -0.4425
17953TIP3   OH275349   2.114   1.497   0.140  0.2441  0.3190  0.1419
17953TIP3    H175350   2.024   1.465   0.146  0.5576 -0.3220  1.5659
17953TIP3    H275351   2.111   1.565   0.072 -1.4919  0.9389  0.8228
17954TIP3   OH275352   5.556   1.166  12.484 -0.3023  0.2921 -0.6296
17954TIP3    H175353   5.562   1.080  12.441 -0.9177  1.2520 -2.6755
17954TIP3    H275354   5.642   1.205  12.473 -1.1640  1.5822 -3.3226
17955TIP3   OH275355   1.814   1.380   4.233 -0.4053 -0.2056  0.2751
17955TIP3    H175356   1.754   1.449   4.262  1.4530  1.1819  0.9239
17955TIP3    H275357   1.890   1.389   4.290  0.8242 -1.3169 -1.1446
17956TIP3   OH275358   4.845   0.034  16.822  0.4903 -0.0343  0.0617
17956TIP3    H175359   4.914   0.099  16.815  0.4867 -0.1443 -1.0750
17956TIP3    H275360   4.886  -0.040  16.867  0.9846  0.0735 -0.2060
17957TIP3   OH275361   4.132   5.389   1.024  0.1990 -0.3425  0.3648
17957TIP3    H175362   4.137   5.417   1.116 -1.3664 -1.0924  0.6917
17957TIP3    H275363   4.124   5.471   0.975  0.9958  0.0592  0.8861
17958TIP3   OH275364   1.536   5.389   1.912 -0.5067 -0.1105 -0.2377
17958TIP3    H175365   1.629   5.367   1.917  0.0058  1.8342 -0.8893
17958TIP3    H275366   1.506   5.387   2.003  0.3484 -0.0398  0.0505
17959TIP3   OH275367   1.385   4.378   3.586  0.2399  0.4770  0.0810
17959TIP3    H175368   1.339   4.340   3.662 -0.4643  1.0636 -0.0408
17959TIP3    H275369   1.449   4.312   3.561 -0.8850 -0.5843 -0.0557
17960TIP3   OH275370   2.094   3.313   1.685 -0.0643 -0.4729 -0.7543
17960TIP3    H175371   2.167   3.343   1.740 -1.1462  2.0634 -0.6384
17960TIP3    H275372   2.108   3.355   1.600 -0.5251 -1.2492 -1.2219
17961TIP3   OH275373   3.220   4.530  12.767  0.4316 -0.2320  0.4629
17961TIP3    H175374   3.172   4.564  12.842 -0.7831 -2.1050  0.5523
17961TIP3    H275375   3.218   4.602  12.703 -1.0636  0.2885  1.0894
17962TIP3   OH275376   0.666   5.321  15.300  0.2180  0.5523 -0.5535
17962TIP3    H175377   0.603   5.373  15.250  0.4039  0.7299 -0.6047
17962TIP3    H275378   0.629   5.233  15.303 -0.7947  1.0093  0.7533
17963TIP3   OH275379   5.771   6.075   3.251 -0.0853  0.8474  0.1365
17963TIP3    H175380   5.864   6.098   3.250 -0.1206  1.0044  0.4677
17963TIP3    H275381   5.746   6.075   3.158  0.6611 -0.9089 -0.0860
17964TIP3   OH275382   2.104   5.432   6.625  0.0919  0.2416  0.0384
17964TIP3    H175383   2.104   5.337   6.636  0.5878  0.1464 -0.7592
17964TIP3    H275384   2.012   5.454   6.612 -0.0126 -0.1356  0.1167
17965TIP3   OH275385   4.973   2.200   0.665  0.0793  0.1359 -0.3387
17965TIP3    H175386   5.014   2.116   0.686 -0.6270 -0.4489 -1.3063
17965TIP3    H275387   4.918   2.219   0.741 -0.8913 -0.9879 -0.7513
17966TIP3   OH275388   1.369   3.151   0.027  0.3385 -0.8123  0.2274
17966TIP3    H175389   1.409   3.238   0.028 -0.4412 -0.4558  1.4897
17966TIP3    H275390   1.334   3.140   0.115 -1.5553 -1.4921 -0.5770
17967TIP3   OH275391   4.560   6.523   5.155  0.1607 -0.3177  0.0289
17967TIP3    H175392   4.475   6.566   5.146  1.2343  1.9266  0.3968
17967TIP3    H275393   4.607   6.546   5.075 -0.0420 -2.6602 -0.7865
17968TIP3   OH275394   5.649   4.433   1.976  0.3067 -0.6022  0.1175
17968TIP3    H175395   5.609   4.388   2.050 -0.6403  0.8247  0.4907
17968TIP3    H275396   5.599   4.404   1.900 -0.9639  0.5793  0.4849
17969TIP3   OH275397   6.755   5.555   4.950 -0.1296 -0.2479 -0.1047
17969TIP3    H175398   6.776   5.497   5.023  0.1125  0.5756  0.4833
17969TIP3    H275399   6.709   5.629   4.990  0.4196  0.4355 -0.7202
17970TIP3   OH275400   0.760   5.183  11.720 -0.7300 -0.5492 -0.4407
17970TIP3    H175401   0.799   5.199  11.634  0.3569 -0.0527  0.1452
17970TIP3    H275402   0.759   5.087  11.727  2.5016 -0.5820  0.4695
17971TIP3   OH275403   4.778   3.639   4.998 -0.0420 -0.4478  0.8983
17971TIP3    H175404   4.813   3.723   4.971 -1.0263 -0.7106 -1.3307
17971TIP3    H275405   4.760   3.593   4.916 -0.4742 -2.4220  2.0590
17972TIP3   OH275406   2.629   1.566  11.826 -0.0580  0.4755  0.5232
17972TIP3    H175407   2.572   1.524  11.890 -1.6830 -1.1802 -1.8998
17972TIP3    H275408   2.630   1.658  11.851 -1.7732  0.0864  2.0986
17973TIP3   OH275409   1.132   4.525  15.285  0.3469 -0.3939  0.1779
17973TIP3    H175410   1.041   4.550  15.298  0.7896  0.5449  1.5655
17973TIP3    H275411   1.129   4.435  15.254 -1.0554 -0.3033  0.0509
17974TIP3   OH275412   2.463   3.719   4.919 -0.0331 -0.4881  0.3910
17974TIP3    H175413   2.529   3.753   4.860  0.8940 -0.1437  1.6161
17974TIP3    H275414   2.485   3.756   5.005 -1.2903 -1.0625  0.9787
17975TIP3   OH275415   2.203   1.106  10.492 -0.6047 -0.7733  0.1226
17975TIP3    H175416   2.151   1.149  10.560  0.4536  2.2885 -0.8813
17975TIP3    H275417   2.227   1.021  10.530 -1.5155  0.1254  2.8678
17976TIP3   OH275418   3.021   4.742   6.310 -0.1947  0.2576  0.1146
17976TIP3    H175419   2.971   4.812   6.269  1.3160  0.7614 -0.9122
17976TIP3    H275420   2.961   4.703   6.374 -0.9631  2.6681  0.9070
17977TIP3   OH275421   0.920   0.283   1.158  0.2113 -0.3636 -0.2101
17977TIP3    H175422   0.947   0.373   1.179  2.4713 -0.5447 -2.0634
17977TIP3    H275423   0.876   0.292   1.073 -1.2957 -0.7589  0.5231
17978TIP3   OH275424   2.296   5.058  15.809 -0.1688 -0.2114  0.1469
17978TIP3    H175425   2.353   5.036  15.883  0.5154 -1.6308 -0.8043
17978TIP3    H275426   2.209   5.029  15.837  0.3086 -1.9341 -0.1142
17979TIP3   OH275427   2.640   5.190  17.283  0.3290 -0.2594 -0.1247
17979TIP3    H175428   2.564   5.157  17.332 -1.1956  0.9230 -1.6139
17979TIP3    H275429   2.711   5.129  17.304 -0.9650 -1.2555  1.4912
17980TIP3   OH275430   0.722   6.321  13.252  0.2755 -0.0763  0.3220
17980TIP3    H175431   0.752   6.240  13.292 -0.1687  1.0524  3.1316
17980TIP3    H275432   0.672   6.365  13.322  1.7871  3.2874 -0.5995
17981TIP3   OH275433   2.184   1.045   2.121  0.5041 -0.0084  0.2481
17981TIP3    H175434   2.115   0.990   2.082  1.5397 -0.0329 -1.6471
17981TIP3    H275435   2.265   0.999   2.100  1.0932 -0.2609  2.9241
17982TIP3   OH275436   4.370   1.215   0.782  0.5165  0.5266  0.0216
17982TIP3    H175437   4.460   1.218   0.817  1.9850  2.1946 -3.5870
17982TIP3    H275438   4.368   1.136   0.729  0.7937  1.9001 -2.0981
17983TIP3   OH275439   0.970   2.777   1.262  0.0608 -0.6154  0.4650
17983TIP3    H175440   1.015   2.850   1.305 -0.1370 -0.5337  0.5333
17983TIP3    H275441   0.890   2.764   1.313  0.3043 -1.1608  0.7032
17984TIP3   OH275442   1.521   0.007   5.685  0.1359 -0.3281  0.3398
17984TIP3    H175443   1.477   0.027   5.602  0.8161  0.0933  0.0790
17984TIP3    H275444   1.504  -0.086   5.699  0.3987 -0.5048 -0.4962
17985TIP3   OH275445   5.228   2.722   1.200 -0.0992 -0.4826 -0.1995
17985TIP3    H175446   5.313   2.687   1.227  0.4759  0.3664 -0.8900
17985TIP3    H275447   5.181   2.735   1.282  0.1674 -1.6399  0.1410
17986TIP3   OH275448   6.030   3.827  13.286  0.8328  0.8108  0.0744
17986TIP3    H175449   6.081   3.908  13.280  0.5767  1.1686  2.1859
17986TIP3    H275450   5.941   3.853  13.264  0.6820  1.1814  1.1209
17987TIP3   OH275451   1.778   1.978   0.671  0.2622  0.2614  0.3683
17987TIP3    H175452   1.816   1.981   0.759 -0.9354  0.6808  0.8823
17987TIP3    H275453   1.699   1.924   0.681 -1.3060  2.4479  0.1275
17988TIP3   OH275454   5.178   6.001   3.969 -0.0934 -0.7182 -0.1118
17988TIP3    H175455   5.106   6.002   3.906  0.0738 -0.4601 -0.3024
17988TIP3    H275456   5.238   5.934   3.937  0.1911 -0.3038 -0.4580
17989TIP3   OH275457   5.486   4.591  14.738  0.2081 -0.0661  0.4722
17989TIP3    H175458   5.407   4.631  14.774  0.7896  0.2404  1.4387
17989TIP3    H275459   5.505   4.518  14.797  2.5020  1.8684  2.2322
17990TIP3   OH275460   3.931   2.795  13.886  0.1141  0.1148  0.4782
17990TIP3    H175461   3.847   2.783  13.841  0.6350 -0.3227 -0.4118
17990TIP3    H275462   3.924   2.742  13.965 -0.1066 -0.6939 -0.0732
17991TIP3   OH275463   2.189   4.954  10.757 -0.1027  0.2100 -0.6298
17991TIP3    H175464   2.200   5.048  10.769 -1.7272  0.5275 -1.5040
17991TIP3    H275465   2.277   4.922  10.739  0.3908  1.6388 -0.8160
17992TIP3   OH275466   3.464   6.534   0.516  0.2568 -0.5279 -0.6100
17992TIP3    H175467   3.463   6.578   0.432  1.0737 -0.2639 -0.4857
17992TIP3    H275468   3.498   6.599   0.577 -2.0692 -0.0949  0.2879
17993TIP3   OH275469   2.391   5.801  14.051 -0.2054  0.3047  0.8687
17993TIP3    H175470   2.424   5.811  14.141 -1.1817  2.6651  0.9936
17993TIP3    H275471   2.390   5.890  14.016  0.5139 -0.6351 -1.6334
17994TIP3   OH275472   2.844   4.830   6.724  0.4319  0.8253  0.1894
17994TIP3    H175473   2.817   4.876   6.645  0.8304 -2.3545 -1.8659
17994TIP3    H275474   2.816   4.740   6.710  0.7072  0.1431  3.6033
17995TIP3   OH275475   1.629   0.929  11.938  0.5348  0.0826 -0.2109
17995TIP3    H175476   1.589   0.885  12.013  1.2061 -1.0440 -0.5076
17995TIP3    H275477   1.690   0.865  11.901  2.6425  1.7729  0.2350
17996TIP3   OH275478   1.390   0.303  13.923  0.3897  0.4033  0.2212
17996TIP3    H175479   1.344   0.362  13.982  2.0273  0.3368  1.5971
17996TIP3    H275480   1.347   0.218  13.936  0.1658  0.5870  0.6873
17997TIP3   OH275481   3.339   3.178   0.657  0.1734 -0.1923  0.3034
17997TIP3    H175482   3.302   3.090   0.655  0.4530 -0.2837 -1.4404
17997TIP3    H275483   3.433   3.164   0.661  0.1936  0.0340  0.6436
17998TIP3   OH275484   2.125   3.728   3.841 -0.3670  0.1930 -0.0476
17998TIP3    H175485   2.043   3.773   3.820  0.3479  2.2595  1.3510
17998TIP3    H275486   2.098   3.642   3.873 -1.8610  0.0567 -1.6505
17999TIP3   OH275487   2.230   5.084   0.998 -0.4181  0.0509 -0.1347
17999TIP3    H175488   2.218   4.989   0.998 -0.2459  0.0218  0.7656
17999TIP3    H275489   2.164   5.117   1.060 -0.1844  0.4718 -0.1017
18000TIP3   OH275490   1.713   4.729  11.042 -0.3427  0.1761  0.1960
18000TIP3    H175491   1.733   4.734  10.948 -0.4512  0.3559  0.1847
18000TIP3    H275492   1.693   4.636  11.057  1.9750 -0.3171  0.4868
18001TIP3   OH275493   0.971   1.840  14.133  0.5623  0.0855  0.0939
18001TIP3    H175494   0.996   1.753  14.102 -1.0395 -0.6175  0.6792
18001TIP3    H275495   1.004   1.844  14.223  0.7383  0.1202  0.0270
18002TIP3   OH275496   3.727   5.446  12.699 -0.1512 -0.0504  0.1657
18002TIP3    H175497   3.772   5.483  12.776  1.3257 -1.1394 -0.1498
18002TIP3    H275498   3.794   5.444  12.631 -1.0885 -0.3529 -0.7582
18003TIP3   OH275499   3.305   2.350  12.341 -0.1336  0.1416  0.1469
18003TIP3    H175500   3.374   2.374  12.280  0.3423 -0.0434  0.6065
18003TIP3    H275501   3.319   2.258  12.360 -0.9459 -0.0813 -0.3144
18004TIP3   OH275502   3.923   0.010  12.682  0.0223 -0.0904  0.6220
18004TIP3    H175503   3.849  -0.024  12.632  0.4687  0.7156 -0.6184
18004TIP3    H275504   3.942   0.095  12.641  0.4259  0.5696  2.1371
18005TIP3   OH275505   1.410   3.074  11.177 -0.0629  0.0269  0.4724
18005TIP3    H175506   1.424   3.142  11.111 -1.4027 -0.0768  0.0696
18005TIP3    H275507   1.489   3.020  11.173  0.9632  1.4598  0.6935
18006TIP3   OH275508   0.257   6.488   2.257  0.6301  0.1089 -0.1051
18006TIP3    H175509   0.310   6.422   2.211  0.4694  0.3212 -0.5960
18006TIP3    H275510   0.224   6.545   2.188 -0.5561 -0.2414  0.1651
18007TIP3   OH275511   4.517   4.183   3.514 -0.0204  0.0158 -0.0750
18007TIP3    H175512   4.605   4.163   3.484  0.2651  0.3914  0.5070
18007TIP3    H275513   4.500   4.273   3.484 -0.6187 -0.4383 -1.1242
18008TIP3   OH275514   0.136   1.485   5.498  0.0832 -0.3748  0.1295
18008TIP3    H175515   0.118   1.480   5.404  0.9116 -1.8785  0.0329
18008TIP3    H275516   0.187   1.405   5.517  2.2254  1.2183  1.3385
18009TIP3   OH275517   6.215   0.862  15.015 -0.2324 -0.4963 -0.0332
18009TIP3    H175518   6.269   0.941  15.009 -2.7408  1.2150 -0.9809
18009TIP3    H275519   6.177   0.866  15.102  0.2664 -1.0723  0.2075
18010TIP3   OH275520   2.252   4.084   2.825  0.2204  0.2001 -0.2903
18010TIP3    H175521   2.274   4.048   2.911  0.3781 -2.6674 -1.4497
18010TIP3    H275522   2.156   4.084   2.823  0.2166  0.2106 -0.1265
18011TIP3   OH275523   2.023   5.718  16.905  0.1246 -0.3301  0.5320
18011TIP3    H175524   2.076   5.742  16.982  0.4760 -0.9158  0.4791
18011TIP3    H275525   1.954   5.661  16.941  0.4574 -0.8357  0.3744
18012TIP3   OH275526   2.252   3.594  17.041  0.3584  0.1819  0.2436
18012TIP3    H175527   2.173   3.540  17.040 -0.6792  1.6635 -0.2606
18012TIP3    H275528   2.291   3.578  17.127 -1.1350  0.3411  0.9687
18013TIP3   OH275529   0.647   4.628   1.089  0.0283  0.0305 -0.0839
18013TIP3    H175530   0.662   4.715   1.126  1.2027  0.6076 -1.8104
18013TIP3    H275531   0.733   4.586   1.094 -0.2270 -0.5351 -0.4726
18014TIP3   OH275532   1.601   1.962  15.158  0.6283  0.0733  0.4054
18014TIP3    H175533   1.568   2.037  15.208 -0.8454 -0.8843  0.8856
18014TIP3    H275534   1.541   1.955  15.083  0.4417 -0.9378  0.6390
18015TIP3   OH275535   1.715   4.965   1.176  0.4665 -0.3217 -0.0244
18015TIP3    H175536   1.660   4.949   1.253  1.4226  0.7505  0.9086
18015TIP3    H275537   1.700   4.889   1.120 -1.0836 -0.5901  0.7201
18016TIP3   OH275538   4.630   5.244   2.524  0.0223  0.0603 -0.0188
18016TIP3    H175539   4.701   5.250   2.588 -0.2752 -2.2931  0.6101
18016TIP3    H275540   4.673   5.253   2.439  1.1215 -1.3942  0.3491
18017TIP3   OH275541   6.368   2.498   0.795 -0.2069  0.0996  0.5052
18017TIP3    H175542   6.450   2.542   0.816  0.4769 -0.5991 -0.6405
18017TIP3    H275543   6.363   2.500   0.699 -0.9933 -0.8195  0.5137
18018TIP3   OH275544   5.122   6.338   3.567  0.6075 -0.2834  0.2930
18018TIP3    H175545   5.184   6.265   3.573 -0.0099 -0.7591  0.9827
18018TIP3    H275546   5.174   6.415   3.588  1.0350 -0.6452  0.5766
18019TIP3   OH275547   2.850   1.742   5.099 -0.0360 -0.5805 -0.0142
18019TIP3    H175548   2.826   1.654   5.127 -0.1543 -0.2813  0.8330
18019TIP3    H275549   2.771   1.776   5.056  1.3198 -2.4588 -4.2706
18020TIP3   OH275550   5.459   3.547   5.208  0.4270  0.0969  0.3858
18020TIP3    H175551   5.451   3.583   5.296  0.1860  1.1391 -0.0510
18020TIP3    H275552   5.552   3.554   5.187 -0.1507  4.2734 -1.2392
18021TIP3   OH275553   2.741   1.473   3.751  0.2881  0.6970 -0.1497
18021TIP3    H175554   2.771   1.407   3.813 -0.2784  0.0410 -0.5675
18021TIP3    H275555   2.734   1.554   3.802 -1.9313 -0.2425  1.0763
18022TIP3   OH275556   0.848   3.846  12.623 -0.8861 -0.0089  0.4657
18022TIP3    H175557   0.936   3.811  12.631 -0.6374  0.5949  0.4303
18022TIP3    H275558   0.855   3.913  12.555 -1.6834 -0.9458 -0.5534
18023TIP3   OH275559   5.291   0.989  16.639  0.2437 -0.0107 -0.3057
18023TIP3    H175560   5.299   1.080  16.666 -2.1207  0.0716  0.1828
18023TIP3    H275561   5.204   0.963  16.667  0.8227 -2.3763 -0.6135
18024TIP3   OH275562   3.223   2.565   6.580 -0.1045  0.4300 -0.1239
18024TIP3    H175563   3.269   2.488   6.615 -1.2008 -0.2450 -0.1488
18024TIP3    H275564   3.293   2.625   6.553  0.7617 -0.6264 -0.2443
18025TIP3   OH275565   4.159   5.952  13.244 -0.7257 -0.0359 -0.7715
18025TIP3    H175566   4.178   5.914  13.158  1.8950  0.3886 -0.4468
18025TIP3    H275567   4.207   6.035  13.245  1.1002 -1.0484  1.8617
18026TIP3   OH275568   5.388   2.492   5.437  0.7029 -0.6393 -0.1533
18026TIP3    H175569   5.379   2.408   5.392 -0.5349  1.0381 -3.2125
18026TIP3    H275570   5.481   2.513   5.431  0.7858 -1.1276 -0.5743
18027TIP3   OH275571   4.940   5.518  13.712 -0.5879 -0.1580 -0.1101
18027TIP3    H175572   4.910   5.433  13.746 -0.3007  0.6019  2.1757
18027TIP3    H275573   4.925   5.579  13.785 -1.2182  1.8543 -1.8649
18028TIP3   OH275574   0.939   3.889  14.587 -0.1625 -0.1224  0.3816
18028TIP3    H175575   0.979   3.940  14.517  0.3729 -0.7793  0.1998
18028TIP3    H275576   0.856   3.932  14.604 -0.6591 -0.4157 -1.2127
18029TIP3   OH275577   1.317   1.064  16.949  0.8515  0.1159 -0.3552
18029TIP3    H175578   1.284   1.108  16.871 -0.6244 -0.1272  0.1104
18029TIP3    H275579   1.241   1.019  16.985  1.6439 -0.2464  0.9098
18030TIP3   OH275580   4.669   4.777   3.432  0.0895 -0.0793  0.2199
18030TIP3    H175581   4.657   4.831   3.353 -1.5658  0.2284  0.6590
18030TIP3    H275582   4.712   4.698   3.400  0.7104  0.6288 -0.7604
18031TIP3   OH275583   2.531   2.419  14.998  0.3051  0.1949 -0.2004
18031TIP3    H175584   2.517   2.332  15.037  0.8866 -1.0635 -2.7238
18031TIP3    H275585   2.544   2.476  15.074 -1.3201 -1.6713  1.5685
18032TIP3   OH275586   1.401   4.315   3.889  0.0356  0.4638 -0.4316
18032TIP3    H175587   1.319   4.330   3.935  0.1866  0.8657 -0.2936
18032TIP3    H275588   1.441   4.241   3.934  0.1837  0.8559  0.0888
18033TIP3   OH275589   6.167   5.986   4.285  0.5259 -0.2982  0.2869
18033TIP3    H175590   6.199   6.071   4.318 -0.3428  0.2712 -0.3169
18033TIP3    H275591   6.246   5.933   4.278  1.1013  0.4930  0.5942
18034TIP3   OH275592   5.614   2.599   2.869  0.6195 -0.1834 -0.3147
18034TIP3    H175593   5.545   2.653   2.907  0.0406 -0.2659 -1.2205
18034TIP3    H275594   5.589   2.590   2.777  2.0115  0.0587 -0.7311
18035TIP3   OH275595   6.806   1.144  12.591 -0.4560 -0.3962 -0.2181
18035TIP3    H175596   6.856   1.212  12.546 -0.0790 -0.0823  0.6553
18035TIP3    H275597   6.760   1.191  12.661 -0.1035 -1.0531  0.4636
18036TIP3   OH275598   2.995   6.488   1.313 -0.8477 -0.2272 -0.0009
18036TIP3    H175599   3.001   6.579   1.285  0.2274 -0.1493  0.4728
18036TIP3    H275600   3.059   6.480   1.384 -2.1565 -0.9065  1.1431
18037TIP3   OH275601   3.155   2.082   5.108  0.3661  0.3499 -0.4552
18037TIP3    H175602   3.143   2.177   5.104 -2.2108  0.0737  0.2281
18037TIP3    H275603   3.172   2.063   5.200 -0.5321 -0.0006 -0.3568
18038TIP3   OH275604   1.014   5.556  16.178  0.1598  0.5472  0.1153
18038TIP3    H175605   1.077   5.489  16.152 -1.9848 -1.9677  1.2520
18038TIP3    H275606   1.057   5.601  16.251  1.4188  0.1113 -0.3412
18039TIP3   OH275607   1.951   2.784  15.653  0.0437 -0.8486  0.7447
18039TIP3    H175608   1.947   2.876  15.627  1.6281 -0.1750  2.7316
18039TIP3    H275609   1.861   2.763  15.679 -0.3600  0.0961  0.1433
18040TIP3   OH275610   1.983   0.977  11.420  0.2850  0.1275 -0.3564
18040TIP3    H175611   1.927   1.015  11.488  1.2746 -0.4462  0.8004
18040TIP3    H275612   2.071   1.007  11.443  0.5625  0.3587 -1.6960
18041TIP3   OH275613   2.215   3.627   5.370  0.1009 -0.0377  0.5094
18041TIP3    H175614   2.299   3.588   5.346  0.4500  0.1817  1.3408
18041TIP3    H275615   2.153   3.555   5.367  0.5346 -0.4346  0.9750
18042TIP3   OH275616   0.801   4.018   1.648 -0.5712  0.1925 -0.3814
18042TIP3    H175617   0.823   4.104   1.684 -0.2900 -0.3074  0.6503
18042TIP3    H275618   0.795   3.961   1.725  0.3218 -0.9455 -1.1449
18043TIP3   OH275619   5.790   0.622   6.156 -0.6752  0.1427 -0.0992
18043TIP3    H175620   5.879   0.646   6.179 -0.7527  1.5436 -1.1522
18043TIP3    H275621   5.771   0.543   6.207  1.2758 -0.3574 -0.1429
18044TIP3   OH275622   5.981   4.735   5.124 -0.3708 -0.3569 -0.0039
18044TIP3    H175623   5.948   4.819   5.093  0.3506 -0.3727 -0.8244
18044TIP3    H275624   6.075   4.747   5.133 -0.3773 -0.8119  0.7485
18045TIP3   OH275625   3.947   3.345  11.154  0.2492 -0.3746  0.1288
18045TIP3    H175626   3.877   3.336  11.219  0.4423 -0.1860  0.3673
18045TIP3    H275627   3.957   3.257  11.117  1.1033 -0.8314  1.3810
18046TIP3   OH275628   1.327   3.091  16.725 -0.5557 -0.3913  0.7992
18046TIP3    H175629   1.341   3.080  16.631 -1.7172 -0.9901  0.6810
18046TIP3    H275630   1.330   3.002  16.760 -0.6890 -0.2223  1.2456
18047TIP3   OH275631   1.330   2.113  11.458  0.0229 -0.4046  0.0642
18047TIP3    H175632   1.263   2.114  11.390 -1.2530 -1.9871  1.3025
18047TIP3    H275633   1.342   2.206  11.480 -2.7738 -0.1730  0.8213
18048TIP3   OH275634   2.745   2.088  11.077  0.8991  0.1769  0.8274
18048TIP3    H175635   2.689   2.030  11.026  0.4354  1.0484  0.3346
18048TIP3    H275636   2.738   2.173  11.034  0.0725  1.0593  2.6604
18049TIP3   OH275637   3.252   4.381  16.914 -0.1671 -0.4715  0.3214
18049TIP3    H175638   3.275   4.300  16.867 -1.8487 -0.6439 -0.2616
18049TIP3    H275639   3.221   4.350  17.000  0.7060 -0.3189  0.6985
18050TIP3   OH275640   5.016   3.617  10.445  0.7092  0.6757  0.9970
18050TIP3    H175641   5.012   3.678  10.371 -1.7598  0.9399  1.3204
18050TIP3    H275642   4.974   3.664  10.517  1.8440 -0.1260  2.2088
18051TIP3   OH275643   5.335   0.400   0.099 -0.2675  0.2843  0.2554
18051TIP3    H175644   5.241   0.418   0.096 -0.3016  0.4140  1.7283
18051TIP3    H275645   5.364   0.440   0.181  0.8041 -1.0313  0.5292
18052TIP3   OH275646   5.931   2.053   3.653 -0.0965 -0.2175 -1.2030
18052TIP3    H175647   5.946   2.029   3.561  0.1657  0.4621 -1.3377
18052TIP3    H275648   5.949   1.973   3.702 -0.3161 -0.6051 -1.7528
18053TIP3   OH275649   6.329   6.135   3.057 -0.6022 -0.2260 -0.5454
18053TIP3    H175650   6.293   6.212   3.014 -0.2059  1.0660  1.3842
18053TIP3    H275651   6.396   6.103   2.996 -0.9244  0.8139 -1.4648
18054TIP3   OH275652   2.226   6.226  15.861  0.0912  0.4242  0.0577
18054TIP3    H175653   2.209   6.167  15.788 -0.5869 -0.6062  1.0114
18054TIP3    H275654   2.140   6.242  15.899  0.3450  1.5794  0.1575
18055TIP3   OH275655   0.151   4.725   1.583 -0.0460 -0.2717  0.2694
18055TIP3    H175656   0.156   4.818   1.562  1.1136 -0.4416 -0.2465
18055TIP3    H275657   0.068   4.696   1.544 -0.2568  0.4718  0.1587
18056TIP3   OH275658   3.030   3.973  13.433 -0.0451  0.4909  0.7056
18056TIP3    H175659   3.038   4.008  13.522  2.1666 -0.9843  1.1073
18056TIP3    H275660   3.107   3.918  13.421 -2.2448 -2.3892 -0.7734
18057TIP3   OH275661   6.816   5.971  12.044 -0.0752 -0.0453 -0.6421
18057TIP3    H175662   6.896   5.928  12.012 -1.0092 -0.9911 -1.7354
18057TIP3    H275663   6.746   5.934  11.991 -1.1365  1.4692 -0.3227
18058TIP3   OH275664   4.245   2.940   0.740 -0.2014 -1.3330  0.1047
18058TIP3    H175665   4.208   2.860   0.704 -1.7071 -0.8725  0.6072
18058TIP3    H275666   4.288   2.913   0.821  1.7536 -2.0885 -1.1501
18059TIP3   OH275667   5.176   3.666  13.300 -0.2768 -0.4476  0.1529
18059TIP3    H175668   5.163   3.760  13.307 -0.7846 -0.6018  1.4033
18059TIP3    H275669   5.264   3.656  13.265 -0.4613  0.5009 -0.5782
18060TIP3   OH275670   1.569   1.796  16.100 -0.2821 -0.1610 -0.1839
18060TIP3    H175671   1.599   1.764  16.185 -0.1299  0.3155 -0.0552
18060TIP3    H275672   1.573   1.720  16.043 -0.0516 -0.4009  0.1500
18061TIP3   OH275673   4.375   4.289   1.032  0.3880 -0.2443 -0.6022
18061TIP3    H175674   4.310   4.314   0.966  0.1797  0.0015 -0.3046
18061TIP3    H275675   4.329   4.298   1.116  1.9156  3.5108 -0.0866
18062TIP3   OH275676   4.880   5.418   1.357 -0.7625  0.1763 -0.5376
18062TIP3    H175677   4.846   5.360   1.288  0.3347  0.6961 -1.5206
18062TIP3    H275678   4.819   5.491   1.359 -2.6324 -1.3652  1.2715
18063TIP3   OH275679   3.835   5.192  15.680  0.1967 -0.5272  0.3859
18063TIP3    H175680   3.891   5.142  15.739 -0.7978 -0.4028  1.4629
18063TIP3    H275681   3.893   5.261  15.646  0.9085 -0.8701  0.8709
18064TIP3   OH275682   1.740   0.116  12.281  0.5271 -0.1416 -0.0975
18064TIP3    H175683   1.700   0.050  12.225  0.3752 -2.1374  2.2530
18064TIP3    H275684   1.818   0.144  12.233  0.3793 -1.7655 -1.3317
18065TIP3   OH275685   1.872   6.322   0.147  0.0429 -0.1720  0.0183
18065TIP3    H175686   1.832   6.250   0.195 -1.8292  0.5437 -0.4227
18065TIP3    H275687   1.941   6.355   0.206 -0.4132 -1.0394  1.0506
18066TIP3   OH275688   3.060   2.362   3.671  0.5972  1.2094  0.1110
18066TIP3    H175689   3.029   2.287   3.620  0.4403  0.6881  0.9584
18066TIP3    H275690   3.144   2.385   3.631  0.8560  0.2985  0.1214
18067TIP3   OH275691   4.927   6.392  13.716  0.4273  0.3627  0.1049
18067TIP3    H175692   4.914   6.427  13.804  0.1805  0.3167  0.0856
18067TIP3    H275693   5.011   6.429  13.688  1.3536 -1.0173  1.0405
18068TIP3   OH275694   1.394   1.051  12.610  0.2896 -0.2378  0.1362
18068TIP3    H175695   1.373   0.970  12.657  1.4578 -0.8142 -0.3074
18068TIP3    H275696   1.352   1.040  12.524 -1.4316  0.6043  0.8528
18069TIP3   OH275697   5.229   0.181   4.564  0.3033 -0.2655  0.1388
18069TIP3    H175698   5.205   0.264   4.606  2.7950 -0.3999  1.9831
18069TIP3    H275699   5.256   0.205   4.476  2.7425  1.1812  1.2369
18070TIP3   OH275700   4.338   3.862   5.454  0.0032 -0.4795  0.4377
18070TIP3    H175701   4.332   3.769   5.433  0.1516  0.1473 -2.6377
18070TIP3    H275702   4.259   3.881   5.503 -0.9507 -1.8427 -0.5542
18071TIP3   OH275703   0.117   0.989   1.704 -0.1296  0.1564  0.6102
18071TIP3    H175704   0.047   0.954   1.759 -0.7956  2.0179  0.9766
18071TIP3    H275705   0.150   1.065   1.752 -0.3549  1.4790 -1.2848
18072TIP3   OH275706   0.714   2.820   3.396  0.6886 -0.2506 -0.1720
18072TIP3    H175707   0.718   2.733   3.356  1.5484 -1.4204  2.3270
18072TIP3    H275708   0.623   2.845   3.389  0.1415 -1.9988  0.2817
18073TIP3   OH275709   2.411   2.903  14.176 -0.3528  0.4450  0.2868
18073TIP3    H175710   2.364   2.855  14.245 -0.2214  0.1241  0.1564
18073TIP3    H275711   2.501   2.908  14.209 -0.3089  0.3672  0.1786
18074TIP3   OH275712   6.190   1.504  15.091 -0.1566  0.3624  0.3715
18074TIP3    H175713   6.224   1.594  15.094  1.3238 -0.1739 -0.0458
18074TIP3    H275714   6.131   1.504  15.015  0.4114  0.7868 -0.0779
18075TIP3   OH275715   4.883   3.213  16.247  0.0052  0.1314 -0.1435
18075TIP3    H175716   4.939   3.158  16.301  0.3922  0.3368 -0.3340
18075TIP3    H275717   4.794   3.187  16.270  0.1298  1.1234  1.5687
18076TIP3   OH275718   0.217   5.316  12.430  0.2328 -0.3226  1.0344
18076TIP3    H175719   0.309   5.340  12.438  0.6312 -1.8299  1.1829
18076TIP3    H275720   0.175   5.355  12.507  0.8875 -0.2489  1.3528
18077TIP3   OH275721   3.548   6.238  17.084 -0.4362  0.2794 -0.4239
18077TIP3    H175722   3.555   6.202  17.172 -0.7761 -0.3225 -0.6394
18077TIP3    H275723   3.614   6.193  17.032  0.7172  1.6395 -0.1527
18078TIP3   OH275724   3.359   2.307   1.422  0.0848  0.3855 -0.1257
18078TIP3    H175725   3.279   2.257   1.406  0.0414  0.3473  0.1984
18078TIP3    H275726   3.340   2.395   1.389  0.1168  0.2240 -0.5838
18079TIP3   OH275727   1.786   1.839   6.713  0.1175 -0.8953 -0.2058
18079TIP3    H175728   1.853   1.908   6.707  0.9223 -1.6009  0.4782
18079TIP3    H275729   1.836   1.757   6.713 -0.5589 -1.3701  2.8407
18080TIP3   OH275730   0.885   4.211   0.735 -0.2168 -0.6755  0.0918
18080TIP3    H175731   0.886   4.191   0.641 -0.9040  0.7988 -0.2369
18080TIP3    H275732   0.799   4.182   0.765 -0.5850  0.2412 -0.0548
18081TIP3   OH275733   1.357   6.563   5.079 -0.4372  0.3029  0.0621
18081TIP3    H175734   1.447   6.594   5.093 -0.5958  1.9638 -2.1657
18081TIP3    H275735   1.305   6.614   5.140  0.0416 -0.0690  0.7863
18082TIP3   OH275736   6.057   3.777  12.742  0.0682  0.0344 -0.2488
18082TIP3    H175737   5.963   3.768  12.761  0.1223  1.2910  0.7036
18082TIP3    H275738   6.094   3.692  12.763 -0.7440 -0.2341  0.1326
18083TIP3   OH275739   4.564   6.792  15.505  0.0736 -0.5072 -0.9440
18083TIP3    H175740   4.655   6.805  15.531  0.8799 -2.3149 -2.7363
18083TIP3    H275741   4.527   6.880  15.501  2.2097  0.3850 -1.7512
18084TIP3   OH275742   2.905   0.840  16.324 -0.0987  0.7722 -0.4383
18084TIP3    H175743   2.887   0.806  16.412 -1.5663  1.3856 -0.4891
18084TIP3    H275744   2.988   0.888  16.334 -0.6352  1.4840  0.8041
18085TIP3   OH275745   0.719   3.761  12.258 -0.4574 -0.2955  1.1761
18085TIP3    H175746   0.730   3.731  12.168  0.0162 -0.4316  1.2802
18085TIP3    H275747   0.680   3.849  12.249  0.8052  0.2401  0.8018
18086TIP3   OH275748   5.609   5.961   1.752  0.1310  0.6204  0.0815
18086TIP3    H175749   5.647   6.049   1.749  2.2700 -0.2821 -0.2983
18086TIP3    H275750   5.651   5.919   1.827 -1.1096  0.0046  0.4456
18087TIP3   OH275751   1.133   2.354   5.283  0.1501  0.2544  0.3175
18087TIP3    H175752   1.171   2.291   5.221 -3.2909 -1.5089 -0.1330
18087TIP3    H275753   1.094   2.421   5.227 -2.2722 -0.9234  0.5527
18088TIP3   OH275754   6.142   2.560   4.876 -0.0685  0.0921 -0.0305
18088TIP3    H175755   6.206   2.629   4.892  0.3405 -0.1008 -0.8070
18088TIP3    H275756   6.081   2.598   4.812  0.6648 -0.5527 -1.1471
18089TIP3   OH275757   3.835   2.767   0.374  0.4407  0.3851  0.1589
18089TIP3    H175758   3.811   2.675   0.385  3.0444 -0.2112  1.0301
18089TIP3    H275759   3.801   2.790   0.287 -1.1961 -1.0631  0.3843
18090TIP3   OH275760   5.263   6.024  14.124 -0.1067 -0.0612 -0.2816
18090TIP3    H175761   5.252   5.929  14.116 -0.5287 -0.1150  0.8152
18090TIP3    H275762   5.348   6.042  14.083 -0.2400 -0.8488 -0.9093
18091TIP3   OH275763   4.592   0.657   4.717 -0.2102 -0.4034  0.2649
18091TIP3    H175764   4.591   0.603   4.796 -1.9615  1.1235  1.3292
18091TIP3    H275765   4.679   0.697   4.716  0.0818 -1.0169  1.0149
18092TIP3   OH275766   6.010   3.106  16.187  0.4100 -0.4672  0.0466
18092TIP3    H175767   6.048   3.040  16.128  1.5907 -0.1288  0.4195
18092TIP3    H275768   5.943   3.059  16.235  3.0470 -2.1324  2.2410
18093TIP3   OH275769   5.586   3.495   0.941 -0.4513 -0.9243 -0.3521
18093TIP3    H175770   5.506   3.491   0.889 -0.3734  1.3079 -0.6935
18093TIP3    H275771   5.650   3.445   0.889 -0.0785  2.1634 -3.0712
18094TIP3   OH275772   3.902   1.069   1.298  0.4051  0.2542 -0.0125
18094TIP3    H175773   3.847   1.005   1.344 -0.3500  1.0133  0.1611
18094TIP3    H275774   3.978   1.081   1.355  0.5531 -0.5009 -0.0533
18095TIP3   OH275775   1.866   5.503  13.861  0.7324  0.3868  0.1246
18095TIP3    H175776   1.835   5.498  13.951 -1.3536 -0.2575 -0.5996
18095TIP3    H275777   1.807   5.566  13.819  4.2467  3.9300  0.1694
18096TIP3   OH275778   1.103   5.561   0.621  0.4238  0.2173  0.1061
18096TIP3    H175779   1.082   5.653   0.603  1.4414  0.3650 -0.3697
18096TIP3    H275780   1.189   5.564   0.663  0.3786 -0.5030  0.2426
18097TIP3   OH275781   4.563   4.161   1.672 -0.0515  0.2925 -0.1428
18097TIP3    H175782   4.642   4.108   1.661 -0.1117 -0.0299  0.8582
18097TIP3    H275783   4.574   4.202   1.757 -0.7688  0.5787 -0.1873
18098TIP3   OH275784   2.128   1.838  10.452  0.4406 -0.1118  0.1270
18098TIP3    H175785   2.085   1.924  10.457  0.7426  0.1629 -1.6041
18098TIP3    H275786   2.074   1.780  10.505  1.5639  1.6754  3.3706
18099TIP3   OH275787   0.303   6.644   2.767  1.2186 -0.1194  0.4034
18099TIP3    H175788   0.307   6.573   2.703  0.0858  0.8782 -0.8030
18099TIP3    H275789   0.392   6.650   2.803  2.2417  0.2184 -2.0910
18100TIP3   OH275790   6.533   4.964  10.804  0.4419 -0.0830 -0.8708
18100TIP3    H175791   6.565   5.054  10.797 -0.7620  0.3807 -0.4324
18100TIP3    H275792   6.591   4.914  10.746  1.7271  0.8063 -0.3883
18101TIP3   OH275793   3.228   1.132  11.442 -0.4413  1.0545 -0.3470
18101TIP3    H175794   3.171   1.202  11.475  0.4730  2.3765 -1.5114
18101TIP3    H275795   3.194   1.114  11.354 -1.2095 -0.5909  0.2647
18102TIP3   OH275796   4.143   3.982   1.207 -0.0555 -0.0407  0.4846
18102TIP3    H175797   4.150   4.068   1.166 -0.1923 -0.6139 -0.7732
18102TIP3    H275798   4.104   3.999   1.293  0.3717  1.1963  0.4449
18103TIP3   OH275799   6.063   2.830  16.414  0.3019 -0.2435  0.2516
18103TIP3    H175800   6.002   2.822  16.487 -0.9708  0.3313 -0.7122
18103TIP3    H275801   6.033   2.764  16.351  1.3211 -0.6699  0.2068
18104TIP3   OH275802   4.566   1.524  15.467 -0.6989  0.1676 -0.0722
18104TIP3    H175803   4.606   1.585  15.405  2.2743 -0.3963  1.2259
18104TIP3    H275804   4.492   1.573  15.503  0.9820  2.6217  0.1594
18105TIP3   OH275805   1.441   0.749  17.145  0.0766  0.3365  0.1115
18105TIP3    H175806   1.474   0.710  17.226 -0.4066  2.8010  1.5350
18105TIP3    H275807   1.362   0.699  17.125 -0.0249 -0.0365  1.3775
18106TIP3   OH275808   3.563   4.315  15.623 -0.7640 -0.2477 -0.3937
18106TIP3    H175809   3.564   4.400  15.580 -0.7685 -0.3486 -0.5946
18106TIP3    H275810   3.501   4.326  15.695 -3.2194 -0.9988 -2.3272
18107TIP3   OH275811   5.243   5.645  12.007 -0.0347  0.4841 -0.1186
18107TIP3    H175812   5.198   5.671  11.926  0.8479  0.7710 -0.5155
18107TIP3    H275813   5.259   5.727  12.053  1.1938  0.4944 -0.5592
18108TIP3   OH275814   0.330   3.608   0.387 -0.4598 -0.3421 -0.0468
18108TIP3    H175815   0.360   3.643   0.471 -0.5858 -1.8283  0.6308
18108TIP3    H275816   0.239   3.583   0.403 -0.1628 -1.6354 -0.2920
18109TIP3   OH275817   5.349   4.524   0.390 -0.5368  0.2299 -0.1917
18109TIP3    H175818   5.272   4.469   0.409 -0.6007  1.1267  2.2046
18109TIP3    H275819   5.390   4.539   0.475  1.9887  0.2552 -1.3766
18110TIP3   OH275820   6.580   1.559  16.083 -0.3425 -0.2243  0.4465
18110TIP3    H175821   6.648   1.493  16.099 -0.9470 -1.0999 -0.5077
18110TIP3    H275822   6.597   1.627  16.148  1.9759 -0.0125 -0.3330
18111TIP3   OH275823   0.514   5.395   5.202 -0.3428  0.7110 -0.4877
18111TIP3    H175824   0.566   5.326   5.241 -1.6285 -1.3665 -2.2847
18111TIP3    H275825   0.441   5.407   5.263 -0.7404 -0.3867 -0.7209
18112TIP3   OH275826   0.988   2.577  17.241 -0.1261  0.5218  0.0393
18112TIP3    H175827   0.898   2.594  17.269 -0.7864  0.3230 -1.8991
18112TIP3    H275828   0.980   2.532  17.157  1.7412 -2.1906  1.2111
18113TIP3   OH275829   2.448   2.353  14.735 -0.6529  0.1604  0.6732
18113TIP3    H175830   2.488   2.361  14.822  2.3788 -1.8193 -0.4516
18113TIP3    H275831   2.417   2.263  14.731 -1.6897  0.5359  0.0409
18114TIP3   OH275832   4.237   2.908   1.290 -0.1571 -0.1380  0.3288
18114TIP3    H175833   4.317   2.882   1.243  0.8516  0.5015  1.6895
18114TIP3    H275834   4.172   2.844   1.261  0.6040 -0.1587 -1.4505
18115TIP3   OH275835   1.020   4.036  14.322 -0.3933  0.0597 -0.1895
18115TIP3    H175836   0.925   4.032  14.309 -0.4320  0.8552 -0.2164
18115TIP3    H275837   1.035   4.125  14.353  0.3312 -0.1154 -0.0463
18116TIP3   OH275838   1.799   5.526   6.388  0.0933 -0.6465  0.0316
18116TIP3    H175839   1.814   5.608   6.434 -1.1555  0.1201 -0.9031
18116TIP3    H275840   1.759   5.469   6.454 -0.2368 -0.0838  0.3190
18117TIP3   OH275841   1.750   0.447   3.876 -0.0767 -0.1644  0.0515
18117TIP3    H175842   1.802   0.427   3.799 -0.9372 -2.3917 -0.0068
18117TIP3    H275843   1.698   0.523   3.851  0.1246 -0.4654 -1.3445
18118TIP3   OH275844   5.401   0.898   1.432 -0.3487 -0.4767 -0.1456
18118TIP3    H175845   5.410   0.817   1.481 -0.3226  0.3903  1.3314
18118TIP3    H275846   5.491   0.926   1.414 -0.3531 -0.5854 -0.3390
18119TIP3   OH275847   0.060   6.633  16.318  0.1179 -0.3136  0.0307
18119TIP3    H175848   0.132   6.644  16.380  1.7633  2.3854 -2.2188
18119TIP3    H275849   0.087   6.560  16.262  1.3273  0.9332 -1.0421
18120TIP3   OH275850   4.571   2.230  12.389 -0.1695 -0.5024  0.0808
18120TIP3    H175851   4.663   2.257  12.392 -0.5802  0.9303  0.3378
18120TIP3    H275852   4.561   2.188  12.304  1.0569 -1.9430  0.6237
18121TIP3   OH275853   2.862   5.997   2.916 -0.3049 -0.1692 -0.0017
18121TIP3    H175854   2.870   6.073   2.858  1.0112  0.2891  0.7481
18121TIP3    H275855   2.946   5.994   2.963 -1.2116 -0.7087  1.6343
18122TIP3   OH275856   6.108   4.661  12.582 -0.1182 -0.1741  0.8824
18122TIP3    H175857   6.176   4.703  12.529 -0.8265  1.4747  1.2484
18122TIP3    H275858   6.044   4.630  12.518 -0.1417  0.3100  0.6639
18123TIP3   OH275859   1.215   4.835   1.016 -0.5935 -0.3618  0.5751
18123TIP3    H175860   1.269   4.882   0.953 -1.2248  0.6861  0.8033
18123TIP3    H275861   1.270   4.826   1.094 -0.2259 -0.6107  0.2837
18124TIP3   OH275862   5.825   1.332   2.521 -0.0395 -0.1993 -0.5470
18124TIP3    H175863   5.893   1.383   2.566  1.0287 -1.4084 -0.7461
18124TIP3    H275864   5.755   1.395   2.504  0.9620  1.0482 -0.1798
18125TIP3   OH275865   4.807   3.961   3.054 -0.7533  0.0040  1.0067
18125TIP3    H175866   4.741   4.019   3.017 -0.6834 -0.5512 -0.0167
18125TIP3    H275867   4.798   3.880   3.004 -0.7763 -0.8289  2.3459
18126TIP3   OH275868   5.775   2.659  16.477  0.3740 -0.0867 -0.0065
18126TIP3    H175869   5.832   2.583  16.486  2.0687  0.9214 -1.7668
18126TIP3    H275870   5.757   2.687  16.567  0.3825 -2.0574  0.6361
18127TIP3   OH275871   4.178   4.927  11.674 -0.2986 -0.0707  0.6159
18127TIP3    H175872   4.228   4.864  11.726  1.1701 -1.2872 -2.2066
18127TIP3    H275873   4.090   4.889  11.668 -0.5872  0.2537  2.4512
18128TIP3   OH275874   0.934   1.050  12.076  0.1446 -0.6643  0.0050
18128TIP3    H175875   0.959   1.122  12.019 -0.8052  0.1685  0.6344
18128TIP3    H275876   1.006   1.045  12.140  0.5992 -0.7998 -0.5106
18129TIP3   OH275877   3.616   1.852   6.689 -0.0925  0.0872  0.0974
18129TIP3    H175878   3.523   1.865   6.702  0.0476  0.0774  1.1204
18129TIP3    H275879   3.649   1.820   6.773  0.9825  0.9048  0.0063
18130TIP3   OH275880   6.306   5.803  16.625 -0.1379 -0.3472 -0.2660
18130TIP3    H175881   6.399   5.821  16.643 -0.3767  0.6775  0.0110
18130TIP3    H275882   6.271   5.887  16.596 -1.1949 -0.4909  0.5437
18131TIP3   OH275883   2.425   1.995  13.865  0.0971  0.1139  0.4183
18131TIP3    H175884   2.441   2.064  13.929 -1.0871 -0.2513  1.1254
18131TIP3    H275885   2.509   1.983  13.821  0.8596  0.5453  1.7242
18132TIP3   OH275886   6.362   6.251  16.185 -0.2462 -0.6439 -0.3401
18132TIP3    H175887   6.381   6.201  16.106 -1.2372 -1.4120 -0.1075
18132TIP3    H275888   6.333   6.185  16.249  1.2609 -0.1390  0.9027
18133TIP3   OH275889   2.164   0.603  15.574  0.5946  0.0388  0.1083
18133TIP3    H175890   2.245   0.554  15.590 -0.5032 -1.2339  2.0365
18133TIP3    H275891   2.110   0.543  15.523  1.1551  1.1881 -1.8509
18134TIP3   OH275892   6.326   1.226   5.510 -0.1484  0.0326  0.2715
18134TIP3    H175893   6.399   1.164   5.510 -1.7381 -1.8915  1.1079
18134TIP3    H275894   6.326   1.262   5.421  2.1973  0.5568  0.4370
18135TIP3   OH275895   2.704   2.951   2.833  0.2316  0.5017  0.8008
18135TIP3    H175896   2.725   3.040   2.860  1.1768  0.2274  0.9901
18135TIP3    H275897   2.749   2.895   2.896  2.3078 -0.1389 -1.1622
18136TIP3   OH275898   5.333   2.326  11.227  0.1252 -0.2558 -0.1748
18136TIP3    H175899   5.365   2.280  11.149 -0.4583  1.9126 -1.7361
18136TIP3    H275900   5.239   2.307  11.229  0.2845 -1.0034  0.5009
18137TIP3   OH275901   1.378   2.273  11.209 -0.6372 -0.0680 -0.1203
18137TIP3    H175902   1.307   2.297  11.149  0.8896  2.7622 -0.8858
18137TIP3    H275903   1.443   2.230  11.153 -0.9426 -1.0095  0.2458
18138TIP3   OH275904   3.554   6.778   4.704 -0.6120 -0.3276  0.0268
18138TIP3    H175905   3.592   6.750   4.620  2.3476  1.0814  0.8526
18138TIP3    H275906   3.547   6.696   4.754 -0.7354 -0.9318 -0.9531
18139TIP3   OH275907   2.261   2.403  12.660 -0.1735 -0.4810  0.0005
18139TIP3    H175908   2.247   2.444  12.574  0.5811 -0.1299  0.0506
18139TIP3    H275909   2.213   2.320  12.654 -2.4708  0.7775  0.2204
18140TIP3   OH275910   5.716   5.940  15.252  0.0831  0.0198  0.2573
18140TIP3    H175911   5.683   5.885  15.182 -2.3628 -0.5451  1.8052
18140TIP3    H275912   5.661   6.018  15.250  1.2346  0.8576  0.3450
18141TIP3   OH275913   2.425   6.516   4.152  0.1811 -0.4329 -0.1844
18141TIP3    H175914   2.352   6.575   4.171  0.6956  0.1950 -0.1005
18141TIP3    H275915   2.434   6.462   4.231 -0.1385 -0.4492 -0.1610
18142TIP3   OH275916   2.404   2.432  13.546  0.3402  0.0186  0.1273
18142TIP3    H175917   2.381   2.385  13.627 -2.5606  1.2966  0.1385
18142TIP3    H275918   2.457   2.506  13.575  1.5764 -1.0125  0.5408
18143TIP3   OH275919   0.583   0.313  17.151  0.5129  0.3130  0.2033
18143TIP3    H175920   0.603   0.219  17.152 -1.5007 -0.1508 -0.5435
18143TIP3    H275921   0.531   0.325  17.071 -0.2868  1.8410  0.9481
18144TIP3   OH275922   3.113   2.653   2.150 -0.2290  0.2149  0.1962
18144TIP3    H175923   3.192   2.608   2.120  0.3932  1.2142  0.3177
18144TIP3    H275924   3.122   2.742   2.116 -0.3246  0.8945  1.9199
18145TIP3   OH275925   1.758   1.798   5.482  0.2415 -0.0470  0.5958
18145TIP3    H175926   1.668   1.771   5.464 -0.1331  0.5504  1.5476
18145TIP3    H275927   1.808   1.716   5.481  0.0280 -0.1857 -1.8293
18146TIP3   OH275928   2.436   6.077  16.644  0.0836 -0.5191 -0.3736
18146TIP3    H175929   2.355   6.053  16.689  0.2056 -1.2980 -0.5604
18146TIP3    H275930   2.414   6.155  16.593 -0.3998 -0.4033  0.0076
18147TIP3   OH275931   6.416   2.871  11.839  0.0380  0.0542  0.8334
18147TIP3    H175932   6.442   2.862  11.747 -0.1461 -0.4558  0.8290
18147TIP3    H275933   6.393   2.782  11.866 -1.3608  0.4361  0.9347
18148TIP3   OH275934   0.481   2.615   4.238  0.0912  0.3397 -0.3711
18148TIP3    H175935   0.550   2.678   4.261 -0.1725  0.7497 -0.6993
18148TIP3    H275936   0.529   2.541   4.200  0.7260 -1.2029  3.1723
18149TIP3   OH275937   2.295   1.271   0.159  0.1567  0.1250 -0.0670
18149TIP3    H175938   2.243   1.343   0.123  0.6864  0.9150  0.7262
18149TIP3    H275939   2.294   1.204   0.091 -0.7436  0.6882 -0.6183
18150TIP3   OH275940   0.135   3.278  16.825 -0.3030  0.4667  0.5959
18150TIP3    H175941   0.124   3.185  16.801  0.3989  0.3039  0.9058
18150TIP3    H275942   0.073   3.291  16.897 -2.0002  0.8050 -0.8845
18151TIP3   OH275943   6.417   3.934  15.230  0.1278  0.0494 -0.2718
18151TIP3    H175944   6.484   3.962  15.167  1.5589  0.0841  1.1952
18151TIP3    H275945   6.436   3.987  15.308  0.0457 -1.8107  1.0457
18152TIP3   OH275946   2.007   2.870  13.130  0.5092  0.4356 -0.0192
18152TIP3    H175947   2.069   2.797  13.129  0.1582  0.1115  0.9671
18152TIP3    H275948   1.994   2.892  13.038 -0.7057 -1.8945 -0.4557
18153TIP3   OH275949   2.643   0.241   5.744 -0.2952 -0.3699  0.6839
18153TIP3    H175950   2.609   0.153   5.761  0.0961 -0.4407  1.1093
18153TIP3    H275951   2.702   0.259   5.818 -2.8438  1.5390  2.3637
18154TIP3   OH275952   5.792   3.536   3.104 -0.1722  0.1156 -0.0737
18154TIP3    H175953   5.865   3.475   3.113  1.2342  1.7275 -0.3660
18154TIP3    H275954   5.745   3.530   3.188  1.2722  0.3168  0.7666
18155TIP3   OH275955   0.685   5.876   3.546  0.2604  0.0029 -0.1533
18155TIP3    H175956   0.728   5.871   3.631  0.4733 -1.4132 -0.3367
18155TIP3    H275957   0.688   5.969   3.523 -2.7567  0.9271  2.8772
18156TIP3   OH275958   2.151   5.174   3.774  0.5781 -0.8512  0.5180
18156TIP3    H175959   2.192   5.168   3.860  0.1805 -0.4144  0.7426
18156TIP3    H275960   2.057   5.169   3.792  0.2900  2.7363  0.4852
18157TIP3   OH275961   6.728   5.897   0.983  0.8755 -0.3624  0.0934
18157TIP3    H175962   6.747   5.968   0.922 -0.1955 -0.7149 -0.6512
18157TIP3    H275963   6.658   5.847   0.942  1.8525 -2.0706  0.4325
18158TIP3   OH275964   2.257   2.060   5.700 -0.1328 -0.1841 -0.0407
18158TIP3    H175965   2.174   2.060   5.652  1.6975  0.1713 -3.3731
18158TIP3    H275966   2.301   1.979   5.673  1.2135  0.3147  0.5695
18159TIP3   OH275967   6.250   1.472  16.027 -0.7872  0.0302  0.4376
18159TIP3    H175968   6.302   1.406  15.981  0.1960  1.5915 -0.7184
18159TIP3    H275969   6.290   1.477  16.114  0.5663  0.7094 -0.2103
18160TIP3   OH275970   0.882   6.637  11.382  0.1431 -0.4149 -0.2073
18160TIP3    H175971   0.913   6.728  11.388 -0.0977 -0.4859  3.1679
18160TIP3    H275972   0.788   6.644  11.403 -0.2181 -1.2552 -1.5508
18161TIP3   OH275973   2.046   2.978   3.180  0.6164  0.1081  0.2051
18161TIP3    H175974   2.058   2.917   3.107  0.6702 -0.8411  0.9983
18161TIP3    H275975   2.134   3.006   3.203  0.7149 -0.7310  0.8614
18162TIP3   OH275976   5.228   4.551  16.428 -0.2223  0.1816  0.1166
18162TIP3    H175977   5.309   4.597  16.449  0.3281  0.1417 -1.7785
18162TIP3    H275978   5.256   4.460  16.412 -0.6493  0.1294 -0.3687
18163TIP3   OH275979   2.446   6.407  15.296  0.1878  0.0481  0.3958
18163TIP3    H175980   2.433   6.500  15.274  0.3031 -0.0066  0.1036
18163TIP3    H275981   2.471   6.366  15.214  0.6311 -0.1524  0.6296
18164TIP3   OH275982   3.745   0.768   0.435  0.5349  0.0889 -0.3737
18164TIP3    H175983   3.752   0.838   0.500  1.6704 -1.4169  1.1613
18164TIP3    H275984   3.781   0.806   0.355  0.4197  1.5056  0.2347
18165TIP3   OH275985   6.300   1.417  16.294 -0.1871  0.7204 -0.6093
18165TIP3    H175986   6.234   1.365  16.339  0.6707 -0.9631 -1.2360
18165TIP3    H275987   6.287   1.507  16.325 -3.3269  0.5785 -1.4237
18166TIP3   OH275988   1.122   0.286   4.222  0.4753  0.3564  0.6704
18166TIP3    H175989   1.211   0.278   4.186  0.6144  0.2088  1.0474
18166TIP3    H275990   1.082   0.201   4.206 -0.1970  0.9777 -1.0889
18167TIP3   OH275991   5.413   2.788   0.096 -0.1944  0.3049  0.5465
18167TIP3    H175992   5.452   2.774   0.010  0.3737 -0.7219  0.9580
18167TIP3    H275993   5.484   2.822   0.150 -0.0046 -0.9747  1.1352
18168TIP3   OH275994   0.986   0.825   2.422  0.0400 -0.1256 -0.4350
18168TIP3    H175995   1.073   0.787   2.428 -0.4817 -1.0379  1.8443
18168TIP3    H275996   0.990   0.903   2.478 -0.5848 -0.1292 -0.3838
18169TIP3   OH275997   6.134   4.605   1.018  0.2653 -0.3217 -0.5245
18169TIP3    H175998   6.101   4.515   1.014  0.5082 -0.4003 -0.7442
18169TIP3    H275999   6.133   4.635   0.928  1.4176 -0.5506 -0.6291
18170TIP3   OH276000   4.151   0.306   6.061 -0.4462 -0.7132 -0.0802
18170TIP3    H176001   4.085   0.252   6.104 -0.6837 -1.3008 -1.1494
18170TIP3    H276002   4.120   0.312   5.970  0.0306  0.5045 -0.1650
18171TIP3   OH276003   3.481   4.191  14.051 -0.0569  0.2527 -0.3601
18171TIP3    H176004   3.530   4.159  14.127  1.1811 -0.6945 -1.5238
18171TIP3    H276005   3.389   4.184  14.077  0.2105 -3.0754 -0.0449
18172TIP3   OH276006   1.480   6.255   2.064  0.1445  0.2302 -0.1789
18172TIP3    H176007   1.488   6.164   2.092  0.1271  0.1933 -0.2906
18172TIP3    H276008   1.390   6.280   2.088 -0.8748 -0.7164 -2.8323
18173TIP3   OH276009   2.603   1.338   3.135  0.4757 -0.4738  0.4759
18173TIP3    H176010   2.559   1.388   3.203  1.5570  0.6644  0.3403
18173TIP3    H276011   2.547   1.349   3.058  0.8273  0.7294  0.3835
18174TIP3   OH276012   2.005   0.694   6.109  0.0021 -0.0863  0.2263
18174TIP3    H176013   2.090   0.675   6.069 -0.1496  0.8402 -0.5690
18174TIP3    H276014   2.000   0.790   6.110 -0.1704 -0.0959  2.1233
18175TIP3   OH276015   3.344   1.366   3.856  0.3136  0.0632 -0.1768
18175TIP3    H176016   3.437   1.368   3.877  0.2150 -1.9138  0.5736
18175TIP3    H276017   3.300   1.387   3.939  0.1082  3.6706 -1.1398
18176TIP3   OH276018   1.647   3.967   3.262 -0.3600  0.2449  0.0763
18176TIP3    H176019   1.724   4.011   3.297 -0.0822  0.2882 -0.5860
18176TIP3    H276020   1.601   4.033   3.211 -0.0250 -0.1735 -0.7885
18177TIP3   OH276021   0.511   1.188   4.248  0.3255  0.5080 -0.0586
18177TIP3    H176022   0.541   1.163   4.160  2.2728  2.3424  0.0558
18177TIP3    H276023   0.440   1.250   4.232 -0.1001 -0.0412 -0.3268
18178TIP3   OH276024   3.384   0.410   4.884  0.2854 -0.1664  0.0968
18178TIP3    H176025   3.350   0.378   4.801  0.0280  0.0711  0.1074
18178TIP3    H276026   3.387   0.333   4.941  2.4276 -0.7522 -0.7477
18179TIP3   OH276027   3.238   3.129   4.034 -0.4372  0.4333 -1.0377
18179TIP3    H176028   3.224   3.068   4.106  0.1490  2.8097  1.1647
18179TIP3    H276029   3.301   3.085   3.977 -2.4233 -2.3408 -1.2033
18180TIP3   OH276030   3.926   5.530   3.523 -0.6011  0.0719 -0.3825
18180TIP3    H176031   3.847   5.537   3.469 -0.0175  0.6135 -1.1700
18180TIP3    H276032   3.995   5.506   3.462 -0.3530 -1.4971  0.4807
18181TIP3   OH276033   4.395   1.534   1.637  0.3132 -0.2656  0.2723
18181TIP3    H176034   4.348   1.456   1.666  0.6245 -0.3855  0.4651
18181TIP3    H276035   4.473   1.499   1.593  1.1219 -0.0438  1.5136
18182TIP3   OH276036   5.209   5.927   0.038 -0.3281  0.3248 -0.1785
18182TIP3    H176037   5.218   5.831   0.038  1.7166  0.4940 -0.4197
18182TIP3    H276038   5.118   5.942   0.010 -0.6103 -1.5383 -0.3552
18183TIP3   OH276039   0.976   4.531  11.704 -0.2515 -0.3506 -0.0649
18183TIP3    H176040   1.018   4.613  11.730 -1.2027  0.1452 -0.0607
18183TIP3    H276041   0.967   4.538  11.609  0.8536 -1.0296 -0.2320
18184TIP3   OH276042   4.033   5.610   0.850 -0.1759  1.2514 -0.0121
18184TIP3    H176043   4.011   5.656   0.769 -1.4400  3.6022  1.5988
18184TIP3    H276044   3.950   5.571   0.878  0.8110 -1.9018 -1.1979
18185TIP3   OH276045   2.866   3.010   2.060  0.0363  0.0056 -0.1942
18185TIP3    H176046   2.958   3.033   2.047 -0.1554  0.5312 -0.6846
18185TIP3    H276047   2.818   3.088   2.031 -0.4789  0.7708  2.5938
18186TIP3   OH276048   5.660   5.549   2.887  0.5654 -0.0642  0.1953
18186TIP3    H176049   5.608   5.564   2.967  0.5191  0.5524  0.0501
18186TIP3    H276050   5.680   5.637   2.855 -1.0946 -0.3172 -1.5658
18187TIP3   OH276051   3.684   5.119   3.938 -0.0887  0.0425 -0.3631
18187TIP3    H176052   3.720   5.074   3.862  2.0825  0.1221  0.5899
18187TIP3    H276053   3.680   5.211   3.912  0.4295  0.0359 -0.4684
18188TIP3   OH276054   4.483   4.968   4.823 -0.4995 -0.2998  0.3065
18188TIP3    H176055   4.399   4.923   4.822 -0.1631 -0.9361 -0.2638
18188TIP3    H276056   4.523   4.945   4.739  0.6091 -0.7031  0.9370
18189TIP3   OH276057   0.795   3.618   5.833  0.3476  0.8467  0.2636
18189TIP3    H176058   0.824   3.682   5.899 -0.7445  1.4163  0.1959
18189TIP3    H276059   0.701   3.612   5.845  0.4450 -0.8182  0.3056
18190TIP3   OH276060   5.388   2.472  11.435 -0.1076 -0.1795 -0.2235
18190TIP3    H176061   5.465   2.514  11.395  0.8191 -1.8929 -0.3104
18190TIP3    H276062   5.366   2.401  11.375  0.8285 -2.3194  1.8612
18191TIP3   OH276063   1.502   3.379  11.038 -0.0168  0.1001  0.1425
18191TIP3    H176064   1.572   3.325  11.075  0.5752  1.1914  0.6292
18191TIP3    H276065   1.547   3.452  10.995 -0.8074  0.2055 -0.5238
18192TIP3   OH276066   2.743   4.003  15.475  0.1621 -0.3641 -0.1425
18192TIP3    H176067   2.679   4.023  15.543  0.6465  0.0188  0.2061
18192TIP3    H276068   2.692   3.994  15.395 -0.4963 -1.4022  0.3696
18193TIP3   OH276069   6.113   5.599   3.708  0.3727  0.0480  0.1787
18193TIP3    H176070   6.136   5.597   3.801  0.5613  0.4327  0.1410
18193TIP3    H276071   6.194   5.574   3.663 -0.0299 -1.2903  0.1627
18194TIP3   OH276072   1.235   6.456   1.466  0.6017 -0.2534  0.0326
18194TIP3    H176073   1.192   6.520   1.409 -0.1520  0.0633  0.9512
18194TIP3    H276074   1.328   6.465   1.445  0.3617  0.0768 -0.9227
18195TIP3   OH276075   4.161   6.403   1.569 -0.4037 -0.6850  0.0624
18195TIP3    H176076   4.199   6.409   1.481  1.2373 -1.2330  0.7131
18195TIP3    H276077   4.236   6.387   1.626 -1.2461  1.3892  1.7950
18196TIP3   OH276078   5.810   3.694  11.118  0.2326  0.3338 -0.7264
18196TIP3    H176079   5.866   3.766  11.146 -0.8433  1.2413 -0.9109
18196TIP3    H276080   5.833   3.622  11.177  1.2004  0.8555 -0.4539
18197TIP3   OH276081   3.442   2.862   2.706 -0.0427 -0.1432  0.2684
18197TIP3    H176082   3.377   2.879   2.773 -0.9090  0.4387 -0.6998
18197TIP3    H276083   3.407   2.788   2.656  0.0069  0.1923 -0.2756
18198TIP3   OH276084   5.688   0.396  16.703  0.1216 -0.0758  0.7112
18198TIP3    H176085   5.633   0.468  16.733 -0.4478  0.7996 -2.2884
18198TIP3    H276086   5.735   0.431  16.628  0.1195 -2.6879 -0.5690
18199TIP3   OH276087   2.263   6.290  13.155 -0.1562 -0.1350  0.7548
18199TIP3    H176088   2.228   6.351  13.090  0.7379 -0.4191 -0.0101
18199TIP3    H276089   2.358   6.302  13.151  0.0323 -1.4863  0.6636
18200TIP3   OH276090   6.362   5.022   1.185 -0.7164  0.9369 -0.1308
18200TIP3    H176091   6.360   5.106   1.231 -0.3525  0.9334 -0.1060
18200TIP3    H276092   6.453   5.010   1.160 -0.9709  1.0945 -1.1581
18201TIP3   OH276093   0.379   3.623  12.695  0.0197 -0.4551  0.6570
18201TIP3    H176094   0.435   3.547  12.713 -0.8557 -1.6402 -1.5191
18201TIP3    H276095   0.441   3.693  12.673  0.7439 -1.0594  0.7361
18202TIP3   OH276096   4.878   1.050   2.140  0.2358  0.5662  0.1736
18202TIP3    H176097   4.794   1.009   2.159  0.1094  1.6721  2.0958
18202TIP3    H276098   4.907   1.009   2.058 -2.5321  0.7561 -0.9399
18203TIP3   OH276099   2.958   3.838  14.541 -0.2424  0.7538 -0.5433
18203TIP3    H176100   3.049   3.835  14.569 -0.9030  0.4084  1.6223
18203TIP3    H276101   2.957   3.902  14.470  1.8350  0.0738 -1.2142
18204TIP3   OH276102   4.235   1.384  13.909 -0.1891 -0.1801 -0.0780
18204TIP3    H176103   4.208   1.421  13.825  1.0047 -1.3703 -1.0242
18204TIP3    H276104   4.320   1.343  13.891 -0.0064 -0.6231  1.6655
18205TIP3   OH276105   1.266   6.375  15.292  0.1428  0.1285 -0.1504
18205TIP3    H176106   1.315   6.298  15.321 -1.0845  0.6417  3.5029
18205TIP3    H276107   1.320   6.449  15.320 -1.0337  0.6424  0.7972
18206TIP3   OH276108   0.204   4.208  13.999  0.0539  0.0147  0.8016
18206TIP3    H176109   0.150   4.135  13.968  0.5929 -0.8237  1.8136
18206TIP3    H276110   0.261   4.169  14.065  1.4130  1.0454  0.2506
18207TIP3   OH276111   0.364   5.550   0.561  0.3642  0.3027 -0.1802
18207TIP3    H176112   0.459   5.564   0.560  0.4270  0.0948  1.7240
18207TIP3    H276113   0.338   5.564   0.652 -1.2749 -0.7697 -0.4584
18208TIP3   OH276114   6.319   4.176  11.593 -0.6811  0.0835  0.6034
18208TIP3    H176115   6.386   4.118  11.559 -0.9510  0.5526 -0.7768
18208TIP3    H276116   6.236   4.138  11.562 -0.7888  1.8973 -1.4580
18209TIP3   OH276117   4.072   5.732  15.771  0.4124 -0.0982  0.0041
18209TIP3    H176118   4.003   5.694  15.717  0.6553 -2.2963  1.1776
18209TIP3    H276119   4.140   5.757  15.709  0.0716 -1.2180 -0.8310
18210TIP3   OH276120   5.053   5.313  11.840 -0.5279  0.1340 -0.1449
18210TIP3    H176121   4.959   5.326  11.829 -0.6090  2.3138  2.5355
18210TIP3    H276122   5.094   5.376  11.781 -0.8017  1.4886  1.0886
18211TIP3   OH276123   2.587   1.547   5.712 -0.1276 -0.2989  0.0889
18211TIP3    H176124   2.659   1.574   5.769  0.0189 -1.1200  0.2951
18211TIP3    H276125   2.533   1.489   5.766  0.3084 -1.5250 -0.7577
18212TIP3   OH276126   1.138   4.524  17.187 -0.0983 -0.5111  0.4877
18212TIP3    H176127   1.082   4.593  17.222  0.8039  0.2369  0.4662
18212TIP3    H276128   1.146   4.544  17.094  0.9906 -0.0628  0.6752
18213TIP3   OH276129   4.712   5.644  12.720  0.2796  0.1862  0.0143
18213TIP3    H176130   4.627   5.631  12.761 -0.0193 -0.4504 -0.7818
18213TIP3    H276131   4.765   5.570  12.750  1.0024  1.3203  1.6125
18214TIP3   OH276132   2.894   4.838   5.582  0.1883 -0.2851 -0.6143
18214TIP3    H176133   2.937   4.893   5.517  0.4009 -0.1901 -0.3963
18214TIP3    H276134   2.860   4.764   5.533 -0.8231  0.4550 -1.0356
18215TIP3   OH276135   1.733   1.557   2.861  0.0003 -0.1296  0.0296
18215TIP3    H176136   1.751   1.502   2.937 -0.2221 -1.7776 -1.0901
18215TIP3    H276137   1.793   1.525   2.794 -0.2531  0.8867 -0.6902
18216TIP3   OH276138   3.977   2.085   0.075 -0.3845 -0.0924  0.2008
18216TIP3    H176139   3.947   2.031   0.148  1.5037 -1.1999  0.1948
18216TIP3    H276140   3.953   2.034  -0.003 -0.3085 -0.0229  0.1343
18217TIP3   OH276141   3.425   6.319  13.176  0.0245  0.4572  0.5356
18217TIP3    H176142   3.438   6.363  13.093 -0.9622  0.3189  0.3095
18217TIP3    H276143   3.474   6.237  13.167 -2.2580 -0.7825 -0.9042
18218TIP3   OH276144   0.752   6.339   0.826  0.7029 -0.0448  0.2208
18218TIP3    H176145   0.710   6.383   0.752  0.6228 -1.5777 -0.6752
18218TIP3    H276146   0.845   6.339   0.804  0.5128 -2.0489 -0.7809
18219TIP3   OH276147   1.981   2.882   1.266 -0.1494  0.1968 -0.2402
18219TIP3    H176148   1.912   2.867   1.330  1.3810 -0.0172  1.4120
18219TIP3    H276149   1.940   2.868   1.181 -1.6757 -1.6870  0.7973
18220TIP3   OH276150   3.680   0.496   4.454 -0.3665  0.4990 -0.0273
18220TIP3    H176151   3.724   0.458   4.378 -1.1003  2.4939 -1.5080
18220TIP3    H276152   3.733   0.573   4.475 -0.5895  0.3660  1.0220
18221TIP3   OH276153   1.559   3.578   2.516 -0.0755 -0.0162  0.1683
18221TIP3    H176154   1.626   3.604   2.579  0.2004 -1.5621  0.5342
18221TIP3    H276155   1.603   3.513   2.460 -0.5639  0.7335 -1.0942
18222TIP3   OH276156   6.599   1.560  15.346 -0.0922 -0.6768 -0.1118
18222TIP3    H176157   6.636   1.483  15.390  0.8326 -0.2588 -0.1428
18222TIP3    H276158   6.644   1.634  15.386  0.1458 -0.2418 -1.1570
18223TIP3   OH276159   4.604   6.323   1.808 -0.1990 -0.0478 -0.0229
18223TIP3    H176160   4.602   6.296   1.716  1.2455 -0.7604  0.1281
18223TIP3    H276161   4.637   6.413   1.807 -0.1646 -0.0627 -0.2093
18224TIP3   OH276162   4.342   1.195  14.373  0.4606  0.5512 -0.1968
18224TIP3    H176163   4.420   1.246  14.394  0.7763  0.1324 -0.3602
18224TIP3    H276164   4.374   1.122  14.320  0.1292 -0.2507  0.6787
18225TIP3   OH276165   0.742   4.687  11.990 -0.0839 -0.1184  0.0538
18225TIP3    H176166   0.761   4.624  11.921 -0.4992 -1.3177  1.0082
18225TIP3    H276167   0.693   4.757  11.946 -1.2902 -1.3926 -0.6633
18226TIP3   OH276168   3.135   6.577   0.811  0.1124  0.1191 -0.6676
18226TIP3    H176169   3.198   6.575   0.884 -0.1273 -0.1396 -0.4652
18226TIP3    H276170   3.172   6.516   0.747  2.0316  2.7998 -2.2039
18227TIP3   OH276171   3.483   5.791  16.723  0.0827  0.2987 -0.1148
18227TIP3    H176172   3.523   5.710  16.692  0.7657  0.6986 -0.2889
18227TIP3    H276173   3.417   5.812  16.657 -0.3578 -0.3119  0.1257
18228TIP3   OH276174   5.187   3.160   0.136 -0.1817  1.0605 -0.4774
18228TIP3    H176175   5.198   3.209   0.218 -2.2142  0.8085 -0.0210
18228TIP3    H276176   5.092   3.149   0.127  0.0876 -0.1676 -2.1413
18229TIP3   OH276177   4.039   3.784  15.400  0.5911 -0.6272 -0.4296
18229TIP3    H176178   3.944   3.775  15.407  0.0695  2.9031 -1.7773
18229TIP3    H276179   4.056   3.796  15.307  1.9417  2.1665  0.1268
18230TIP3   OH276180   5.582   2.744   0.665 -0.0129  0.4601  0.1289
18230TIP3    H176181   5.573   2.836   0.641 -2.3832 -0.1526 -1.5477
18230TIP3    H276182   5.613   2.701   0.584  0.0440 -0.3749  0.5884
18231TIP3   OH276183   5.354   3.012   1.811  0.2303 -0.0691 -0.1955
18231TIP3    H176184   5.278   2.975   1.766 -0.9205  2.0255 -0.0026
18231TIP3    H276185   5.326   3.024   1.901  1.0011  0.1308  0.0217
18232TIP3   OH276186   3.210   3.822  14.688  0.5254  0.4041 -0.3457
18232TIP3    H176187   3.225   3.879  14.764  0.0218  0.5221 -0.3303
18232TIP3    H276188   3.289   3.832  14.635  0.1611  1.6753 -0.6847
18233TIP3   OH276189   5.318   2.597   1.928 -0.4254  0.3131 -0.0296
18233TIP3    H176190   5.228   2.576   1.906 -0.5854  2.7374 -1.8806
18233TIP3    H276191   5.315   2.621   2.021 -1.8153  0.9319 -0.2224
18234TIP3   OH276192   2.091   5.956   4.412  0.1416  0.1483 -0.1215
18234TIP3    H176193   2.077   5.869   4.449  0.2020 -0.1399 -0.7654
18234TIP3    H276194   2.057   6.016   4.478 -1.7763 -0.4342 -0.5159
18235TIP3   OH276195   3.529   2.861  15.732  0.1278 -0.9746  0.1118
18235TIP3    H176196   3.440   2.890  15.715  0.0425 -1.6976 -0.7426
18235TIP3    H276197   3.532   2.772  15.697  0.3831 -2.0196  2.7006
18236TIP3   OH276198   6.395   5.362  13.131 -0.1178  0.1060  0.3097
18236TIP3    H176199   6.396   5.395  13.041  2.3706 -0.6423  0.0265
18236TIP3    H276200   6.384   5.267  13.122 -2.9371  0.3365  0.9501
18237TIP3   OH276201   5.500   3.466  17.064  0.1748 -0.2781 -0.1952
18237TIP3    H176202   5.508   3.372  17.081 -0.2372 -0.4253 -0.8118
18237TIP3    H276203   5.528   3.507  17.146 -0.5363 -0.9521  0.3945
18238TIP3   OH276204   4.275   3.589  12.470  0.3202  0.0881  0.2307
18238TIP3    H176205   4.272   3.680  12.438 -3.5722  0.1908  0.6170
18238TIP3    H276206   4.245   3.537  12.396  2.5965 -0.9503 -0.0001
18239TIP3   OH276207   2.425   0.188   0.481 -0.7677 -0.3503  0.5630
18239TIP3    H176208   2.490   0.259   0.480 -0.3976 -0.6997 -0.4577
18239TIP3    H276209   2.345   0.227   0.448 -0.4663 -0.4945 -0.3468
18240TIP3   OH276210   4.064   1.306  15.846  0.5924  0.1113  0.4197
18240TIP3    H176211   4.076   1.232  15.905 -1.0425 -0.2494  0.3280
18240TIP3    H276212   4.073   1.269  15.758  1.4853  0.3503  0.4120
18241TIP3   OH276213   1.848   4.457  16.292 -0.2512  0.2464  0.6172
18241TIP3    H176214   1.857   4.421  16.380 -1.7593  1.9975  1.5039
18241TIP3    H276215   1.857   4.552  16.304 -0.2224  0.4809 -1.1562
18242TIP3   OH276216   5.316   2.860  12.221 -0.2813  0.5391 -0.6636
18242TIP3    H176217   5.285   2.917  12.291 -1.0544  0.6069 -1.0532
18242TIP3    H276218   5.335   2.777  12.265 -2.1576  0.1192 -0.5951
18243TIP3   OH276219   2.638   5.118  14.175  0.0356  0.4875 -0.0879
18243TIP3    H176220   2.623   5.028  14.149  0.5614 -0.0537  1.4186
18243TIP3    H276221   2.552   5.160  14.169 -0.1445 -0.0213 -1.1052
18244TIP3   OH276222   4.265   6.555   6.159 -0.3525 -0.3953 -0.0362
18244TIP3    H176223   4.335   6.557   6.225 -1.3678 -1.7072  1.1203
18244TIP3    H276224   4.241   6.647   6.147  0.1224 -0.0957  1.1667
18245TIP3   OH276225   3.581   5.966   1.994 -0.4598  0.0692  0.3648
18245TIP3    H176226   3.495   5.923   1.989 -0.4760 -0.0796  1.7906
18245TIP3    H276227   3.561   6.059   1.995 -0.5479  0.0613 -0.2906
18246TIP3   OH276228   0.164   6.786  12.385 -0.6710 -0.6109  0.3813
18246TIP3    H176229   0.252   6.753  12.372 -0.4814 -0.1292  0.4316
18246TIP3    H276230   0.156   6.860  12.324 -1.3179 -1.1611 -0.2013
18247TIP3   OH276231   0.340   4.790  14.806  0.1667  0.1164  0.0558
18247TIP3    H176232   0.338   4.873  14.854  2.8918  1.6494 -2.3097
18247TIP3    H276233   0.262   4.792  14.751  0.3003  1.2282 -0.1157
18248TIP3   OH276234   0.443   5.502  13.783 -0.5257  0.0751 -0.0707
18248TIP3    H176235   0.421   5.587  13.822 -2.3541 -0.4240  0.0071
18248TIP3    H276236   0.500   5.524  13.709 -1.5260  1.4317 -0.4533
18249TIP3   OH276237   1.743   0.537  11.186 -0.1098  0.0979 -0.6818
18249TIP3    H176238   1.751   0.631  11.170 -0.1063 -0.3863 -3.6984
18249TIP3    H276239   1.819   0.499  11.142 -0.1887 -1.3603  0.4103
18250TIP3   OH276240   3.888   6.035  13.183 -0.2913 -0.5028  0.5966
18250TIP3    H176241   3.973   6.006  13.215  0.7985  1.7473 -0.1597
18250TIP3    H276242   3.890   6.130  13.191 -2.0752 -0.2914 -1.0220
18251TIP3   OH276243   4.811   3.943  15.292 -0.4232  0.1172  0.1537
18251TIP3    H176244   4.839   3.948  15.201 -2.0408 -1.1030 -0.4414
18251TIP3    H276245   4.753   4.019  15.303 -1.0913 -0.3323 -0.1735
18252TIP3   OH276246   5.834   6.657   4.209 -0.2866  0.2606 -0.3177
18252TIP3    H176247   5.927   6.636   4.197 -0.3391 -0.2520  0.1163
18252TIP3    H276248   5.825   6.746   4.177  0.0635 -0.1975 -1.7218
18253TIP3   OH276249   6.051   4.496   2.681  0.6202  0.1640  0.2529
18253TIP3    H176250   5.991   4.421   2.690 -1.3292  1.5459 -0.8360
18253TIP3    H276251   6.027   4.535   2.597  2.2221  1.4880  0.4039
18254TIP3   OH276252   1.811   1.167  10.935  0.3350  0.1337 -0.0139
18254TIP3    H176253   1.819   1.197  11.026 -0.0564  0.8880 -0.2259
18254TIP3    H276254   1.738   1.105  10.936 -0.6280  1.2684 -0.1001
18255TIP3   OH276255   4.364   1.066   2.932  0.5964  0.0976 -0.1007
18255TIP3    H176256   4.319   1.083   2.850  0.7666 -1.2531 -0.4766
18255TIP3    H276257   4.440   1.013   2.908  1.4325  0.8760  0.7496
18256TIP3   OH276258   3.308   6.406  16.027 -0.1879 -0.7544 -0.0247
18256TIP3    H176259   3.302   6.328  16.083  0.1382 -0.5016  0.3673
18256TIP3    H276260   3.227   6.453  16.043 -0.5730 -1.2231 -0.5792
18257TIP3   OH276261   1.031   0.583   5.773 -0.4196 -0.0949  0.0056
18257TIP3    H176262   0.989   0.643   5.711 -0.0202  0.6795  0.4692
18257TIP3    H276263   0.987   0.601   5.856  0.1337  0.0083  0.2783
18258TIP3   OH276264   0.078   0.979  10.771 -0.2709 -0.2093 -1.0061
18258TIP3    H176265   0.145   1.013  10.710  0.6608 -0.0097  0.1144
18258TIP3    H276266   0.115   0.896  10.802  0.7316  1.2383  1.7393
18259TIP3   OH276267   1.727   6.297  15.739 -0.2461 -0.1046  0.8274
18259TIP3    H176268   1.727   6.210  15.699 -0.9737 -0.1750  0.9755
18259TIP3    H276269   1.731   6.281  15.833 -0.5274  0.0181  0.8619
18260TIP3   OH276270   2.365   6.309  16.487 -0.4399  0.0540  0.0019
18260TIP3    H176271   2.325   6.395  16.470  0.5287  0.0715 -2.3760
18260TIP3    H276272   2.335   6.254  16.415  2.2235 -0.4665 -0.7469
18261TIP3   OH276273   1.885   1.457   2.648 -0.2785 -0.1430  0.4568
18261TIP3    H176274   1.951   1.389   2.631  1.1555  1.4855 -0.7132
18261TIP3    H276275   1.809   1.429   2.598  0.2293 -0.9896  0.1386
18262TIP3   OH276276   3.809   5.367   5.138 -0.1194  0.0044  0.2746
18262TIP3    H176277   3.777   5.454   5.114 -0.8360 -0.4753 -0.5460
18262TIP3    H276278   3.751   5.307   5.092  1.6337 -0.8947 -0.8281
18263TIP3   OH276279   2.940   3.580  15.055 -0.1162  0.4831 -0.3211
18263TIP3    H176280   2.863   3.524  15.044  0.2597 -0.2428  0.6165
18263TIP3    H276281   2.904   3.666  15.079 -0.5955 -0.5480  2.9071
18264TIP3   OH276282   2.929   4.290   1.708  0.1534  0.0328  0.2825
18264TIP3    H176283   2.872   4.217   1.683  1.1512 -0.2773 -1.1647
18264TIP3    H276284   2.965   4.321   1.625  0.3347  1.6836  0.9695
18265TIP3   OH276285   3.749   5.831  12.223 -0.2542 -0.4321  0.0288
18265TIP3    H176286   3.824   5.856  12.170  0.4237  0.0415  1.1896
18265TIP3    H276287   3.787   5.806  12.307 -1.4462  0.3660  0.8120
18266TIP3   OH276288   0.748   5.699   1.941  0.4545 -0.4103  0.0817
18266TIP3    H176289   0.823   5.645   1.966  1.1313  0.8496  0.7968
18266TIP3    H276290   0.768   5.728   1.852  0.3074 -0.9533 -0.1303
18267TIP3   OH276291   1.633   0.351  14.130  0.4980 -0.1409 -0.2080
18267TIP3    H176292   1.595   0.358  14.218  1.7026  0.5005  0.2654
18267TIP3    H276293   1.605   0.265  14.099  2.2728 -1.5240  1.8684
18268TIP3   OH276294   2.510   0.772   3.081  0.0122  0.1814  0.1125
18268TIP3    H176295   2.557   0.724   3.013 -0.4717  0.0348 -0.1272
18268TIP3    H276296   2.473   0.848   3.037 -3.9070 -2.1204 -0.8150
18269TIP3   OH276297   6.754   1.558  11.664  0.3183 -1.1628 -0.3576
18269TIP3    H176298   6.805   1.518  11.735  1.0286 -0.1691 -0.2938
18269TIP3    H276299   6.772   1.504  11.588 -0.4994 -2.2782  0.2301
18270TIP3   OH276300   5.065   4.764  12.347  0.8249  0.4845 -0.5815
18270TIP3    H176301   5.085   4.679  12.387 -4.6444 -1.1412 -0.8914
18270TIP3    H276302   5.056   4.824  12.421 -0.4544 -0.4655  0.0620
18271TIP3   OH276303   6.816   2.986   0.923 -0.6641 -0.3393 -0.2878
18271TIP3    H176304   6.869   2.951   0.995 -0.7366  1.5629  0.7137
18271TIP3    H276305   6.873   3.049   0.880 -1.3357  0.0469 -0.6126
18272TIP3   OH276306   5.730   4.700   4.231 -0.4072 -0.2953  0.8389
18272TIP3    H176307   5.764   4.789   4.245 -0.6319 -0.0732 -0.0085
18272TIP3    H276308   5.638   4.713   4.209 -0.0795 -0.6276 -0.8045
18273TIP3   OH276309   5.060   5.331   0.092 -0.2266 -0.8589 -0.3475
18273TIP3    H176310   5.123   5.348   0.162  0.6610  1.0832 -1.6124
18273TIP3    H276311   4.980   5.375   0.121  0.2690  0.3186 -0.7443
18274TIP3   OH276312   1.119   0.640   4.108  0.6282  0.5555 -0.0707
18274TIP3    H176313   1.201   0.664   4.152  1.7671  0.3344 -1.9982
18274TIP3    H276314   1.148   0.587   4.033 -1.3979 -0.9980  0.2149
18275TIP3   OH276315   1.095   4.493   5.401  0.0782  0.7522 -0.1137
18275TIP3    H176316   1.181   4.533   5.386 -0.7895  2.7315  0.0247
18275TIP3    H276317   1.091   4.421   5.338  1.5297  1.1149 -0.6542
18276TIP3   OH276318   5.051   2.755  13.815  0.1706  0.7056 -0.3619
18276TIP3    H176319   4.969   2.719  13.849  0.8474  0.2680  0.8238
18276TIP3    H276320   5.108   2.680  13.805  0.3239  0.9622 -1.5541
18277TIP3   OH276321   1.858   4.513  13.939  0.2509 -0.2165  0.0105
18277TIP3    H176322   1.765   4.535  13.940  0.5992  1.4701 -1.3628
18277TIP3    H276323   1.894   4.566  13.868  2.3690 -0.3921  0.9181
18278TIP3   OH276324   0.032   0.914  11.637 -0.2117  0.4904  0.1926
18278TIP3    H176325   0.039   0.823  11.666  0.6194  0.6751  0.5807
18278TIP3    H276326  -0.025   0.956  11.703 -1.5133  0.0049 -0.5942
18279TIP3   OH276327   1.390   1.307  12.944  0.3513  0.0170  0.5549
18279TIP3    H176328   1.419   1.395  12.966  1.5471 -0.9885  3.3149
18279TIP3    H276329   1.446   1.281  12.871  0.6957  1.1930  0.3977
18280TIP3   OH276330   1.257   4.160   3.392 -0.0343  0.2690 -0.6422
18280TIP3    H176331   1.252   4.162   3.488 -0.8416  2.4081 -0.6872
18280TIP3    H276332   1.175   4.119   3.365  0.7408 -1.4900 -0.4174
18281TIP3   OH276333   1.859   3.077   4.439  0.4777 -0.7967 -0.0479
18281TIP3    H176334   1.935   3.062   4.495  1.5080  2.4301 -0.4848
18281TIP3    H276335   1.896   3.092   4.352 -0.6760  0.3840 -0.3438
18282TIP3   OH276336   1.953   4.581   2.563 -0.7485 -0.8138  0.5387
18282TIP3    H176337   1.906   4.617   2.638 -0.9021 -0.2393  0.1666
18282TIP3    H276338   1.942   4.646   2.494  0.0356 -0.9802  0.2493
18283TIP3   OH276339   1.566   4.068   3.995  0.4037 -0.4832 -0.4230
18283TIP3    H176340   1.626   4.134   3.961 -1.4372  1.0067 -0.8999
18283TIP3    H276341   1.551   4.009   3.921 -0.0773  0.1599 -0.8453
18284TIP3   OH276342   4.824   3.026  12.434 -0.4308 -0.1743 -0.3566
18284TIP3    H176343   4.832   3.027  12.339 -0.0502  0.1064 -0.3236
18284TIP3    H276344   4.751   2.968  12.452 -1.1875  0.6140 -0.8736
18285TIP3   OH276345   4.460   0.761   0.783 -0.0047 -0.4680 -0.4992
18285TIP3    H176346   4.490   0.756   0.874 -0.3920  2.2796 -0.1651
18285TIP3    H276347   4.540   0.771   0.732  0.1800 -1.4919 -0.4173
18286TIP3   OH276348   2.744   5.123   4.096 -0.0367 -0.2697  0.1964
18286TIP3    H176349   2.769   5.113   4.188 -0.3321 -1.5402  0.1457
18286TIP3    H276350   2.781   5.047   4.052  0.9192  0.8247 -0.9206
18287TIP3   OH276351   4.087   1.867   4.884 -0.7148  1.2201 -0.2629
18287TIP3    H176352   4.147   1.939   4.863 -1.7984  1.5578 -2.3056
18287TIP3    H276353   4.024   1.866   4.812 -1.3009 -1.1558  0.2339
18288TIP3   OH276354   1.743   2.386   2.256 -0.1851  0.2279 -0.7226
18288TIP3    H176355   1.706   2.312   2.304  1.2203 -0.7328 -1.0874
18288TIP3    H276356   1.715   2.372   2.165  0.4738 -0.1330 -0.8773
18289TIP3   OH276357   4.164   4.216  15.324  0.1202  0.0766 -0.2960
18289TIP3    H176358   4.076   4.253  15.325 -0.3722 -0.9997  3.6268
18289TIP3    H276359   4.150   4.122  15.335  1.7769 -0.0261  1.1025
18290TIP3   OH276360   0.379   6.211   4.816  0.1442 -0.3308 -0.2098
18290TIP3    H176361   0.283   6.214   4.813  0.1077 -0.8403  0.5588
18290TIP3    H276362   0.402   6.125   4.781  0.3160 -0.3405 -0.0723
18291TIP3   OH276363   2.279   2.504  14.936  0.3228 -0.0488  0.2041
18291TIP3    H176364   2.357   2.475  14.983 -1.1209 -3.3744  0.7494
18291TIP3    H276365   2.309   2.524  14.848  1.9692 -0.2671  0.7044
18292TIP3   OH276366   1.754   5.220   1.299 -0.2283  0.5424 -0.0359
18292TIP3    H176367   1.744   5.126   1.283  2.2076  0.1011  0.7210
18292TIP3    H276368   1.750   5.260   1.212 -2.9619 -0.0362 -0.2237
18293TIP3   OH276369   5.607   3.184   5.610  0.5123  0.0781 -0.1119
18293TIP3    H176370   5.527   3.139   5.583  1.1134 -0.4852 -0.9926
18293TIP3    H276371   5.600   3.190   5.705 -0.2765 -0.5424 -0.1211
18294TIP3   OH276372   6.253   3.030  13.676  0.0246 -0.3251 -0.1957
18294TIP3    H176373   6.248   2.953  13.734 -1.9462 -0.5435 -0.6395
18294TIP3    H276374   6.202   3.097  13.721  1.5849  0.7120  0.0963
18295TIP3   OH276375   3.430   3.051   3.855  0.4140 -0.1934 -0.0233
18295TIP3    H176376   3.398   2.961   3.848 -0.8637  0.0067  2.8546
18295TIP3    H276377   3.502   3.046   3.917  0.8379  0.6712 -0.4385
18296TIP3   OH276378   4.170   0.377   4.228  0.0503  0.1711  0.4831
18296TIP3    H176379   4.192   0.389   4.321 -1.6377 -1.0428  1.0508
18296TIP3    H276380   4.148   0.285   4.221  0.5476  0.1801 -1.2210
18297TIP3   OH276381   5.332   0.391   3.318 -0.0401  0.1816 -0.0782
18297TIP3    H176382   5.399   0.446   3.277 -0.2917  0.4670 -0.1079
18297TIP3    H276383   5.272   0.453   3.359  1.2394 -0.0997  2.3678
18298TIP3   OH276384   1.614   1.884  14.148 -0.5076  0.1646  0.2946
18298TIP3    H176385   1.523   1.910  14.130  0.1951  2.2615 -0.4065
18298TIP3    H276386   1.627   1.805  14.096 -1.8604 -0.0451  0.2450
18299TIP3   OH276387   1.762   1.787   1.752  0.0163  0.1939 -0.6702
18299TIP3    H176388   1.828   1.810   1.686  1.2209  1.3213  0.8976
18299TIP3    H276389   1.712   1.868   1.766  1.5376  0.7493  1.7717
18300TIP3   OH276390   1.363   6.764  16.088 -0.0773 -0.1464 -0.0276
18300TIP3    H176391   1.367   6.671  16.112 -0.8452 -0.3079 -0.5159
18300TIP3    H276392   1.374   6.764  15.993  1.7283  0.4001  0.1517
18301TIP3   OH276393   6.539   5.965   5.321 -0.4865 -0.5467  0.6872
18301TIP3    H176394   6.562   5.937   5.232  0.8042  2.4205  0.0327
18301TIP3    H276395   6.472   6.032   5.308 -0.7767 -0.5649  2.0215
18302TIP3   OH276396   3.262   2.346  13.595  0.0712 -0.6826  0.5014
18302TIP3    H176397   3.251   2.351  13.500  0.3476 -0.2686  0.4929
18302TIP3    H276398   3.261   2.252  13.613 -1.1346 -0.7451  0.2226
18303TIP3   OH276399   6.687   1.395   1.260 -0.0159  0.5538  0.1265
18303TIP3    H176400   6.758   1.458   1.253  0.1836  0.1998 -1.1592
18303TIP3    H276401   6.667   1.371   1.169 -1.3961  0.2341  0.4980
18304TIP3   OH276402   3.612   0.472  16.768 -0.5601 -0.4430  0.3451
18304TIP3    H176403   3.598   0.403  16.833 -1.2494 -1.0554 -0.4455
18304TIP3    H276404   3.688   0.521  16.801 -0.5087 -1.1381  1.2768
18305TIP3   OH276405   4.862   5.718   4.038  0.3538 -0.7996 -0.4237
18305TIP3    H176406   4.837   5.765   3.959 -0.6810  0.6323  0.7086
18305TIP3    H276407   4.829   5.629   4.024 -2.0605  0.0659 -0.6047
18306TIP3   OH276408   2.054   6.484  12.222  0.7540  0.1064  0.1529
18306TIP3    H176409   2.127   6.499  12.162 -0.7391  2.2377 -1.1956
18306TIP3    H276410   2.066   6.550  12.290  0.4894 -0.0209  0.3231
18307TIP3   OH276411   4.405   5.790  15.235 -0.0397  0.8361  0.2047
18307TIP3    H176412   4.377   5.716  15.181  1.2212  0.0924  0.5586
18307TIP3    H276413   4.444   5.852  15.173 -0.0281  0.6851  0.0621
18308TIP3   OH276414   5.293   3.468  16.875  0.3078  0.0548 -0.6052
18308TIP3    H176415   5.294   3.376  16.847  0.2406  0.7451 -3.0359
18308TIP3    H276416   5.369   3.477  16.932  0.1034 -1.5942 -0.0549
18309TIP3   OH276417   6.817   6.215  11.428  0.1223 -0.1672  0.5835
18309TIP3    H176418   6.818   6.285  11.362 -2.7822  0.6817  1.3307
18309TIP3    H276419   6.807   6.261  11.511  0.4500 -1.3905  1.3074
18310TIP3   OH276420   3.578   5.788   2.745  0.0697 -0.4196 -0.3193
18310TIP3    H176421   3.656   5.836   2.717  0.0863 -0.3427 -0.1445
18310TIP3    H276422   3.597   5.697   2.723  0.2228 -0.4058 -0.2470
18311TIP3   OH276423   3.804   0.134   1.388  0.0988  0.4030 -0.6230
18311TIP3    H176424   3.887   0.174   1.413 -0.8773  1.5577  0.8849
18311TIP3    H276425   3.813   0.042   1.414  0.4836  0.7710  0.5699
18312TIP3   OH276426   3.490   1.366   2.396 -0.4028  0.6521 -0.0604
18312TIP3    H176427   3.493   1.426   2.470  1.0565  1.0931 -0.4610
18312TIP3    H276428   3.560   1.396   2.338 -0.5984 -0.5609 -0.9406
18313TIP3   OH276429   3.544   5.652   4.519  0.0243  0.1651 -0.4233
18313TIP3    H176430   3.479   5.602   4.470  1.3244  0.7231 -2.7528
18313TIP3    H276431   3.615   5.590   4.535 -0.2319  0.0900  0.4552
18314TIP3   OH276432   2.869   2.993  12.783 -0.2497  0.4728  0.2108
18314TIP3    H176433   2.871   2.915  12.729  1.0491  0.6496  0.0083
18314TIP3    H276434   2.890   2.962  12.871  1.9294  0.8308 -0.1630
18315TIP3   OH276435   3.709   5.547   1.523 -0.0995  0.1949 -0.3332
18315TIP3    H176436   3.756   5.572   1.603 -1.6536 -0.1575  0.7123
18315TIP3    H276437   3.637   5.493   1.554 -0.5396 -0.1924 -2.0200
18316TIP3   OH276438   1.514   6.054  14.671  0.4278 -0.1144  0.0667
18316TIP3    H176439   1.542   6.106  14.747  1.4223  1.1046 -1.1077
18316TIP3    H276440   1.422   6.076  14.659  0.2711 -0.2990  0.9010
18317TIP3   OH276441   6.798   4.344   5.833 -0.1197 -0.0209 -0.2439
18317TIP3    H176442   6.851   4.264   5.830 -0.4873 -0.2878  0.3437
18317TIP3    H276443   6.862   4.415   5.829  0.2188 -0.3492 -0.6169
18318TIP3   OH276444   4.101   2.703   6.484  0.1885  0.1996 -0.5089
18318TIP3    H176445   4.190   2.674   6.504  0.3728  1.1675  0.1065
18318TIP3    H276446   4.058   2.625   6.448  1.2306 -0.3195 -0.6599
18319TIP3   OH276447   3.555   2.911  16.036 -1.0749  0.2676 -0.1355
18319TIP3    H176448   3.531   2.908  15.944 -0.9983  1.2398 -0.1866
18319TIP3    H276449   3.491   2.970  16.076  0.5987  2.0958 -0.0918
18320TIP3   OH276450   6.026   6.596   3.181  0.1259  0.0987 -0.2766
18320TIP3    H176451   6.028   6.688   3.209  1.9084  0.7750 -2.4891
18320TIP3    H276452   5.963   6.595   3.109 -1.1316 -0.7642  0.8124
18321TIP3   OH276453   1.078   4.178   0.266  0.1342 -0.5160 -0.7811
18321TIP3    H176454   1.052   4.233   0.192  0.3539  0.2477 -0.2889
18321TIP3    H276455   1.081   4.089   0.229 -3.6190 -0.7357 -0.7478
18322TIP3   OH276456   2.687   2.730   4.357  0.6297 -0.2604 -0.3306
18322TIP3    H176457   2.746   2.711   4.284  1.5664 -1.1100  0.6159
18322TIP3    H276458   2.692   2.825   4.368  0.3645 -0.1109 -1.4633
18323TIP3   OH276459   4.940   6.505   5.623  0.0544 -0.1315  0.2835
18323TIP3    H176460   5.023   6.552   5.636 -0.3399  2.0446 -3.8506
18323TIP3    H276461   4.965   6.428   5.572  0.0025 -1.6486  2.5061
18324TIP3   OH276462   0.102   1.968  12.083 -0.4442  0.6027 -1.1463
18324TIP3    H176463   0.012   1.988  12.058 -0.1248  3.6063 -0.1136
18324TIP3    H276464   0.135   1.912  12.013 -3.7262 -2.2984 -0.4628
18325TIP3   OH276465   5.879   3.990   0.387 -0.7403 -0.3310  0.2226
18325TIP3    H176466   5.971   3.972   0.368 -0.7204 -0.6123  0.5733
18325TIP3    H276467   5.857   4.064   0.330  0.7329  2.1209  2.6544
18326TIP3   OH276468   5.422   3.092  17.278 -0.3605  0.1720  0.8473
18326TIP3    H176469   5.423   3.056  17.367 -0.8806 -0.4928  0.5965
18326TIP3    H276470   5.502   3.145  17.273  1.0356 -1.8395  0.8874
18327TIP3   OH276471   0.416   0.521   1.018 -0.6073 -0.3512 -0.1762
18327TIP3    H176472   0.427   0.522   1.114  1.4715 -1.2626 -0.3756
18327TIP3    H276473   0.489   0.572   0.985 -1.2806 -0.1039 -1.3073
18328TIP3   OH276474   0.275   3.760  13.528 -0.5190  0.2088 -0.0434
18328TIP3    H176475   0.304   3.841  13.484  0.7602  0.5425  1.3868
18328TIP3    H276476   0.308   3.690  13.472 -2.2191  0.6475 -1.6649
18329TIP3   OH276477   0.703   5.377   2.112 -0.0817  0.2546  0.1998
18329TIP3    H176478   0.730   5.383   2.203  0.5950 -1.3685  0.1255
18329TIP3    H276479   0.780   5.404   2.062  0.6335 -1.9967  0.0473
18330TIP3   OH276480   1.847   3.338  11.403 -0.0419  0.3374  0.3673
18330TIP3    H176481   1.886   3.381  11.326  0.9834  1.6475  1.5877
18330TIP3    H276482   1.777   3.397  11.430 -0.9012 -0.5027 -0.0016
18331TIP3   OH276483   4.167   3.682   1.224 -0.5976 -0.2616  0.4361
18331TIP3    H176484   4.161   3.775   1.202 -0.1098 -0.4143 -0.3579
18331TIP3    H276485   4.227   3.679   1.298 -1.5446  0.1693  1.2257
18332TIP3   OH276486   2.843   2.118  16.091 -0.0815 -0.0123  0.4859
18332TIP3    H176487   2.932   2.152  16.106 -0.1796  0.3004  0.3550
18332TIP3    H276488   2.838   2.106  15.997 -0.2674  0.2065  0.4690
18333TIP3   OH276489   5.797   0.932  16.864 -0.3037  0.2783  0.6152
18333TIP3    H176490   5.706   0.945  16.839 -0.0773  1.9905  0.6158
18333TIP3    H276491   5.796   0.929  16.960 -0.3479  0.3755  0.6161
18334TIP3   OH276492   4.176   6.067  14.705  0.2632  0.1271  0.5467
18334TIP3    H176493   4.219   6.105  14.628 -1.3880  0.8055 -0.0799
18334TIP3    H276494   4.172   5.973  14.686  0.6132  0.1809  0.1878
18335TIP3   OH276495   2.729   1.764  12.010  0.1632 -0.0427 -0.3196
18335TIP3    H176496   2.682   1.770  12.094 -0.6101  0.2058 -0.7637
18335TIP3    H276497   2.784   1.842  12.008  0.2607 -0.1008  0.0025
18336TIP3   OH276498   2.456   6.289  16.000  0.0239  0.1292  0.6270
18336TIP3    H176499   2.531   6.310  15.943 -0.6790  1.9688  0.3540
18336TIP3    H276500   2.386   6.265  15.939 -0.4446  1.1630  0.7515
18337TIP3   OH276501   3.976   3.582  15.849 -0.3782 -0.7872  0.1325
18337TIP3    H176502   3.909   3.612  15.787 -1.4731 -1.4889  0.9515
18337TIP3    H276503   4.003   3.497  15.816  1.4828  0.3116 -1.2335
18338TIP3   OH276504   4.178   3.936  15.177  0.0197 -0.5370 -0.3044
18338TIP3    H176505   4.260   3.956  15.132 -0.2667 -0.9035 -1.0021
18338TIP3    H276506   4.113   3.992  15.134  0.1240  0.6648  1.0838
18339TIP3   OH276507   1.923   6.055  14.213  0.0991  0.3468 -0.4190
18339TIP3    H176508   2.008   6.012  14.213 -0.4535 -0.7834  0.2434
18339TIP3    H276509   1.863   5.990  14.250 -1.2142  0.7749 -1.7178
18340TIP3   OH276510   5.917   5.155  14.737 -0.2575 -0.2904 -0.3880
18340TIP3    H176511   5.823   5.138  14.736 -0.3394 -0.0867  1.5404
18340TIP3    H276512   5.956   5.076  14.699 -1.0803 -1.3382  0.9020
18341TIP3   OH276513   5.200   0.297  13.277  0.2553 -0.1092  0.0864
18341TIP3    H176514   5.168   0.296  13.187 -2.1583 -1.3674  0.9134
18341TIP3    H276515   5.159   0.374  13.316  0.6163 -0.0515  0.3526
18342TIP3   OH276516   2.393   2.866  16.660 -0.8626  0.8456 -0.4585
18342TIP3    H176517   2.479   2.880  16.621 -1.3800  1.2434 -1.4951
18342TIP3    H276518   2.401   2.898  16.750  0.0851  0.8077 -0.5278
18343TIP3   OH276519   5.674   2.069  15.912 -0.7170 -0.0664  0.1670
18343TIP3    H176520   5.644   2.008  15.845  1.9521  0.0823 -1.2324
18343TIP3    H276521   5.627   2.150  15.893 -0.6417 -0.2861 -1.0063
18344TIP3   OH276522   0.049   5.413  13.119 -0.1533  0.1240  0.0052
18344TIP3    H176523   0.116   5.460  13.069 -0.3397  0.9581  0.5322
18344TIP3    H276524   0.083   5.324  13.126  1.8611  0.9920  1.9659
18345TIP3   OH276525   3.128   4.646  13.012  0.1379  0.1181  0.1029
18345TIP3    H176526   3.202   4.706  13.023 -0.7719  1.2884 -0.0672
18345TIP3    H276527   3.050   4.702  13.016 -0.7509 -1.1108  0.3879
18346TIP3   OH276528   4.485   5.887  13.529 -0.0952  0.1889  0.4991
18346TIP3    H176529   4.567   5.922  13.565 -0.1620  0.9095 -0.0463
18346TIP3    H276530   4.514   5.830  13.457 -0.0681  0.2551  0.4577
18347TIP3   OH276531   2.805   1.399  14.780  0.3294 -0.2824 -0.6773
18347TIP3    H176532   2.748   1.380  14.854  1.3972 -0.5841  0.0827
18347TIP3    H276533   2.887   1.354  14.801  1.0798  0.7150 -1.4243
18348TIP3   OH276534   6.437   5.146   1.770 -0.4843 -0.3099  0.5421
18348TIP3    H176535   6.351   5.116   1.742 -0.2761 -0.5638  0.1655
18348TIP3    H276536   6.453   5.226   1.719  0.7746 -1.8907 -1.6524
18349TIP3   OH276537   6.627   3.576   4.068  0.5639 -0.1395  0.7389
18349TIP3    H176538   6.542   3.575   4.023  0.1709 -0.2826  1.4821
18349TIP3    H276539   6.676   3.505   4.027  0.1321 -0.4039  0.6749
18350TIP3   OH276540   5.325   0.617  12.201  0.3114 -0.0509 -0.4103
18350TIP3    H176541   5.333   0.547  12.137  0.1163 -1.1746  0.7724
18350TIP3    H276542   5.239   0.604  12.241  1.7706 -1.4633  2.4665
18351TIP3   OH276543   4.493   5.201  12.829 -0.2375 -0.3191 -0.3920
18351TIP3    H176544   4.478   5.107  12.833  0.9598 -0.4965  0.0667
18351TIP3    H276545   4.501   5.228  12.921 -1.2836  0.3474 -0.4913
18352TIP3   OH276546   4.158   4.905  12.473 -0.0685 -0.3267 -0.1144
18352TIP3    H176547   4.182   4.875  12.386 -0.5184  0.3434 -0.4792
18352TIP3    H276548   4.070   4.871  12.488  0.4460 -1.3881  0.5410
18353TIP3   OH276549   6.125   3.528   4.657 -0.3603  0.1715 -0.1577
18353TIP3    H176550   6.103   3.621   4.660  1.0169  0.4918  0.4059
18353TIP3    H276551   6.083   3.490   4.734  0.2017  0.5878  0.3606
18354TIP3   OH276552   5.689   0.934  11.734 -0.3605  0.3366 -0.1405
18354TIP3    H176553   5.648   0.977  11.809  0.3643 -0.8525  0.9593
18354TIP3    H276554   5.640   0.852  11.724 -0.5546  0.5592 -1.0749
18355TIP3   OH276555   3.899   4.013  11.057 -0.6979 -0.4204  0.5313
18355TIP3    H176556   3.856   3.993  11.140 -1.8995  1.7513  0.4585
18355TIP3    H276557   3.829   4.043  10.999  0.4907  0.5792 -0.4399
18356TIP3   OH276558   3.999   3.134   0.198 -0.3090  0.6429  0.3920
18356TIP3    H176559   4.036   3.073   0.135 -1.1386  0.1663  0.3599
18356TIP3    H276560   4.047   3.216   0.183  1.6016 -0.3008  1.2324
18357TIP3   OH276561   0.596   0.041  12.191 -0.0672 -0.2204 -0.5821
18357TIP3    H176562   0.554   0.102  12.251  1.3233  0.7880 -0.6177
18357TIP3    H276563   0.688   0.068  12.189  0.6103 -2.3826 -0.4887
18358TIP3   OH276564   0.724   0.692  13.133 -0.1315  0.2600 -0.1395
18358TIP3    H176565   0.771   0.747  13.070  0.4533 -0.8153 -0.6513
18358TIP3    H276566   0.783   0.687  13.209 -1.7338  3.3102  1.4164
18359TIP3   OH276567   0.271   6.696   5.974 -0.1545  0.2681  0.4184
18359TIP3    H176568   0.242   6.727   5.888 -0.6366  0.1397  0.5379
18359TIP3    H276569   0.318   6.614   5.955  0.2647  0.5556  0.2123
18360TIP3   OH276570   5.437   0.591  16.541  0.0422  0.5287 -0.5217
18360TIP3    H176571   5.346   0.585  16.509  0.0344 -0.9024 -0.2294
18360TIP3    H276572   5.483   0.636  16.470 -1.1333  2.3473 -0.1715
18361TIP3   OH276573   3.949   3.711   4.574  0.4554 -0.4763 -0.7447
18361TIP3    H176574   4.022   3.683   4.630  2.2798  0.0320 -2.8140
18361TIP3    H276575   3.984   3.785   4.524 -2.2406  1.2915 -0.0817
18362TIP3   OH276576   2.624   6.364  17.286  0.1447 -0.1902  0.3995
18362TIP3    H176577   2.548   6.323  17.244  0.4646  1.4058 -1.8147
18362TIP3    H276578   2.592   6.450  17.313  0.8582  0.0443  0.4916
18363TIP3   OH276579   2.329   1.611   0.793 -0.2727 -0.3332 -0.3262
18363TIP3    H176580   2.252   1.624   0.848  1.4877  0.2222  2.0962
18363TIP3    H276581   2.324   1.681   0.728 -0.8333  0.8923  0.9927
18364TIP3   OH276582   6.762   4.147   6.316 -0.2778 -0.5321  0.5106
18364TIP3    H176583   6.854   4.122   6.314 -0.3554 -0.7004 -2.1242
18364TIP3    H276584   6.718   4.071   6.355  0.3996 -1.4648 -0.5041
18365TIP3   OH276585   1.672   1.578   3.933  0.3317  0.3996  0.3507
18365TIP3    H176586   1.693   1.665   3.967 -1.0278  0.6975  0.4680
18365TIP3    H276587   1.665   1.522   4.011  0.1100  0.4262  0.3489
18366TIP3   OH276588   3.361   5.957   5.066  0.3690 -0.3836 -0.5909
18366TIP3    H176589   3.391   5.965   4.976  2.2995 -0.0010  0.0704
18366TIP3    H276590   3.304   6.033   5.079 -0.0491 -0.5296 -1.5194
18367TIP3   OH276591   1.606   0.510   5.951 -0.5366  0.3448 -0.3348
18367TIP3    H176592   1.665   0.449   5.995 -0.3430 -0.2661 -1.4032
18367TIP3    H276593   1.526   0.458   5.936 -0.7713  0.6896 -0.2794
18368TIP3   OH276594   6.783   0.208  16.671  0.7630  0.3488 -0.1548
18368TIP3    H176595   6.839   0.173  16.741  0.1824 -3.4444 -1.4908
18368TIP3    H276596   6.839   0.208  16.594  0.1642  0.5863 -0.5891
18369TIP3   OH276597   1.873   4.724   5.424 -0.2069 -0.0384  0.1672
18369TIP3    H176598   1.921   4.734   5.343 -1.3050  1.6835 -0.3102
18369TIP3    H276599   1.789   4.684   5.398  0.2751 -1.4635  0.7558
18370TIP3   OH276600   1.352   3.899   0.878 -0.3753  0.5329  0.5255
18370TIP3    H176601   1.311   3.960   0.939 -0.3173  2.1125 -0.9826
18370TIP3    H276602   1.389   3.954   0.810 -0.2543 -1.1871 -0.8375
18371TIP3   OH276603   2.321   2.007  15.825 -0.1754 -0.0085 -0.1094
18371TIP3    H176604   2.294   2.084  15.874  2.1585 -0.7173  2.4316
18371TIP3    H276605   2.411   2.025  15.799  0.2743 -1.6960  0.1909
18372TIP3   OH276606   3.589   2.649  10.839 -0.3677 -0.5617 -0.9349
18372TIP3    H176607   3.496   2.666  10.853  0.5238  1.3618  3.2728
18372TIP3    H276608   3.621   2.728  10.795  0.1364  0.7822  1.7891
18373TIP3   OH276609   3.409   2.398   3.735  0.1816  0.0071 -0.0825
18373TIP3    H176610   3.499   2.430   3.750  0.1556 -0.3706  0.9214
18373TIP3    H276611   3.365   2.470   3.691  0.9573  0.2333 -0.4924
18374TIP3   OH276612   3.876   5.511   2.430  0.3770 -0.1157 -0.8439
18374TIP3    H176613   3.915   5.425   2.446 -2.0112 -0.9785  0.6450
18374TIP3    H276614   3.804   5.494   2.369 -0.9831  0.5490  0.5167
18375TIP3   OH276615   6.167   2.331   6.369 -0.2225 -0.0687 -0.3331
18375TIP3    H176616   6.202   2.269   6.305 -0.7605 -0.2033 -0.5011
18375TIP3    H276617   6.136   2.405   6.316 -1.4517 -0.5514 -0.3085
18376TIP3   OH276618   3.646   5.646   5.387  0.6017 -0.4390 -0.1994
18376TIP3    H176619   3.730   5.650   5.341 -0.1868 -0.8434 -1.7050
18376TIP3    H276620   3.602   5.728   5.364 -0.2744 -1.1570 -1.1007
18377TIP3   OH276621   2.779   4.086  12.323 -0.0592 -0.2246  0.4463
18377TIP3    H176622   2.862   4.089  12.370 -0.0223 -0.5982  0.4108
18377TIP3    H276623   2.781   4.002  12.276 -0.1982  0.0373 -0.0310
18378TIP3   OH276624   0.510   5.846   1.669  0.6060 -0.2855  0.0799
18378TIP3    H176625   0.592   5.814   1.631  0.2464 -1.0073 -0.0854
18378TIP3    H276626   0.480   5.775   1.726 -0.3106 -0.3449 -0.4678
18379TIP3   OH276627   6.027   6.484   3.599 -0.3954  0.4108  0.1992
18379TIP3    H176628   6.029   6.578   3.619 -2.1580  0.6740 -0.8302
18379TIP3    H276629   5.939   6.456   3.621 -0.1847 -0.7963 -0.4563
18380TIP3   OH276630   5.524   2.706  11.423 -0.6131  0.8848 -0.5206
18380TIP3    H176631   5.571   2.668  11.498  0.2031  1.3778 -0.7765
18380TIP3    H276632   5.592   2.748  11.370 -1.1610  0.4343 -1.6119
18381TIP3   OH276633   4.310   1.540  14.157 -0.1958 -0.1919 -0.4148
18381TIP3    H176634   4.353   1.571  14.236 -0.7593  0.2939 -0.2922
18381TIP3    H276635   4.216   1.539  14.179 -0.2892 -0.8005 -0.8173
18382TIP3   OH276636   3.376   1.422  16.450  0.6223  0.5199 -0.2842
18382TIP3    H176637   3.328   1.496  16.414  1.8784  1.5048  0.0089
18382TIP3    H276638   3.424   1.459  16.525 -0.0407 -0.9581  0.8901
18383TIP3   OH276639   0.308   3.025  14.127 -0.2848  0.1562 -0.5189
18383TIP3    H176640   0.397   2.996  14.104 -0.7315 -0.7489 -1.1441
18383TIP3    H276641   0.280   2.964  14.195 -0.8867 -0.3196 -1.1869
18384TIP3   OH276642   3.391   4.178  12.212  0.5471  0.2031  0.2030
18384TIP3    H176643   3.445   4.114  12.166  0.8667 -0.3927  1.3908
18384TIP3    H276644   3.320   4.198  12.151 -0.0115 -1.8910  0.1351
18385TIP3   OH276645   3.620   2.655  14.481 -0.2164 -0.6992  0.4399
18385TIP3    H176646   3.658   2.728  14.529  2.0142 -0.5453 -1.4373
18385TIP3    H276647   3.538   2.689  14.446 -0.0880  0.3244  1.1203
18386TIP3   OH276648   1.139   2.777   1.045 -0.7728 -0.5497 -0.3267
18386TIP3    H176649   1.096   2.726   0.977 -0.4026 -1.2461 -0.0382
18386TIP3    H276650   1.079   2.775   1.120 -0.3810 -1.2577 -0.0317
18387TIP3   OH276651   6.740   2.553  15.361 -0.2256 -0.0589 -0.6641
18387TIP3    H176652   6.820   2.500  15.367 -1.0370 -1.0526  1.4167
18387TIP3    H276653   6.702   2.528  15.277  1.2020 -0.1868 -1.2983
18388TIP3   OH276654   3.559   6.045  15.670  0.0992  0.0394  0.5899
18388TIP3    H176655   3.479   5.995  15.654 -0.5541  1.3474 -0.3217
18388TIP3    H276656   3.528   6.130  15.703  1.1539  0.1916  1.1979
18389TIP3   OH276657   0.364   3.090  12.852 -0.1039 -0.0932 -0.1853
18389TIP3    H176658   0.318   3.122  12.929  0.8399  0.1014  0.3086
18389TIP3    H276659   0.390   3.000  12.875  0.7601  0.1919  0.0031
18390TIP3   OH276660   0.901   0.695   3.379  0.7746  0.1245 -0.7257
18390TIP3    H176661   0.846   0.755   3.328  0.3925 -0.1472 -0.6316
18390TIP3    H276662   0.862   0.694   3.466 -0.8680 -2.3919 -1.4497
18391TIP3   OH276663   1.919   4.571   0.276  0.0966  0.3966  0.2345
18391TIP3    H176664   1.930   4.496   0.334 -1.4138  0.8508  1.1571
18391TIP3    H276665   2.000   4.620   0.285 -0.0458  0.3712  1.8741
18392TIP3   OH276666   2.841   2.107   6.239  0.3307  0.0739  0.0557
18392TIP3    H176667   2.801   2.158   6.309  0.2694  0.1790 -0.0544
18392TIP3    H276668   2.769   2.083   6.182  0.2028 -1.0676  0.6856
18393TIP3   OH276669   0.266   2.884   6.347 -0.1912  0.4855 -0.0442
18393TIP3    H176670   0.198   2.927   6.398  0.4755  2.6532 -0.9091
18393TIP3    H276671   0.346   2.934   6.367  0.4969  0.0082 -1.5331
18394TIP3   OH276672   0.937   4.716  12.971 -0.0687  0.1355 -0.0251
18394TIP3    H176673   0.938   4.642  13.033  2.1376  0.3213  0.1941
18394TIP3    H276674   0.944   4.675  12.885  1.5243  0.1074  0.1194
18395TIP3   OH276675   5.287   2.917   0.470 -0.5110  0.5988 -0.1751
18395TIP3    H176676   5.223   2.892   0.403 -0.1860 -1.2188  0.1720
18395TIP3    H276677   5.300   2.838   0.522 -0.4107  1.8647  1.7637
18396TIP3   OH276678   4.853   0.674   2.062 -0.2495  0.5785  0.1762
18396TIP3    H176679   4.819   0.631   2.140  1.2956  0.6810  0.9291
18396TIP3    H276680   4.815   0.626   1.988 -1.0025 -0.0851  0.9979
18397TIP3   OH276681   3.443   5.020  16.396 -0.1959  0.3179  0.6268
18397TIP3    H176682   3.407   4.938  16.363  2.3702 -1.0249  1.0582
18397TIP3    H276683   3.431   5.016  16.491 -1.0854  0.9605  0.5465
18398TIP3   OH276684   4.004   4.305  16.670 -0.1067  0.6132 -0.3054
18398TIP3    H176685   3.993   4.311  16.575 -2.1001  0.0146 -0.1402
18398TIP3    H276686   3.959   4.383  16.703  0.7543  0.9223  0.1340
18399TIP3   OH276687   0.432   2.714   5.961  0.2586  0.0276 -0.1449
18399TIP3    H176688   0.437   2.745   5.870 -0.1842  0.6974  0.0517
18399TIP3    H276689   0.492   2.772   6.009 -0.4229  0.4467  0.1949
18400TIP3   OH276690   4.540   1.378   2.864 -0.2942  0.2148  0.2629
18400TIP3    H176691   4.518   1.348   2.952 -2.2853  0.5820 -0.0811
18400TIP3    H276692   4.589   1.459   2.878 -0.5650  0.2535  1.0401
18401TIP3   OH276693   6.466   0.275   5.352  0.4835  0.5945 -0.3417
18401TIP3    H176694   6.414   0.323   5.287  0.0892  2.0115  0.9770
18401TIP3    H276695   6.408   0.269   5.428  1.0744 -0.7176  0.0059
18402TIP3   OH276696   0.440   2.279   6.092  0.0473 -0.7074 -0.1332
18402TIP3    H176697   0.451   2.374   6.090  1.4276 -0.8667 -0.1757
18402TIP3    H276698   0.420   2.260   6.184 -0.0255 -0.4058 -0.0843
18403TIP3   OH276699   2.768   1.335   4.546 -0.4002 -0.1760 -0.1153
18403TIP3    H176700   2.763   1.428   4.522 -0.4542 -0.4358 -1.1500
18403TIP3    H276701   2.691   1.320   4.601 -0.6261  0.2917 -0.3061
18404TIP3   OH276702   1.801   0.982  16.901  0.1682 -0.4199  0.6760
18404TIP3    H176703   1.718   0.936  16.886 -0.6809  1.8112 -1.9135
18404TIP3    H276704   1.851   0.968  16.820  1.0414  0.8003  0.9935
18405TIP3   OH276705   5.213   5.563   4.528  0.4477  0.1575  0.4042
18405TIP3    H176706   5.203   5.590   4.619  0.6114 -0.8451  0.7320
18405TIP3    H276707   5.131   5.517   4.507  0.6630 -0.1604  0.2488
18406TIP3   OH276708   0.761   3.520   2.102 -0.3266  0.0155 -0.4385
18406TIP3    H176709   0.742   3.455   2.170  1.3884 -0.5006 -0.4266
18406TIP3    H276710   0.679   3.528   2.053 -1.7996  0.8936  2.0725
18407TIP3   OH276711   4.283   3.308  13.468  0.4004 -0.5066  0.1504
18407TIP3    H176712   4.236   3.233  13.504  1.0533 -1.3184 -0.6940
18407TIP3    H276713   4.368   3.307  13.512  0.6244 -0.6021 -0.2819
18408TIP3   OH276714   6.287   1.778   2.253  0.6425 -0.1889  0.3389
18408TIP3    H176715   6.307   1.784   2.346 -0.4505  0.0213  0.5735
18408TIP3    H276716   6.226   1.705   2.246  0.1941  0.2190 -0.1169
18409TIP3   OH276717   0.923   4.439  13.098 -0.4074  0.3567  0.3529
18409TIP3    H176718   1.012   4.418  13.124 -0.7576 -0.3619  0.9771
18409TIP3    H276719   0.884   4.355  13.074 -0.9609  0.6470  0.2170
18410TIP3   OH276720   2.969   6.282   1.807 -0.5319 -0.0290  0.1902
18410TIP3    H176721   3.040   6.220   1.792  0.4173  1.5515 -2.0777
18410TIP3    H276722   2.891   6.236   1.777 -0.4159 -1.5000  2.0122
18411TIP3   OH276723   2.496   2.590  16.504 -0.1317 -0.2965 -0.3671
18411TIP3    H176724   2.520   2.592  16.412  2.3608 -0.4796  0.2409
18411TIP3    H276725   2.459   2.502  16.518 -0.2566 -0.3639 -1.1159
18412TIP3   OH276726   4.800   6.374   1.231 -0.3545  0.2991  0.6611
18412TIP3    H176727   4.887   6.400   1.202 -0.6788 -0.4030 -0.9537
18412TIP3    H276728   4.814   6.337   1.319  1.0319 -0.2712  0.2111
18413TIP3   OH276729   6.507   2.874   0.412 -0.0443 -0.2527  0.5649
18413TIP3    H176730   6.564   2.879   0.489 -0.0417  1.7324  0.4521
18413TIP3    H276731   6.553   2.924   0.345 -1.0176 -0.2509 -0.1118
18414TIP3   OH276732   6.073   5.688  12.503 -0.3520 -0.3296  0.6068
18414TIP3    H176733   6.145   5.685  12.440 -0.1490 -0.3330  0.8378
18414TIP3    H276734   6.109   5.733  12.579 -1.0345  0.9959  0.1660
18415TIP3   OH276735   0.085   1.750  12.285  0.1752  0.5002  0.0066
18415TIP3    H176736  -0.004   1.717  12.270 -0.5149  1.5722  1.6305
18415TIP3    H276737   0.091   1.828  12.229 -0.2308  0.9284  0.5459
18416TIP3   OH276738   2.635   5.279  12.910 -0.2573  0.1888  0.3703
18416TIP3    H176739   2.699   5.221  12.870  0.5553  0.7155  0.8895
18416TIP3    H276740   2.589   5.225  12.974  0.3625  0.0671  0.7127
18417TIP3   OH276741   4.385   0.147   2.857  0.3990 -0.3818  0.1818
18417TIP3    H176742   4.449   0.089   2.816  0.4753  0.8378 -1.4664
18417TIP3    H276743   4.300   0.113   2.829  0.3789 -0.7380  0.6598
18418TIP3   OH276744   3.216   1.626  16.150  0.3457  0.6640 -0.4838
18418TIP3    H176745   3.189   1.628  16.241 -0.3181  0.4403 -0.6691
18418TIP3    H276746   3.292   1.568  16.148  1.0706  1.5895  0.1049
18419TIP3   OH276747   0.911   5.045  13.782 -0.1366  1.1646  0.2414
18419TIP3    H176748   0.923   5.084  13.869 -0.8731 -0.1619  0.9607
18419TIP3    H276749   0.843   4.978  13.795  0.6861  0.0502 -1.0682
18420TIP3   OH276750   2.636   0.463   0.110  0.6183 -0.1395 -0.4870
18420TIP3    H176751   2.548   0.434   0.135 -1.0173  2.3842 -3.0677
18420TIP3    H276752   2.676   0.492   0.192 -0.5220 -2.2659  0.8754
18421TIP3   OH276753   4.801   0.503   2.898  0.2085 -0.1213 -0.6532
18421TIP3    H176754   4.889   0.515   2.934  0.7270 -0.4825 -1.7852
18421TIP3    H276755   4.745   0.557   2.954  0.8136 -1.6303  1.4605
18422TIP3   OH276756   6.789   4.132  11.296 -0.3216 -0.3554  0.1481
18422TIP3    H176757   6.722   4.064  11.289 -0.5454  0.0198 -1.5410
18422TIP3    H276758   6.749   4.198  11.353 -1.8147  0.3150 -1.6196
18423TIP3   OH276759   1.997   1.623   4.354 -0.1587 -0.4232  0.2630
18423TIP3    H176760   2.035   1.539   4.379 -1.2841 -1.0977 -0.2709
18423TIP3    H276761   2.004   1.625   4.259  0.2864  0.2974  0.3069
18424TIP3   OH276762   4.326   0.812  15.941  0.1394 -0.4054 -0.2427
18424TIP3    H176763   4.302   0.900  15.969  1.1248 -0.6301  1.4026
18424TIP3    H276764   4.305   0.756  16.016  2.4228 -1.0967 -0.0673
18425TIP3   OH276765   3.495   0.356   2.669  0.1304 -0.1519 -0.2887
18425TIP3    H176766   3.466   0.381   2.757 -2.1459 -1.2121 -0.7160
18425TIP3    H276767   3.482   0.435   2.616  2.7048  0.9013  0.5306
18426TIP3   OH276768   2.842   2.167   1.734  0.2474 -0.2684  0.4046
18426TIP3    H176769   2.925   2.134   1.699 -0.2686 -1.1957  0.0305
18426TIP3    H276770   2.806   2.095   1.785 -1.5194 -0.8216 -1.4966
18427TIP3   OH276771   2.761   1.141   4.249 -0.5490  0.5631 -0.1925
18427TIP3    H176772   2.830   1.178   4.193  0.4784 -0.2203  0.5269
18427TIP3    H276773   2.744   1.210   4.313  1.2776 -0.1276  1.0751
18428TIP3   OH276774   0.856   4.539   3.175 -0.2933  0.0835  0.0847
18428TIP3    H176775   0.891   4.492   3.251  1.0826  0.0393 -0.5506
18428TIP3    H276776   0.809   4.472   3.125  1.8469 -0.6998 -0.9300
18429TIP3   OH276777   1.330   4.700   5.884  0.1637  0.4726  0.1457
18429TIP3    H176778   1.328   4.742   5.970 -1.7083 -0.6645  0.6882
18429TIP3    H276779   1.345   4.608   5.903 -0.3226  0.2075 -0.7560
18430TIP3   OH276780   2.508   0.711   4.085  0.3405 -0.0560  0.2277
18430TIP3    H176781   2.543   0.695   3.997 -0.7735  0.1094 -0.2480
18430TIP3    H276782   2.524   0.804   4.101  0.2677 -0.0161  0.0715
18431TIP3   OH276783   4.338   6.409   6.478  0.0228 -0.0036  0.4004
18431TIP3    H176784   4.374   6.481   6.529 -0.5704 -0.8713  2.1140
18431TIP3    H276785   4.249   6.438   6.454  0.7688  0.9412 -1.3151
18432TIP3   OH276786   2.490   5.095   2.213  0.2161  0.1964  0.1426
18432TIP3    H176787   2.527   5.173   2.255 -1.0140 -0.1462  1.9037
18432TIP3    H276788   2.544   5.082   2.135  0.5828  2.6877 -0.0690
18433TIP3   OH276789   0.619   3.356  15.782 -0.3373  0.3630  0.5204
18433TIP3    H176790   0.634   3.450  15.775  2.0870 -0.0763 -0.5429
18433TIP3    H276791   0.679   3.327  15.851 -0.7479 -0.4872  0.5349
18434TIP3   OH276792   1.675   0.636   2.779 -0.0237  0.2751 -0.0285
18434TIP3    H176793   1.673   0.551   2.735  0.7152  0.2301  0.0142
18434TIP3    H276794   1.686   0.616   2.872 -1.0053  0.3890  0.1223
18435TIP3   OH276795   4.953   2.806   6.327 -0.2947 -0.2588 -0.1477
18435TIP3    H176796   4.920   2.835   6.412 -0.8970 -0.5477 -0.2848
18435TIP3    H276797   4.880   2.760   6.287 -0.3168  0.6886 -1.2283
18436TIP3   OH276798   6.106   6.374   1.932 -0.0471  0.0415  0.3145
18436TIP3    H176799   6.077   6.290   1.968 -0.1292  1.1064  2.8183
18436TIP3    H276800   6.060   6.440   1.985  1.7269  1.6721 -0.1312
18437TIP3   OH276801   5.331   1.888  13.565 -0.1884 -0.3457  0.2591
18437TIP3    H176802   5.322   1.975  13.605  2.1600 -0.0900  0.2823
18437TIP3    H276803   5.415   1.856  13.597 -0.1652 -1.8342 -1.2646
18438TIP3   OH276804   3.439   1.006  12.546  0.0333  0.5516  0.5929
18438TIP3    H176805   3.381   0.932  12.564  0.3188 -0.1965 -1.3977
18438TIP3    H276806   3.385   1.066  12.494  1.2998 -0.6244 -2.1702
18439TIP3   OH276807   5.057   1.577   3.905 -0.0449 -0.1481  0.1609
18439TIP3    H176808   5.006   1.548   3.981 -1.3763  1.5839 -0.0288
18439TIP3    H276809   5.126   1.632   3.941 -0.7338  0.7507  0.1250
18440TIP3   OH276810   6.254   2.794  15.542  0.0480 -0.0651 -0.0831
18440TIP3    H176811   6.238   2.783  15.636 -1.5541 -2.2071 -0.5393
18440TIP3    H276812   6.338   2.752  15.527 -0.7214 -1.7179  0.0763
18441TIP3   OH276813   0.528   1.271  13.069 -0.1366 -0.4795  0.1147
18441TIP3    H176814   0.527   1.254  13.163  0.7444  0.8766  0.3798
18441TIP3    H276815   0.589   1.206  13.034  2.1942  1.2087  0.9524
18442TIP3   OH276816   2.372   0.848  11.589  0.4838 -0.2733 -0.0861
18442TIP3    H176817   2.386   0.769  11.536 -2.6786 -0.9838  0.0109
18442TIP3    H276818   2.387   0.819  11.679 -0.6395 -0.8188 -0.0523
18443TIP3   OH276819   4.068   3.293   3.678 -0.2111  0.2748 -0.3455
18443TIP3    H176820   4.069   3.291   3.583  1.9807 -0.7201 -0.3236
18443TIP3    H276821   4.061   3.202   3.705 -0.8496  0.5514  0.4556
18444TIP3   OH276822   4.274   2.127   1.114  0.3068  0.2474 -0.1097
18444TIP3    H176823   4.361   2.161   1.094  0.4433 -0.7803 -1.3432
18444TIP3    H276824   4.286   2.073   1.192  0.8195 -0.0732 -0.4110
18445TIP3   OH276825   0.223   2.413   1.309 -0.1423 -0.6516  0.4834
18445TIP3    H176826   0.222   2.494   1.258 -1.7400 -0.9804 -0.0432
18445TIP3    H276827   0.314   2.403   1.337  0.1723  1.0445  0.1154
18446TIP3   OH276828   3.500   0.093  15.966  0.0301  0.0023  0.2446
18446TIP3    H176829   3.473   0.055  15.882  0.8236  0.7354 -0.3545
18446TIP3    H276830   3.444   0.050  16.031  0.0016 -1.1996 -0.5599
18447TIP3   OH276831   0.235   4.710  15.418  0.0406  0.5852 -0.1774
18447TIP3    H176832   0.277   4.744  15.339  0.7652 -0.4917 -0.2746
18447TIP3    H276833   0.293   4.736  15.490  0.1323  0.3343 -0.1587
18448TIP3   OH276834   0.218   4.314   2.324  0.3753 -0.0857  0.5654
18448TIP3    H176835   0.151   4.361   2.374  0.3042  0.1162  0.2761
18448TIP3    H276836   0.296   4.317   2.381  0.3420  0.2890  0.5949
18449TIP3   OH276837   4.611   5.451   0.099 -0.0272 -0.0689  0.1307
18449TIP3    H176838   4.575   5.471   0.013  1.1738 -2.9686 -1.1181
18449TIP3    H276839   4.567   5.370   0.125  2.9286 -1.7618  0.1320
18450TIP3   OH276840   5.341   3.342  11.521  0.1154 -0.0493  0.1248
18450TIP3    H176841   5.368   3.378  11.436  0.3985 -2.4997 -0.8780
18450TIP3    H276842   5.391   3.392  11.585 -0.3156  2.0466 -1.1063
18451TIP3   OH276843   5.469   0.277  11.630  0.2768 -0.3101 -0.4154
18451TIP3    H176844   5.478   0.191  11.590 -0.6239 -1.7995  2.4639
18451TIP3    H276845   5.557   0.315  11.626  0.5886 -1.1773 -2.0428
18452TIP3   OH276846   0.104   6.547   4.266 -0.2669 -0.3226  0.6480
18452TIP3    H176847   0.052   6.472   4.296  0.8686 -0.6050  1.9746
18452TIP3    H276848   0.106   6.605   4.342 -3.5752  2.4670 -1.2419
18453TIP3   OH276849   4.843   4.608  13.467 -0.9947  0.6650  0.4557
18453TIP3    H176850   4.821   4.591  13.376 -0.2260 -0.6092  0.4939
18453TIP3    H276851   4.783   4.677  13.495 -1.4518  0.8164 -0.9102
18454TIP3   OH276852   5.693   2.136  16.816 -0.2159  0.1062 -0.5038
18454TIP3    H176853   5.618   2.104  16.866 -0.5888 -0.1587 -1.2261
18454TIP3    H276854   5.727   2.059  16.771  0.0359  0.3656 -0.7640
18455TIP3   OH276855   5.859   6.435   4.422 -0.0454 -0.1843 -0.6328
18455TIP3    H176856   5.902   6.475   4.347  1.3027 -2.5853 -1.1888
18455TIP3    H276857   5.771   6.473   4.422  1.4306  3.4910 -0.5079
18456TIP3   OH276858   6.409   6.590   3.478  0.3478 -0.2703  0.0599
18456TIP3    H176859   6.486   6.533   3.479 -0.9742 -2.1139 -0.0954
18456TIP3    H276860   6.337   6.532   3.452 -0.9804  1.5660 -0.4525
18457TIP3   OH276861   1.065   2.310  11.443 -0.3941  0.7121  0.8379
18457TIP3    H176862   1.137   2.350  11.492  1.0458 -0.7820  0.0095
18457TIP3    H276863   1.095   2.310  11.352 -0.9438 -0.9449  0.6309
18458TIP3   OH276864   2.465   3.083   0.109  0.0225  0.5192  0.2648
18458TIP3    H176865   2.521   3.064   0.035 -1.1357  0.6648 -0.6675
18458TIP3    H276866   2.376   3.070   0.076 -0.4452 -1.9332  2.3271
18459TIP3   OH276867   2.139   4.070  15.953 -0.2043 -0.4963  0.0810
18459TIP3    H176868   2.149   4.165  15.958  0.7192 -0.4171 -2.3964
18459TIP3    H276869   2.218   4.035  15.996 -0.4318 -0.1536  0.7850
18460TIP3   OH276870   5.946   0.636  16.939  0.1323  0.1723  0.3131
18460TIP3    H176871   5.926   0.703  17.004  0.7911  1.3212 -0.6465
18460TIP3    H276872   6.036   0.655  16.912  0.5388 -1.4761  0.4758
18461TIP3   OH276873   6.322   4.720   5.923  0.3998 -0.5067 -0.3990
18461TIP3    H176874   6.253   4.707   5.858 -0.0268  0.5576 -0.1575
18461TIP3    H276875   6.362   4.803   5.899  0.9042 -0.6030  0.1098
18462TIP3   OH276876   2.212   3.741  11.707 -0.2498  0.5139 -0.4126
18462TIP3    H176877   2.254   3.686  11.640 -1.2961 -0.0634 -0.6051
18462TIP3    H276878   2.132   3.694  11.729 -0.5467  1.3603  0.3215
18463TIP3   OH276879   1.176   0.307  17.200  0.6159 -0.1946 -0.4142
18463TIP3    H176880   1.115   0.317  17.273 -0.1169 -3.5186 -0.4817
18463TIP3    H276881   1.257   0.276  17.240  0.4642 -1.2441 -0.9031
18464TIP3   OH276882   5.695   3.592  14.930 -0.3342  0.0051 -0.3488
18464TIP3    H176883   5.648   3.669  14.962  1.5366  1.1702 -0.3054
18464TIP3    H276884   5.690   3.598  14.835  0.1194  0.3799 -0.3498
18465TIP3   OH276885   5.016   1.369  17.152 -0.1125  0.0693 -0.2290
18465TIP3    H176886   5.043   1.458  17.131 -2.1743  0.6286 -0.5987
18465TIP3    H276887   5.008   1.367  17.247 -1.6731  0.7779 -0.3302
18466TIP3   OH276888   3.849   6.771   2.490  0.3954 -0.5351  0.2686
18466TIP3    H176889   3.856   6.706   2.559 -0.5461 -0.4963  0.4025
18466TIP3    H276890   3.860   6.855   2.534 -2.4744 -0.3665  0.7635
18467TIP3   OH276891   4.982   0.103  12.502 -0.4823  0.3740 -0.2612
18467TIP3    H176892   5.048   0.033  12.499  0.5907  1.3783 -0.4753
18467TIP3    H276893   5.031   0.183  12.482 -1.3411  1.4552  1.7777
18468TIP3   OH276894   3.651   6.014  12.742  0.6186  0.1750 -0.1253
18468TIP3    H176895   3.565   5.990  12.778 -0.3672  2.8469 -0.5581
18468TIP3    H276896   3.687   5.932  12.709 -3.2698 -0.5133 -2.9769
18469TIP3   OH276897   1.244   6.065  12.393  0.4118 -0.5584 -0.2082
18469TIP3    H176898   1.160   6.063  12.348  0.3749  0.1680 -0.1762
18469TIP3    H276899   1.308   6.078  12.323  0.4944 -1.0577 -0.2252
18470TIP3   OH276900   0.391   0.235  16.966  0.0879  0.0171  0.2973
18470TIP3    H176901   0.364   0.143  16.970 -0.3220  0.1612  0.9162
18470TIP3    H276902   0.333   0.279  17.028  0.5872  0.6169  0.3356
18471TIP3   OH276903   1.710   3.588   0.929 -0.1657 -0.0610  0.0291
18471TIP3    H176904   1.794   3.547   0.948 -0.9487 -0.5756  2.6239
18471TIP3    H276905   1.702   3.658   0.995 -1.1715  0.8621 -1.0389
18472TIP3   OH276906   2.865   5.473  13.195 -0.2525  0.0807  0.2750
18472TIP3    H176907   2.868   5.507  13.106 -0.4852  0.4074  0.3969
18472TIP3    H276908   2.873   5.378  13.184  1.8430  0.2512  0.0163
18473TIP3   OH276909   3.349   1.864  16.326 -0.0429 -0.4516  0.3165
18473TIP3    H176910   3.394   1.820  16.398 -0.7834 -0.9147  0.4974
18473TIP3    H276911   3.300   1.794  16.282  0.2241 -0.1340 -0.5028
18474TIP3   OH276912   1.137   1.151   6.477 -0.5378 -0.0349 -0.2242
18474TIP3    H176913   1.210   1.212   6.488 -1.8112  1.2710  1.2427
18474TIP3    H276914   1.167   1.071   6.520 -0.4953  0.9510  1.6571
18475TIP3   OH276915   2.297   0.310   4.493 -0.6757  0.1294 -0.4858
18475TIP3    H176916   2.259   0.388   4.533 -1.6104 -0.1152 -0.8948
18475TIP3    H276917   2.385   0.306   4.530 -0.9453  0.8421  0.2704
18476TIP3   OH276918   5.581   5.417  13.555  0.1298  0.4095 -0.1661
18476TIP3    H176919   5.488   5.434  13.573  0.3032  0.0522  1.0763
18476TIP3    H276920   5.612   5.367  13.631  0.6484 -1.9302 -1.8525
18477TIP3   OH276921   0.087   6.428   0.189 -0.2184  0.0594  0.0757
18477TIP3    H176922   0.096   6.349   0.243 -0.6192 -0.5030 -0.6748
18477TIP3    H276923   0.066   6.396   0.102 -0.4996  1.0025 -0.2138
18478TIP3   OH276924   3.729   0.744  13.430  0.5681 -0.3724  0.0877
18478TIP3    H176925   3.647   0.715  13.470 -0.4528  1.4811 -0.5759
18478TIP3    H276926   3.760   0.813  13.489  1.0172 -0.2499 -0.2946
18479TIP3   OH276927   3.275   2.454   2.258 -0.7123  0.0324 -0.5561
18479TIP3    H176928   3.236   2.438   2.344 -1.2620  2.6789 -0.2673
18479TIP3    H276929   3.366   2.476   2.277 -0.8539  0.6999 -0.6258
18480TIP3   OH276930   1.548   2.789   1.717 -0.3075  0.1300 -0.2469
18480TIP3    H176931   1.511   2.702   1.707 -1.7562  0.6313  0.6077
18480TIP3    H276932   1.621   2.778   1.778  0.1436 -0.6432 -0.9230
18481TIP3   OH276933   5.710   6.087  12.880 -0.2629 -0.3778 -0.2276
18481TIP3    H176934   5.691   6.174  12.844 -1.3590 -0.8521 -0.7770
18481TIP3    H276935   5.638   6.032  12.852 -0.1092 -1.2349  0.9993
18482TIP3   OH276936   2.039   1.988  14.925 -0.1361  0.2275 -0.2101
18482TIP3    H176937   2.082   1.915  14.880 -2.0794 -1.4193  0.5285
18482TIP3    H276938   1.948   1.960  14.935 -0.6164  2.2008  1.3059
18483TIP3   OH276939   1.249   6.123   5.423 -0.3216  0.5314  0.2757
18483TIP3    H176940   1.253   6.210   5.384 -1.8919  0.9294  0.9494
18483TIP3    H276941   1.156   6.100   5.421 -0.2009 -0.2201  2.0298
18484TIP3   OH276942   6.464   1.994  11.491  0.5265 -0.3436 -0.2292
18484TIP3    H176943   6.484   2.071  11.437 -1.1840 -0.3615 -0.9020
18484TIP3    H276944   6.549   1.967  11.527  1.3316  1.0499 -1.0645
18485TIP3   OH276945   0.728   0.772  14.789 -0.4102  0.1271 -0.1016
18485TIP3    H176946   0.743   0.790  14.696 -0.9538  1.5138  0.0662
18485TIP3    H276947   0.638   0.740  14.793 -0.0616 -0.8527 -0.1747
18486TIP3   OH276948   0.591   4.845   1.269  0.0377 -0.3411 -0.3016
18486TIP3    H176949   0.597   4.939   1.254  0.7884  0.0303  2.0526
18486TIP3    H276950   0.530   4.836   1.343  0.5882 -1.6236  0.0106
18487TIP3   OH276951   1.078   1.731   4.022 -0.2518 -0.2750  0.3341
18487TIP3    H176952   1.147   1.796   4.006  0.5415 -1.6096 -1.7886
18487TIP3    H276953   1.052   1.747   4.113  2.1370  0.9292  0.8577
18488TIP3   OH276954   0.008   6.344   2.917  0.0615 -0.1119  0.5218
18488TIP3    H176955   0.080   6.301   2.964  1.6026  1.6612 -0.1592
18488TIP3    H276956  -0.020   6.280   2.852  0.5033 -1.1130  1.3031
18489TIP3   OH276957   2.443   0.061   1.631  0.0205 -0.5868 -0.1058
18489TIP3    H176958   2.400   0.139   1.597  0.4516  1.4112  3.6835
18489TIP3    H276959   2.537   0.078   1.621  0.1035 -1.8582 -1.7854
18490TIP3   OH276960   3.244   6.632   2.491  0.7592  1.0212 -0.4816
18490TIP3    H176961   3.221   6.578   2.566 -0.0527 -0.4453 -1.7581
18490TIP3    H276962   3.340   6.631   2.488  0.7779  0.6768  0.2313
18491TIP3   OH276963   4.612   3.181   2.929  0.3836  0.3622 -0.5977
18491TIP3    H176964   4.646   3.093   2.947 -1.3209 -0.8116 -2.9395
18491TIP3    H276965   4.690   3.233   2.908  1.2383 -0.9926 -0.8160
18492TIP3   OH276966   3.697   5.496   0.318  0.1844 -0.1793  0.0507
18492TIP3    H176967   3.724   5.574   0.367 -0.3086  0.3826 -0.5591
18492TIP3    H276968   3.656   5.439   0.383 -0.0108  0.3394  0.3818
18493TIP3   OH276969   1.542   2.914   1.202 -0.3343 -0.2457  1.0662
18493TIP3    H176970   1.490   2.860   1.142 -0.2818 -0.8484  1.5531
18493TIP3    H276971   1.478   2.953   1.261 -0.3269 -0.1841  1.0330
18494TIP3   OH276972   4.296   3.407   1.315 -0.0937 -0.1117  0.1711
18494TIP3    H176973   4.351   3.330   1.297 -1.2534 -1.1777  1.0966
18494TIP3    H276974   4.314   3.466   1.242  1.1802 -1.0500 -0.3116
18495TIP3   OH276975   5.045   0.282   2.028  0.0510  0.4709 -0.0204
18495TIP3    H176976   5.052   0.219   1.956 -0.4620 -0.3225  0.6132
18495TIP3    H276977   5.115   0.345   2.012  0.9584 -0.6010 -0.3432
18496TIP3   OH276978   6.136   6.685   4.867  0.2682 -0.6662 -0.1268
18496TIP3    H176979   6.104   6.772   4.889  1.7067 -0.3684  0.8625
18496TIP3    H276980   6.071   6.650   4.806 -0.3112  1.1019 -0.5546
18497TIP3   OH276981   2.821   0.536  11.445 -0.7160  0.9444 -0.2811
18497TIP3    H176982   2.806   0.609  11.385 -0.7586 -0.4088 -1.9710
18497TIP3    H276983   2.754   0.471  11.420 -0.2921  0.0873  0.7762
18498TIP3   OH276984   2.083   4.625   4.731  0.2907 -0.2860 -0.3267
18498TIP3    H176985   2.085   4.568   4.654 -0.7278 -0.2801 -0.3767
18498TIP3    H276986   1.995   4.613   4.766  0.3479  0.6267  0.1423
18499TIP3   OH276987   1.364   6.592   2.624  0.2551  0.3431 -0.1714
18499TIP3    H176988   1.348   6.505   2.662 -0.4926  1.1294  1.3569
18499TIP3    H276989   1.344   6.581   2.531  0.7438 -1.2730 -0.1102
18500TIP3   OH276990   3.927   0.473   3.478  0.0771 -0.4972  0.3336
18500TIP3    H176991   3.856   0.430   3.527  1.4722 -1.9015  1.2142
18500TIP3    H276992   3.978   0.518   3.546 -0.1183  0.7189 -0.3231
18501TIP3   OH276993   6.331   3.916  11.198 -0.3441 -0.4091  0.8122
18501TIP3    H176994   6.247   3.922  11.244  0.7049  2.4918  2.5264
18501TIP3    H276995   6.312   3.865  11.119 -3.2920 -1.3722  2.0680
18502TIP3   OH276996   4.334   6.589  16.127 -0.0987 -0.4193  0.1078
18502TIP3    H176997   4.315   6.530  16.055  1.2859 -1.0637  0.2562
18502TIP3    H276998   4.364   6.670  16.085 -1.7894  0.1264 -0.0891
18503TIP3   OH276999   5.013   2.650  11.396 -0.3755  0.5234 -0.1383
18503TIP3    H177000   4.984   2.581  11.457 -0.1756 -0.0086 -0.6407
18503TIP3    H277001   5.058   2.713  11.452 -0.6255  0.2847  0.3433
18504TIP3   OH277002   3.857   4.716   3.569  1.0435  0.5597 -0.1770
18504TIP3    H177003   3.870   4.632   3.526  0.4319  0.8657 -0.9894
18504TIP3    H277004   3.811   4.695   3.651 -0.7909  0.2498 -1.2391
18505TIP3   OH277005   3.170   2.694  13.253 -0.2058 -0.1143 -0.2487
18505TIP3    H177006   3.253   2.676  13.209  1.2545 -0.3581  2.4750
18505TIP3    H277007   3.131   2.608  13.267  1.4605 -0.4437  2.8086
18506TIP3   OH277008   1.728   1.117  12.900  0.1749 -0.0049 -0.3539
18506TIP3    H177009   1.753   1.206  12.876 -1.3797  0.1249 -1.5806
18506TIP3    H277010   1.638   1.108  12.868  0.1216 -1.8268  0.2553
18507TIP3   OH277011   3.669   3.791  13.283  0.0927 -0.0049  0.8723
18507TIP3    H177012   3.645   3.704  13.252  0.7657 -0.2887  1.1478
18507TIP3    H277013   3.764   3.796  13.273  0.1742  0.3457  1.7352
18508TIP3   OH277014   4.293   1.028   5.687  0.3016  0.0859  0.2222
18508TIP3    H177015   4.378   1.068   5.672  1.3295 -2.1935 -0.2138
18508TIP3    H277016   4.259   1.010   5.599  0.0590 -0.3920  0.4061
18509TIP3   OH277017   1.295   1.794  17.214 -0.5641 -0.0673 -0.7093
18509TIP3    H177018   1.326   1.732  17.280 -1.5550  0.8830  0.6779
18509TIP3    H277019   1.251   1.741  17.148 -0.4056 -0.9285 -0.1188
18510TIP3   OH277020   3.203   0.645  15.990  0.5199  0.0740  0.4673
18510TIP3    H177021   3.262   0.600  16.050 -0.0860 -1.7560 -0.2956
18510TIP3    H277022   3.128   0.670  16.045  0.0637 -1.4124  0.5374
18511TIP3   OH277023   2.080   1.543  11.267  0.3286 -0.0842 -0.1127
18511TIP3    H177024   1.989   1.538  11.298  0.8014  0.7129  1.4821
18511TIP3    H277025   2.076   1.516  11.176 -1.2953 -1.4837  0.3488
18512TIP3   OH277026   2.908   0.123   5.055 -0.0294  0.0301 -0.4286
18512TIP3    H177027   2.948   0.068   4.988 -0.5997  0.6323 -1.2671
18512TIP3    H277028   2.862   0.191   5.006 -0.4863  0.4499  0.5720
18513TIP3   OH277029   5.588   1.749  16.226  0.2531  0.2843 -0.0863
18513TIP3    H177030   5.623   1.694  16.156  0.7772  0.9248 -0.3374
18513TIP3    H277031   5.601   1.839  16.194  0.9011  0.5972  1.0245
18514TIP3   OH277032   2.776   6.207   4.863  0.6163 -0.2232  0.3178
18514TIP3    H177033   2.765   6.227   4.956  3.6285 -2.8687  1.3363
18514TIP3    H277034   2.848   6.264   4.835  0.2663 -0.0295 -0.1994
18515TIP3   OH277035   0.892   0.631   2.883  0.2781  0.4338  0.1354
18515TIP3    H177036   0.843   0.710   2.905 -0.2449 -0.0130  0.5910
18515TIP3    H277037   0.875   0.617   2.790 -0.1716  0.4821  0.2097
18516TIP3   OH277038   4.567   3.459  15.418 -0.4652  0.0731 -0.4543
18516TIP3    H177039   4.595   3.513  15.492  1.6258 -1.3818 -0.1475
18516TIP3    H277040   4.506   3.396  15.457 -1.7956  1.2764 -0.5566
18517TIP3   OH277041   5.743   1.110  15.406 -0.1870 -0.0613 -0.3515
18517TIP3    H177042   5.799   1.139  15.478  0.5961  0.1914 -1.0519
18517TIP3    H277043   5.725   1.018  15.426 -0.3725  0.1425  0.4216
18518TIP3   OH277044   5.338   4.588   2.045 -0.0241  0.1959  0.0147
18518TIP3    H177045   5.411   4.638   2.081 -0.8225  0.8224  0.8015
18518TIP3    H277046   5.320   4.520   2.110  1.3475 -1.4240 -1.2638
18519TIP3   OH277047   3.119   4.513  15.465 -0.4104  0.0530  0.4044
18519TIP3    H177048   3.101   4.504  15.558  0.3790  0.0052  0.5508
18519TIP3    H277049   3.071   4.592  15.439 -1.1284 -0.2708  0.7109
18520TIP3   OH277050   6.480   1.471  12.250 -0.2068  0.6984 -0.1784
18520TIP3    H177051   6.538   1.547  12.247  0.2823  0.3534  0.3808
18520TIP3    H277052   6.421   1.489  12.324  0.6378  0.0205  0.6699
18521TIP3   OH277053   0.663   6.773  16.217  0.4167  0.9059 -0.2799
18521TIP3    H177054   0.576   6.784  16.179  0.5090  1.7929 -0.2456
18521TIP3    H277055   0.716   6.842  16.177  1.3274 -0.1594 -0.9339
18522TIP3   OH277056   4.712   5.719   3.795 -0.0019 -0.5449  0.4093
18522TIP3    H177057   4.776   5.720   3.724  0.5564 -0.2686  0.9168
18522TIP3    H277058   4.700   5.626   3.815  0.3177 -0.5942  0.3812
18523TIP3   OH277059   3.646   5.073  14.425  0.0692 -0.3996  0.4183
18523TIP3    H177060   3.640   5.128  14.503 -1.7327  2.5156 -1.6787
18523TIP3    H277061   3.578   5.007  14.438 -1.5543  1.2379  0.4841
18524TIP3   OH277062   0.379   4.410   2.525 -0.1251  0.7578 -0.0419
18524TIP3    H177063   0.380   4.494   2.480 -0.2612 -0.1463 -1.7772
18524TIP3    H277064   0.360   4.432   2.616  1.0631  2.6996 -0.2373
18525TIP3   OH277065   2.052   0.579  14.638 -0.2560  0.6302  0.2947
18525TIP3    H177066   2.024   0.555  14.550  1.4555 -3.2121  0.6730
18525TIP3    H277067   2.145   0.597  14.630  0.1064 -0.6117  1.3998
18526TIP3   OH277068   3.138   1.486  14.850  0.0873 -0.5033 -0.2439
18526TIP3    H177069   3.085   1.528  14.917  0.7072  0.2242 -0.2107
18526TIP3    H277070   3.213   1.450  14.897  0.3544 -0.2765 -0.4926
18527TIP3   OH277071   2.059   1.931   3.760  0.3690 -0.0933  0.2180
18527TIP3    H177072   2.002   1.944   3.684  1.8615  1.3570 -0.7022
18527TIP3    H277073   2.109   1.852   3.739  0.9385  0.4288 -0.4470
18528TIP3   OH277074   6.632   6.777   1.197 -0.0479 -0.0057 -0.6203
18528TIP3    H177075   6.549   6.760   1.154 -0.4754 -0.6411  0.4103
18528TIP3    H277076   6.611   6.773   1.291  1.2763 -0.9604 -0.3434
18529TIP3   OH277077   4.814   5.542  14.290  0.6701 -0.4265 -0.2691
18529TIP3    H177078   4.893   5.594  14.278  0.8507 -0.5469  0.4022
18529TIP3    H277079   4.846   5.452  14.301  0.4974 -0.3545  0.8712
18530TIP3   OH277080   2.317   0.092   5.126  0.0839 -0.2369 -0.0394
18530TIP3    H177081   2.319   0.135   5.212 -2.0148 -2.6836  1.3091
18530TIP3    H277082   2.385   0.024   5.132  0.7683  0.3664 -0.7870
18531TIP3   OH277083   4.336   2.373   2.408  0.4006 -0.1990 -0.2551
18531TIP3    H177084   4.362   2.464   2.426  0.3515  0.3963 -3.0332
18531TIP3    H277085   4.290   2.377   2.325 -2.0871 -2.3892  0.9526
18532TIP3   OH277086   5.200   3.648  16.621 -0.4194 -0.0634 -0.2862
18532TIP3    H177087   5.229   3.558  16.604  0.4545  0.4107 -1.2880
18532TIP3    H277088   5.165   3.644  16.710 -0.4035 -1.4018 -0.3184
18533TIP3   OH277089   6.658   5.235  17.075 -0.3065 -0.5308  0.5850
18533TIP3    H177090   6.591   5.188  17.124 -0.4699 -0.4502  0.4384
18533TIP3    H277091   6.730   5.172  17.067 -0.6514 -0.8611  0.1106
18534TIP3   OH277092   4.271   3.418  12.672 -0.7688 -0.5448 -0.0371
18534TIP3    H177093   4.325   3.357  12.621  0.4287 -0.2299  0.8272
18534TIP3    H277094   4.259   3.493  12.614  2.8992  0.9969  1.0663
18535TIP3   OH277095   5.378   1.030   3.620 -0.1158 -0.1595 -0.3009
18535TIP3    H177096   5.325   0.950   3.617  1.6560 -1.4950  2.6097
18535TIP3    H277097   5.448   1.015   3.556 -0.9286 -0.0633 -1.2308
18536TIP3   OH277098   3.827   6.674   1.385 -0.1031 -0.1776 -0.0243
18536TIP3    H177099   3.876   6.657   1.466 -1.2241 -1.1097  0.4609
18536TIP3    H277100   3.811   6.587   1.348 -0.7243  0.1706 -0.5797
18537TIP3   OH277101   0.987   3.368  11.229  0.0346 -0.3061  0.2061
18537TIP3    H177102   0.946   3.323  11.155  0.1519 -0.6936  0.3726
18537TIP3    H277103   0.962   3.459  11.219 -0.5237 -0.4710  0.0683
18538TIP3   OH277104   2.591   4.735  16.627  0.0167  0.5396 -0.5911
18538TIP3    H177105   2.628   4.671  16.688 -1.2119 -0.1048 -0.5051
18538TIP3    H277106   2.628   4.819  16.655  0.5263  0.0562  0.1996
18539TIP3   OH277107   1.860   0.756  15.139 -0.0248 -0.2139  0.9459
18539TIP3    H177108   1.856   0.840  15.184 -1.2287  0.2406  0.0245
18539TIP3    H277109   1.948   0.753  15.102  0.0026  0.6665  0.9297
18540TIP3   OH277110   1.162   0.614   0.254 -0.0598 -0.2231 -0.0157
18540TIP3    H177111   1.081   0.656   0.225 -0.1498 -0.4551 -0.0998
18540TIP3    H277112   1.215   0.686   0.289  1.0859  0.4885 -3.0475
18541TIP3   OH277113   6.248   1.880   1.106  0.3226 -0.1836  0.1908
18541TIP3    H177114   6.283   1.880   1.017 -2.4291  2.3843 -0.9886
18541TIP3    H277115   6.269   1.967   1.140 -0.5279 -0.3745  1.2455
18542TIP3   OH277116   4.276   0.593   2.634  0.2494 -0.2073 -0.0750
18542TIP3    H177117   4.343   0.588   2.702 -0.2643 -2.7047  0.3042
18542TIP3    H277118   4.198   0.555   2.674 -0.9578  1.2393 -1.0189
18543TIP3   OH277119   1.915   1.224   0.671 -0.6240  0.3222  0.1426
18543TIP3    H177120   1.931   1.181   0.588  0.9459 -0.8788  1.0395
18543TIP3    H277121   1.845   1.173   0.712  0.0818 -0.3973  0.4743
18544TIP3   OH277122   5.451   0.981  14.191  0.1124  0.1947 -0.3164
18544TIP3    H177123   5.521   1.046  14.205 -0.6999  1.4807 -2.0513
18544TIP3    H277124   5.407   1.010  14.112 -2.3043 -0.7148  0.6502
18545TIP3   OH277125   1.697   2.530  11.650 -0.1559 -0.1815  0.2538
18545TIP3    H177126   1.769   2.588  11.623  0.5541 -1.6257 -1.0493
18545TIP3    H277127   1.645   2.520  11.570 -0.7839 -0.6075  0.7234
18546TIP3   OH277128   3.686   6.439  12.793 -0.0814 -0.4011 -0.7502
18546TIP3    H177129   3.593   6.419  12.782 -0.4912  0.3220  1.2267
18546TIP3    H277130   3.705   6.412  12.883  0.9227  2.1142 -0.1857
18547TIP3   OH277131   5.565   2.736  10.148  0.0304  0.1625  0.1598
18547TIP3    H177132   5.478   2.703  10.128  0.0377  0.1171  0.2024
18547TIP3    H277133   5.613   2.728  10.065 -0.5028  1.7671 -0.3311
18548TIP3   OH277134   2.368   4.538   0.444  0.4026 -0.3226 -0.2612
18548TIP3    H177135   2.457   4.532   0.410  0.3859  0.1624 -0.3943
18548TIP3    H277136   2.340   4.447   0.456  0.3609 -0.5099 -1.6747
18549TIP3   OH277137   2.821   3.073  16.715  0.2919  0.4699  0.2059
18549TIP3    H177138   2.794   2.997  16.766  1.1325  0.7274  1.0478
18549TIP3    H277139   2.755   3.140  16.736 -1.1612 -0.4006 -1.5051
18550TIP3   OH277140   4.725   1.530   4.807  0.1910  0.5967 -0.1168
18550TIP3    H177141   4.817   1.558   4.808  1.4521 -3.1733 -0.7789
18550TIP3    H277142   4.695   1.547   4.718  1.3448 -1.3070 -0.8942
18551TIP3   OH277143   5.532   4.581  12.916  0.0728  0.0877  0.7784
18551TIP3    H177144   5.567   4.605  13.002  0.4682 -2.4984  1.3758
18551TIP3    H277145   5.465   4.515  12.935  0.2409 -0.5892 -0.9002
18552TIP3   OH277146   6.157   6.602   4.254  0.3474  0.1587 -0.2305
18552TIP3    H177147   6.168   6.630   4.344 -1.4365 -0.2229  0.1257
18552TIP3    H277148   6.149   6.683   4.204  1.7890  0.3760 -0.1209
18553TIP3   OH277149   4.014   2.302  15.087  0.7479 -0.3653 -0.0164
18553TIP3    H177150   4.069   2.362  15.136  0.0705  1.3113 -1.2767
18553TIP3    H277151   3.966   2.357  15.025  0.0236 -2.1732 -1.1219
18554TIP3   OH277152   4.055   3.862   2.821 -0.2043  0.0312  0.1513
18554TIP3    H177153   3.993   3.798   2.786 -0.3313  0.1856  0.0988
18554TIP3    H277154   4.141   3.829   2.793 -0.2297 -0.4256  0.6089
18555TIP3   OH277155   5.839   1.607   2.248 -0.6629  0.0124 -0.2754
18555TIP3    H177156   5.935   1.614   2.243 -0.8573  4.0088 -0.0301
18555TIP3    H277157   5.824   1.532   2.305  2.2981 -1.6996 -1.6434
18556TIP3   OH277158   0.672   1.720   1.633 -0.3535 -0.0290 -0.2798
18556TIP3    H177159   0.602   1.780   1.609 -1.0592 -0.9770 -0.6018
18556TIP3    H277160   0.639   1.633   1.609  0.3436 -0.6299  0.9004
18557TIP3   OH277161   1.599   6.324   5.231  0.4008 -0.2447 -0.3522
18557TIP3    H177162   1.657   6.397   5.211  0.2163  0.2927  1.0127
18557TIP3    H277163   1.556   6.349   5.313 -1.6099 -0.7126 -1.2142
18558TIP3   OH277164   3.573   3.370   0.214  0.4847  0.4015  0.6885
18558TIP3    H177165   3.603   3.281   0.198  0.9639  0.8180 -0.8150
18558TIP3    H277166   3.526   3.395   0.134 -0.1822  1.2802  1.3304
18559TIP3   OH277167   5.198   1.609  15.382 -0.5707 -0.8116 -0.1444
18559TIP3    H177168   5.229   1.661  15.457 -1.2814 -1.3596  0.5408
18559TIP3    H277169   5.112   1.646  15.361 -0.2155 -0.4228 -0.9287
18560TIP3   OH277170   0.486   0.460  13.707 -0.5886 -0.2711 -0.5034
18560TIP3    H177171   0.476   0.415  13.622  1.1761  1.1101 -1.4782
18560TIP3    H277172   0.397   0.468  13.740 -1.1192 -2.7835 -1.2011
18561TIP3   OH277173   5.323   2.585   2.709  0.0304  0.1045 -0.4282
18561TIP3    H177174   5.303   2.553   2.621  1.3345 -1.3010 -0.2304
18561TIP3    H277175   5.379   2.661   2.695 -1.4742  1.1721 -0.8454
18562TIP3   OH277176   5.503   5.010   1.399  0.0447  0.9389  0.1687
18562TIP3    H177177   5.505   4.985   1.307  0.4920 -1.4838  0.8014
18562TIP3    H277178   5.592   4.993   1.431 -0.0737  1.8670  1.0158
18563TIP3   OH277179   6.792   3.353  13.156  1.0394 -0.1630  0.2203
18563TIP3    H177180   6.798   3.418  13.085  1.5544  1.3345  1.6138
18563TIP3    H277181   6.722   3.294  13.127  1.3901  0.2902 -1.6458
18564TIP3   OH277182   3.828   0.999  15.336 -0.4449  0.2783 -0.2965
18564TIP3    H177183   3.765   0.933  15.366 -0.1045 -0.2294 -0.6734
18564TIP3    H277184   3.857   0.966  15.251 -0.0906  0.7972 -0.3745
18565TIP3   OH277185   5.343   5.092   2.785 -0.2728 -0.0393  0.4686
18565TIP3    H177186   5.370   5.110   2.695 -0.3745 -0.9350  0.2549
18565TIP3    H277187   5.255   5.129   2.792 -0.1304  0.3326  0.3066
18566TIP3   OH277188   4.134   1.125   5.936  0.2779  0.1702  0.5694
18566TIP3    H177189   4.066   1.066   5.968 -0.6022  0.9465  0.1805
18566TIP3    H277190   4.137   1.111   5.842  1.0605 -0.2637  0.6535
18567TIP3   OH277191   4.720   0.932  15.799  0.2351 -0.7951 -0.2712
18567TIP3    H177192   4.746   0.929  15.707  0.6833 -0.7633 -0.1466
18567TIP3    H277193   4.651   0.999  15.803  0.7571 -0.2484 -0.4498
18568TIP3   OH277194   0.480   1.314  11.538 -0.1734  0.3073 -0.4641
18568TIP3    H177195   0.516   1.226  11.552  0.6110  0.8298  0.8569
18568TIP3    H277196   0.499   1.333  11.446  3.8073  0.9399  0.3869
18569TIP3   OH277197   6.633   1.111  16.480  0.0585 -0.0104  0.6029
18569TIP3    H177198   6.554   1.123  16.533  1.0022 -0.1595  2.0524
18569TIP3    H277199   6.663   1.023  16.502  2.4380  1.2473  2.5137
18570TIP3   OH277200   2.768   5.004  14.825  0.2382 -0.0846  0.1660
18570TIP3    H177201   2.752   5.089  14.866  0.2302  0.4656 -0.9561
18570TIP3    H277202   2.732   4.941  14.887  0.3782  0.7130  1.0851
18571TIP3   OH277203   1.107   5.490  13.646  0.0657  0.5476  0.5716
18571TIP3    H177204   1.049   5.484  13.722 -1.9165  0.6643 -0.8620
18571TIP3    H277205   1.127   5.399  13.623 -1.2657  0.4046 -0.1327
18572TIP3   OH277206   4.846   6.063   4.289  0.4399 -0.4387 -0.3212
18572TIP3    H177207   4.790   6.115   4.231  2.3167 -0.0817 -1.8530
18572TIP3    H277208   4.804   6.069   4.375 -0.9274  1.2384 -1.0853
18573TIP3   OH277209   5.797   5.300   3.297 -0.0601 -0.2751 -0.5919
18573TIP3    H177210   5.770   5.356   3.371  0.8065  0.2198 -0.6403
18573TIP3    H277211   5.886   5.330   3.276  0.7557 -2.2439 -0.0695
18574TIP3   OH277212   1.062   5.219   4.391 -0.2847 -0.1625 -0.0526
18574TIP3    H177213   1.006   5.156   4.436 -1.6304  0.4839 -0.7933
18574TIP3    H277214   1.022   5.304   4.408  1.1903  0.4447  0.4539
18575TIP3   OH277215   2.504   0.451  13.547  0.4534  0.3105 -0.2758
18575TIP3    H177216   2.533   0.531  13.503  0.3286 -0.4827 -1.8222
18575TIP3    H277217   2.573   0.387  13.529  0.1831 -0.1568  0.3075
18576TIP3   OH277218   5.539   4.029   1.824  0.7329 -0.1251  0.6233
18576TIP3    H177219   5.493   4.091   1.767 -1.2365 -0.4907  1.7854
18576TIP3    H277220   5.632   4.044   1.806  0.2742  2.9544  0.6719
18577TIP3   OH277221   1.051   3.292  12.325  0.2517 -0.3543  0.2450
18577TIP3    H177222   1.109   3.366  12.340 -1.2814  0.9663 -0.2535
18577TIP3    H277223   1.047   3.247  12.410 -0.3269  1.2397  1.0858
18578TIP3   OH277224   5.770   6.498   1.767  0.0832  0.6208  0.3416
18578TIP3    H177225   5.733   6.413   1.740  1.4656  0.7679 -2.1990
18578TIP3    H277226   5.771   6.494   1.862 -0.4145 -1.9982  0.2922
18579TIP3   OH277227   3.659   4.486  14.402  0.0224  0.7381  0.4314
18579TIP3    H177228   3.599   4.533  14.344  0.5505  1.1516  0.2079
18579TIP3    H277229   3.717   4.554  14.436  1.2665  0.1529 -0.4688
18580TIP3   OH277230   1.940   4.740   4.457  0.2654  0.8609 -0.0450
18580TIP3    H177231   2.017   4.769   4.408  0.4294 -0.2487 -0.4701
18580TIP3    H277232   1.973   4.674   4.517 -0.0057  1.9622  1.3220
18581TIP3   OH277233   2.494   0.525  15.835  0.3687  0.0732 -0.4889
18581TIP3    H177234   2.555   0.451  15.834 -0.8541 -0.9306 -0.9409
18581TIP3    H277235   2.502   0.561  15.923 -0.1840 -1.5717  0.2536
18582TIP3   OH277236   2.098   4.619  15.570 -0.7339 -0.2598  0.9658
18582TIP3    H177237   2.027   4.667  15.526  0.8371 -0.8194 -2.3334
18582TIP3    H277238   2.065   4.530  15.578 -1.0787 -0.1278  1.0387
18583TIP3   OH277239   0.179   3.582   1.147  0.5127  0.2948  0.1848
18583TIP3    H177240   0.097   3.537   1.127  0.4690  1.3182 -2.0094
18583TIP3    H277241   0.233   3.516   1.191 -1.4389 -0.4014  1.6018
18584TIP3   OH277242   3.380   4.359  12.418 -0.2358  0.4319  0.5423
18584TIP3    H177243   3.400   4.443  12.377  0.2921  0.5232  0.9824
18584TIP3    H277244   3.392   4.295  12.347 -0.8508  0.7415  0.1522
18585TIP3   OH277245   5.162   3.005  12.393 -0.2690 -0.2321 -0.6677
18585TIP3    H177246   5.114   3.004  12.310  0.2064 -1.4205 -0.9363
18585TIP3    H277247   5.112   2.948  12.450 -0.6850  0.7123 -0.0691
18586TIP3   OH277248   2.013   2.626   0.175 -0.2565  0.4430 -0.4868
18586TIP3    H177249   2.102   2.655   0.193  0.0378 -0.1782 -0.9497
18586TIP3    H277250   1.964   2.652   0.253  0.6074 -0.4257  0.3713
18587TIP3   OH277251   0.464   2.042  12.698  0.0261 -0.0092 -0.2575
18587TIP3    H177252   0.478   1.962  12.648  0.9432  1.1131 -1.8663
18587TIP3    H277253   0.370   2.054  12.700 -0.2502 -2.1531  1.6991
18588TIP3   OH277254   5.606   4.010   4.564  0.1545  0.4699 -0.1812
18588TIP3    H177255   5.614   4.012   4.659 -0.6815  0.7920 -0.1153
18588TIP3    H277256   5.691   4.041   4.532 -0.3263  2.5577  0.4965
18589TIP3   OH277257   4.259   5.536  13.311 -0.4912 -0.0701  0.3055
18589TIP3    H177258   4.167   5.516  13.328 -0.3487 -0.4117  0.6715
18589TIP3    H277259   4.308   5.473  13.363 -0.0470 -0.0118 -0.0358
18590TIP3   OH277260   4.163   4.709   2.038  0.0833 -0.0137  0.0864
18590TIP3    H177261   4.109   4.663   2.102  0.3750 -1.0652 -0.4128
18590TIP3    H277262   4.144   4.802   2.053  0.7830 -0.1911  2.2525
18591TIP3   OH277263   2.727   1.907   2.468  0.1867  0.5169  0.3837
18591TIP3    H177264   2.655   1.949   2.515  0.9602 -0.3787  2.3860
18591TIP3    H277265   2.720   1.815   2.490  0.5192  0.0604 -1.3362
18592TIP3   OH277266   6.525   3.342  16.303 -0.0253 -0.4505 -0.1948
18592TIP3    H177267   6.535   3.435  16.282  0.9778 -0.3521  0.7221
18592TIP3    H277268   6.435   3.321  16.275 -0.5794  1.0118  0.4269
18593TIP3   OH277269   2.587   0.979   1.839 -0.5284 -0.1722  0.1080
18593TIP3    H177270   2.665   0.925   1.837 -0.9493 -0.8632  1.5247
18593TIP3    H277271   2.591   1.031   1.759  2.2480  1.0493  0.9963
18594TIP3   OH277272   2.859   6.548  10.603 -0.2658  0.3448  0.2981
18594TIP3    H177273   2.839   6.455  10.596  0.9551 -0.0132  1.3929
18594TIP3    H277274   2.852   6.567  10.696 -0.4164  1.3410  0.0911
18595TIP3   OH277275   6.315   0.714   5.807 -0.0101 -0.0790 -0.5312
18595TIP3    H177276   6.385   0.760   5.854  0.4272 -0.4412 -0.8256
18595TIP3    H277277   6.243   0.712   5.870 -0.2762  1.6027 -0.7412
18596TIP3   OH277278   4.435   6.442  17.049 -0.4824  0.6033 -0.1146
18596TIP3    H177279   4.470   6.524  17.016 -3.1153  1.1407 -1.7028
18596TIP3    H277280   4.504   6.378  17.032  0.8112  2.1053 -0.6614
18597TIP3   OH277281   4.385   5.546   4.367 -0.2753 -0.1313 -0.0769
18597TIP3    H177282   4.412   5.564   4.277  1.2085 -1.4577  0.0642
18597TIP3    H277283   4.297   5.510   4.359  0.4333 -1.7010 -1.1673
18598TIP3   OH277284   3.591   0.893  17.034  0.8834  0.4112 -0.0826
18598TIP3    H177285   3.607   0.969  17.091  1.9182 -1.1025  1.6995
18598TIP3    H277286   3.541   0.929  16.960 -0.6933  2.4159  1.8640
18599TIP3   OH277287   4.497   5.682  16.935  0.0716 -0.4254  0.3045
18599TIP3    H177288   4.551   5.744  16.887 -0.5302 -0.6505 -0.6760
18599TIP3    H277289   4.411   5.724  16.942 -0.5428 -1.4038 -0.9745
18600TIP3   OH277290   5.731   0.636   2.350  0.1896 -0.1064 -0.1428
18600TIP3    H177291   5.726   0.715   2.297  0.1885  0.6243  0.9310
18600TIP3    H277292   5.810   0.647   2.403 -1.4377  0.5644  2.1893
18601TIP3   OH277293   6.742   4.234   2.218  0.3822 -0.7008 -0.3109
18601TIP3    H177294   6.673   4.269   2.275  0.4070 -0.2913 -0.5378
18601TIP3    H277295   6.811   4.206   2.278  2.2237  3.5405 -0.3219
18602TIP3   OH277296   1.983   5.832   1.462  0.0104  0.1124  0.1576
18602TIP3    H177297   2.022   5.747   1.485 -0.8808 -0.2858  0.2312
18602TIP3    H277298   1.966   5.874   1.547  0.1928  0.2529  0.1261
18603TIP3   OH277299   3.177   3.470  13.249  0.0661  0.6182 -0.0533
18603TIP3    H177300   3.145   3.399  13.304 -1.2579  1.4589  0.3017
18603TIP3    H277301   3.111   3.479  13.180  0.3692  1.3055 -0.2653
18604TIP3   OH277302   5.912   5.919  13.578  0.7126  0.0913 -0.4155
18604TIP3    H177303   5.923   5.938  13.672 -0.2727  0.0177 -0.2839
18604TIP3    H277304   5.956   5.835  13.565  0.7120  0.0219  0.0125
18605TIP3   OH277305   3.212   3.797   4.606  0.2258  0.1397 -0.0307
18605TIP3    H177306   3.307   3.807   4.605  0.5004 -2.1540  0.2544
18605TIP3    H277307   3.194   3.730   4.540 -1.3443  1.5419 -1.0865
18606TIP3   OH277308   6.596   1.664  13.894  0.0397 -0.2123 -0.0826
18606TIP3    H177309   6.520   1.611  13.871  0.0463 -0.1652 -0.2125
18606TIP3    H277310   6.605   1.655  13.989 -0.5788  0.4000  0.0324
18607TIP3   OH277311   0.717   5.389  13.285 -0.6597  0.0361  0.6032
18607TIP3    H177312   0.660   5.322  13.247  0.6222  0.1635 -1.6363
18607TIP3    H277313   0.762   5.345  13.357 -1.9748 -0.6684  1.0137
18608TIP3   OH277314   0.433   5.583  16.802 -0.3913  0.2201 -0.1464
18608TIP3    H177315   0.360   5.521  16.803  0.5105 -0.8485  0.1633
18608TIP3    H277316   0.392   5.668  16.783 -1.3354 -0.8664 -3.3419
18609TIP3   OH277317   6.146   0.140  13.284  0.0598  0.6739  0.5429
18609TIP3    H177318   6.108   0.112  13.201  2.1552  0.0504 -0.2390
18609TIP3    H277319   6.155   0.234  13.276  0.3225  0.6058  0.0366
18610TIP3   OH277320   2.529   3.897  11.406  0.3858  0.0874  0.1783
18610TIP3    H177321   2.470   3.822  11.416  0.0227  0.4675  0.9698
18610TIP3    H277322   2.607   3.861  11.363 -0.0517 -0.6043 -0.0510
18611TIP3   OH277323   3.932   1.351   5.121 -0.0186 -0.3645 -0.0924
18611TIP3    H177324   3.856   1.366   5.177  0.8594 -1.5535  1.4638
18611TIP3    H277325   3.945   1.434   5.076 -1.1853  0.3979  0.9338
18612TIP3   OH277326   4.551   6.797  14.484  0.3486  0.3534  0.4987
18612TIP3    H177327   4.609   6.722  14.478 -0.6915 -0.4376  0.0115
18612TIP3    H277328   4.500   6.795  14.402  0.5005  1.7479  0.3494
18613TIP3   OH277329   6.448   2.860   5.577  0.5383  0.1908  0.0629
18613TIP3    H177330   6.415   2.879   5.665 -0.4290  2.8161 -0.8250
18613TIP3    H277331   6.371   2.836   5.527  1.0230 -0.8230 -0.2083
18614TIP3   OH277332   6.230   0.308   1.732 -0.1454 -0.2674  0.0101
18614TIP3    H177333   6.269   0.390   1.762 -0.0426 -0.4991  0.5053
18614TIP3    H277334   6.157   0.293   1.792 -3.0593  1.8357 -2.7889
18615TIP3   OH277335   6.238   6.461   0.923 -0.4086 -0.2678  0.2656
18615TIP3    H177336   6.173   6.420   0.865 -0.8808  0.4170  0.3161
18615TIP3    H277337   6.239   6.405   1.001 -0.8571 -0.3350  0.2225
18616TIP3   OH277338   3.305   5.377  12.604  0.0440  0.2778  0.7292
18616TIP3    H177339   3.238   5.441  12.626  0.7861  1.4155 -0.2208
18616TIP3    H277340   3.383   5.429  12.585  0.9049 -0.9588  0.7795
18617TIP3   OH277341   3.210   1.481  15.551 -0.4549  0.6714 -0.3407
18617TIP3    H177342   3.181   1.559  15.504 -1.0036 -0.2364 -1.5420
18617TIP3    H277343   3.130   1.442  15.585 -0.2532  0.2797 -0.3169
18618TIP3   OH277344   6.083   2.209   4.651  0.5746 -0.5278 -0.1138
18618TIP3    H177345   6.055   2.119   4.633 -0.2037 -0.4726  0.8196
18618TIP3    H277346   6.150   2.200   4.719  1.7586 -0.5275 -1.2445
18619TIP3   OH277347   0.391   6.525  14.456  0.0168  0.0151  0.0231
18619TIP3    H177348   0.449   6.480  14.395 -0.6391 -0.3915 -0.3090
18619TIP3    H277349   0.415   6.489  14.542  0.3730 -0.0172 -0.0878
18620TIP3   OH277350   1.210   6.081  14.737  0.2521  0.0427  0.3661
18620TIP3    H177351   1.195   6.035  14.655  0.2111  2.2449 -0.9238
18620TIP3    H277352   1.127   6.125  14.755  0.6433  0.5555  0.9289
18621TIP3   OH277353   3.094   0.315  14.049 -0.0521  0.1457 -0.0745
18621TIP3    H177354   3.150   0.307  13.972 -0.4354  0.7523 -0.4202
18621TIP3    H277355   3.024   0.374  14.021  0.2477  1.0045  0.9971
18622TIP3   OH277356   0.220   5.796   4.721  0.1373  0.0281 -0.4047
18622TIP3    H177357   0.231   5.728   4.788  2.7517  0.2927 -0.5219
18622TIP3    H277358   0.200   5.875   4.771  0.3251 -0.1355 -0.0708
18623TIP3   OH277359   5.741   6.131   4.675 -0.0259  0.5224 -0.5075
18623TIP3    H177360   5.807   6.072   4.637 -0.0049  1.0284 -1.2731
18623TIP3    H277361   5.790   6.190   4.731 -0.0823 -0.3722  0.5040
18624TIP3   OH277362   0.967   5.201   0.557  0.2180  0.0475  0.3499
18624TIP3    H177363   1.000   5.170   0.641 -0.6708 -1.5832  0.1175
18624TIP3    H277364   0.911   5.276   0.580  0.6218  0.1206  1.1283
18625TIP3   OH277365   1.431   5.208   5.194 -0.3942 -0.3371  0.0591
18625TIP3    H177366   1.442   5.302   5.179 -1.1745 -0.3448 -0.5918
18625TIP3    H277367   1.517   5.170   5.172  0.3186  0.3612  1.5826
18626TIP3   OH277368   2.924   3.896  15.080 -0.4206  0.1504 -0.1720
18626TIP3    H177369   2.853   3.847  15.123  0.2066 -0.3676  0.2782
18626TIP3    H277370   2.904   3.889  14.987 -0.0960 -1.3463 -0.1366
18627TIP3   OH277371   0.784   5.960  12.206 -0.5422 -0.0580 -0.0101
18627TIP3    H177372   0.782   5.868  12.181 -0.8188  0.8682 -3.7228
18627TIP3    H277373   0.711   5.970  12.267 -0.5307 -2.2631  0.4058
18628TIP3   OH277374   4.218   2.688  12.334 -0.0512  0.1999 -0.3154
18628TIP3    H177375   4.154   2.644  12.390 -1.7451 -0.0300 -2.3724
18628TIP3    H277376   4.169   2.758  12.291  1.7263  1.7269  0.0854
18629TIP3   OH277377   2.023   1.431  16.314 -0.1284  0.2896 -0.0817
18629TIP3    H177378   2.032   1.357  16.373 -2.2369  0.4456  0.4594
18629TIP3    H277379   1.939   1.418  16.270 -0.1610  1.9344 -0.5643
18630TIP3   OH277380   1.852   2.404   0.405 -0.3515 -0.0441 -0.8868
18630TIP3    H177381   1.765   2.442   0.400 -0.3523  0.2481  0.9087
18630TIP3    H277382   1.910   2.477   0.427 -0.2647 -0.9179  1.9770
18631TIP3   OH277383   0.477   0.352   5.978  0.0399 -0.4041 -0.3118
18631TIP3    H177384   0.453   0.297   6.053 -0.9569  0.2203 -0.1752
18631TIP3    H277385   0.521   0.428   6.018  0.6589 -0.6838 -0.4497
18632TIP3   OH277386   2.652   4.011  14.689 -0.3545  0.3785  0.3878
18632TIP3    H177387   2.627   3.998  14.598  1.8420 -1.0124 -0.0617
18632TIP3    H277388   2.691   4.098  14.692  3.1932 -1.0814 -0.8996
18633TIP3   OH277389   5.520   6.448  11.018  0.1390  0.2804  0.2740
18633TIP3    H177390   5.531   6.539  11.048  0.9638  1.0427 -2.2796
18633TIP3    H277391   5.502   6.455  10.925 -2.0264 -2.0893  0.4574
18634TIP3   OH277392   6.352   5.470  12.204 -0.1804 -0.3833 -0.0840
18634TIP3    H177393   6.416   5.418  12.154 -0.1443  0.1578 -0.6102
18634TIP3    H277394   6.347   5.426  12.289  2.5948  0.8914  0.7892
18635TIP3   OH277395   5.369   1.222  17.268  0.3011 -0.0326  0.2294
18635TIP3    H177396   5.394   1.314  17.275 -0.8282  0.2476  0.6614
18635TIP3    H277397   5.317   1.217  17.187  0.0450 -0.2205  0.4036
18636TIP3   OH277398   1.517   3.444   5.623 -0.1907  0.1291  0.3773
18636TIP3    H177399   1.557   3.389   5.690 -1.8500 -2.0995 -0.3963
18636TIP3    H277400   1.445   3.488   5.668 -2.0258 -2.2326 -0.1033
18637TIP3   OH277401   0.850   0.566   1.437 -0.0687 -0.0092  0.3520
18637TIP3    H177402   0.818   0.643   1.485 -0.1668 -1.1762  2.1933
18637TIP3    H277403   0.800   0.493   1.473  0.7750 -1.0952 -0.6499
18638TIP3   OH277404   4.069   6.375   6.145 -0.3336 -0.3212  0.3605
18638TIP3    H177405   4.096   6.297   6.193 -2.1021 -1.6538 -0.7651
18638TIP3    H277406   4.143   6.435   6.153  1.3531 -2.3869  0.6000
18639TIP3   OH277407   5.332   4.227   0.664 -0.0118 -0.1750 -0.7295
18639TIP3    H177408   5.278   4.233   0.743 -1.2958 -0.1300 -1.5950
18639TIP3    H277409   5.384   4.307   0.664  0.3046 -0.3689  0.2823
18640TIP3   OH277410   2.814   6.509   2.998 -0.0969 -0.2216  0.1371
18640TIP3    H177411   2.738   6.540   3.048  0.1349 -0.2269  0.4909
18640TIP3    H277412   2.825   6.418   3.025 -0.6575 -0.5733 -0.7585
18641TIP3   OH277413   1.400   2.608   4.104  0.2571  0.2317  0.3520
18641TIP3    H177414   1.369   2.621   4.194  1.0852 -0.8353  0.8078
18641TIP3    H277415   1.451   2.687   4.084 -1.9657  1.6068 -0.0957
18642TIP3   OH277416   5.893   0.555  11.238 -0.2972 -0.7426 -0.5064
18642TIP3    H177417   5.837   0.484  11.268  0.4872 -0.5418  1.5092
18642TIP3    H277418   5.977   0.513  11.220 -0.6194 -0.7755 -2.0041
18643TIP3   OH277419   6.639   6.500   2.010 -0.1116  0.0405 -0.4012
18643TIP3    H177420   6.689   6.459   1.939 -1.0002 -1.4975 -0.1640
18643TIP3    H277421   6.640   6.593   1.989 -0.6924 -0.4355 -2.6665
18644TIP3   OH277422   1.417   1.989  12.409  0.3981  0.1582 -0.1691
18644TIP3    H177423   1.378   1.919  12.356  0.5670  0.2939 -0.4721
18644TIP3    H277424   1.463   1.942  12.479 -1.3320  0.0219  0.9241
18645TIP3   OH277425   5.569   1.796  13.657 -0.1545  0.0625  0.1657
18645TIP3    H177426   5.568   1.724  13.595  0.3979  0.1420  0.0569
18645TIP3    H277427   5.528   1.761  13.736  0.9705 -0.6598  0.4332
18646TIP3   OH277428   0.463   6.197  10.735 -0.3832  0.1211  0.7980
18646TIP3    H177429   0.459   6.153  10.819  1.0217 -0.9394  0.3156
18646TIP3    H277430   0.469   6.127  10.671  0.5688  0.9736 -0.0681
18647TIP3   OH277431   2.980   4.091  14.444 -0.1835 -0.7212  0.0995
18647TIP3    H177432   2.994   4.166  14.501 -0.2338  0.3419 -1.2645
18647TIP3    H277433   2.935   4.127  14.367 -1.8018 -2.4413  0.2094
18648TIP3   OH277434   5.934   1.897   2.245 -0.5564 -0.2392 -0.0216
18648TIP3    H177435   5.893   1.827   2.296 -2.1315  0.3040 -0.4984
18648TIP3    H277436   5.973   1.852   2.170  2.1888 -1.0971  1.8652
18649TIP3   OH277437   4.886   1.913  15.124  0.0322  0.2632 -1.0054
18649TIP3    H177438   4.969   1.958  15.103  0.4399 -0.2723 -0.5441
18649TIP3    H277439   4.878   1.846  15.056  0.5624 -0.4391 -0.3867
18650TIP3   OH277440   1.458   6.066  14.371 -0.5768  0.4126  0.4304
18650TIP3    H177441   1.521   6.050  14.301 -1.6584  1.8575 -0.9157
18650TIP3    H277442   1.509   6.108  14.440  0.2941 -0.1107  0.1186
18651TIP3   OH277443   5.092   3.821   5.785  0.1773  0.3530 -0.4646
18651TIP3    H177444   5.178   3.862   5.780 -0.1699  1.3640  1.2946
18651TIP3    H277445   5.096   3.767   5.864 -0.2313 -0.9740 -1.3424
18652TIP3   OH277446   5.836   4.873   2.003  0.3439 -0.5054 -0.3597
18652TIP3    H177447   5.850   4.846   2.094  3.0592  0.5020 -0.4260
18652TIP3    H277448   5.853   4.793   1.952  0.7279 -0.5943 -0.0938
18653TIP3   OH277449   0.530   5.564   4.784  0.1526 -0.4943  0.1166
18653TIP3    H177450   0.437   5.543   4.782 -0.0670  0.5106 -0.7080
18653TIP3    H277451   0.533   5.656   4.808  1.0226 -0.9889  2.0026
18654TIP3   OH277452   1.304   5.384  13.374  0.2079 -0.3964 -0.0397
18654TIP3    H177453   1.365   5.440  13.326  1.3045  0.1667  1.9210
18654TIP3    H277454   1.218   5.420  13.355  0.5544 -0.6192 -2.1115
18655TIP3   OH277455   5.130   2.356   1.459  0.4027  0.4479 -0.2634
18655TIP3    H177456   5.077   2.316   1.527 -1.0713  0.2476 -1.5040
18655TIP3    H277457   5.179   2.284   1.421 -1.1042  0.0458 -1.4744
18656TIP3   OH277458   4.770   5.560   3.080 -0.1649  0.2088 -0.0647
18656TIP3    H177459   4.733   5.476   3.054  0.7863  0.0936 -1.1081
18656TIP3    H277460   4.844   5.538   3.136  0.0085  0.3522 -0.2347
18657TIP3   OH277461   1.987   5.977   5.616 -0.2320 -0.1502 -0.7401
18657TIP3    H177462   2.032   5.957   5.699 -0.6637  0.5866 -0.3230
18657TIP3    H277463   2.036   6.051   5.580 -0.3989 -0.0940 -0.8499
18658TIP3   OH277464   1.423   3.533   5.344 -0.2594 -0.7395  0.2557
18658TIP3    H177465   1.420   3.519   5.438  3.3334 -3.5265  0.0811
18658TIP3    H277466   1.418   3.445   5.306 -1.2068  0.2959 -2.1696
18659TIP3   OH277467   6.084   0.865  14.760 -0.1021 -0.0810 -0.1181
18659TIP3    H177468   6.071   0.958  14.779  1.2732  0.5801 -2.2609
18659TIP3    H277469   6.122   0.829  14.840 -1.9898  0.8744  1.2437
18660TIP3   OH277470   2.028   2.748  14.914  0.7420  0.2504  0.0053
18660TIP3    H177471   2.057   2.724  14.826 -1.6672 -0.3638 -0.6731
18660TIP3    H277472   1.987   2.833  14.903  0.1240  0.0149  0.4604
18661TIP3   OH277473   3.399   0.710   0.325 -0.0105  0.0913 -0.3008
18661TIP3    H177474   3.426   0.747   0.241 -1.1304 -1.7169 -1.4718
18661TIP3    H277475   3.371   0.621   0.305  0.1771 -0.5399  2.0754
18662TIP3   OH277476   1.392   2.638   3.738  0.0037 -0.0195  0.7396
18662TIP3    H177477   1.372   2.714   3.792  1.8870  1.0982 -0.0871
18662TIP3    H277478   1.364   2.563   3.791  0.5933  1.1173  2.6994
18663TIP3   OH277479   2.855   4.426  12.605 -0.2521 -0.3880 -0.1765
18663TIP3    H177480   2.883   4.511  12.569 -0.6020 -0.1276  0.1626
18663TIP3    H277481   2.937   4.378  12.620  0.0755  0.6871  1.6149
18664TIP3   OH277482   1.940   5.698  14.594 -0.2604 -0.3690 -0.1295
18664TIP3    H177483   1.974   5.787  14.594  1.2155 -0.9241  0.3768
18664TIP3    H277484   1.851   5.707  14.629  0.0968  0.8176  0.5155
18665TIP3   OH277485   3.422   3.885   6.169 -0.6233 -0.1153 -0.6017
18665TIP3    H177486   3.487   3.865   6.101  1.6403  2.0693  0.8554
18665TIP3    H277487   3.356   3.938   6.124 -0.6425 -1.0558 -1.7300
18666TIP3   OH277488   1.183   2.196  14.022  0.1197 -0.0820 -0.5272
18666TIP3    H177489   1.237   2.259  14.069  0.5997 -0.8522 -0.0300
18666TIP3    H277490   1.205   2.210  13.930  0.8986 -0.1334 -0.3545
18667TIP3   OH277491   5.517   5.369  14.874 -0.1230  0.2532 -0.0349
18667TIP3    H177492   5.569   5.417  14.809  1.2863  1.3772  1.8760
18667TIP3    H277493   5.579   5.309  14.915 -0.4494  1.1755  1.8512
18668TIP3   OH277494   1.238   3.286   5.315 -0.2286 -0.4269 -0.7727
18668TIP3    H177495   1.309   3.222   5.317  0.5034  0.3631 -0.8588
18668TIP3    H277496   1.221   3.306   5.407  0.0304 -0.2322 -0.7635
18669TIP3   OH277497   1.283   4.732   6.345  0.6924  0.1701 -0.0234
18669TIP3    H177498   1.205   4.706   6.296  1.1580  0.7221 -1.0784
18669TIP3    H277499   1.349   4.749   6.278  1.5334  0.3266  0.8282
18670TIP3   OH277500   2.410   4.720   6.614  0.4180 -0.2606  0.0206
18670TIP3    H177501   2.423   4.810   6.644 -1.6103 -0.2846  1.0536
18670TIP3    H277502   2.496   4.691   6.585  1.6169  1.1542  2.0767
18671TIP3   OH277503   1.714   5.766   1.060  0.2461 -0.3959  0.1962
18671TIP3    H177504   1.783   5.700   1.061  0.0145 -0.7553 -3.1084
18671TIP3    H277505   1.641   5.725   1.016 -1.0995  0.9547  1.1061
18672TIP3   OH277506   5.264   0.593   4.565 -0.2594  0.0174  0.2233
18672TIP3    H177507   5.182   0.587   4.516  0.1704 -2.5165 -0.2637
18672TIP3    H277508   5.331   0.606   4.497 -0.1280  0.8353  0.5094
18673TIP3   OH277509   3.709   6.068   5.220  0.1197 -0.0717  0.0444
18673TIP3    H177510   3.670   6.144   5.175  0.7397  0.7204  0.8152
18673TIP3    H277511   3.739   6.011   5.150 -2.4710 -0.7416 -0.5924
18674TIP3   OH277512   5.581   4.939  16.011 -0.2509  0.6585  0.0994
18674TIP3    H177513   5.567   4.935  16.105  0.9559  0.2721  0.2741
18674TIP3    H277514   5.493   4.941  15.973 -0.7278  1.3171  1.2490
18675TIP3   OH277515   1.103   6.469   1.975  0.4406  0.1034 -0.5072
18675TIP3    H177516   1.137   6.391   2.019  0.0664 -0.0282 -0.4455
18675TIP3    H277517   1.134   6.461   1.885  0.3557 -0.1460 -0.5144
18676TIP3   OH277518   1.700   2.644   0.846 -0.1131 -0.5806 -0.1085
18676TIP3    H177519   1.609   2.676   0.842  0.4401  1.2487  0.9293
18676TIP3    H277520   1.729   2.641   0.755 -0.7256  0.3527 -0.3461
18677TIP3   OH277521   3.379   6.421   2.248 -0.2727  0.0975 -0.0094
18677TIP3    H177522   3.474   6.417   2.234 -0.2060  0.1773  0.3943
18677TIP3    H277523   3.342   6.439   2.162  0.2065  1.9728  0.1553
18678TIP3   OH277524   1.453   0.970  16.628  0.1961  0.1678  1.0250
18678TIP3    H177525   1.358   0.976  16.637  0.1748  1.1738  0.2814
18678TIP3    H277526   1.484   0.948  16.715 -0.9385 -3.1870  0.6481
18679TIP3   OH277527   1.468   4.505  11.230  0.2133 -0.1561  0.2741
18679TIP3    H177528   1.511   4.449  11.295  1.1060 -0.9165 -0.9278
18679TIP3    H277529   1.413   4.445  11.180 -0.4294  0.4131  0.2883
18680TIP3   OH277530   3.394   4.435  16.547 -0.3236  0.2633 -0.0327
18680TIP3    H177531   3.325   4.373  16.524  0.2398 -0.7391  0.9835
18680TIP3    H277532   3.473   4.399  16.507 -0.1998  0.9374 -0.4144
18681TIP3   OH277533   6.328   5.131  15.934 -0.0189  0.3599  0.0784
18681TIP3    H177534   6.254   5.070  15.939  0.9733 -0.8145  0.6190
18681TIP3    H277535   6.317   5.187  16.010  0.5152 -0.8428  1.0682
18682TIP3   OH277536   4.661   0.563   6.127  0.2447  0.4912 -0.7206
18682TIP3    H177537   4.688   0.653   6.107  2.1655 -0.2892 -1.7180
18682TIP3    H277538   4.675   0.553   6.221  1.3330  0.8024 -0.8469
18683TIP3   OH277539   6.113   1.799   5.415 -0.9562  0.0710  0.2027
18683TIP3    H177540   6.168   1.722   5.422 -0.1830  0.5937 -0.0880
18683TIP3    H277541   6.023   1.765   5.421 -0.7083 -1.1246 -2.1967
18684TIP3   OH277542   5.737   2.948   0.051 -0.0100 -0.4270 -0.0302
18684TIP3    H177543   5.733   2.890   0.127  1.9319 -0.5932 -0.0257
18684TIP3    H277544   5.750   3.036   0.088  1.2191 -0.5437 -0.1534
18685TIP3   OH277545   2.375   1.501  13.141 -0.1631 -0.1359 -0.4068
18685TIP3    H177546   2.445   1.563  13.121 -0.6638  0.9376  1.0772
18685TIP3    H277547   2.402   1.458  13.221 -0.0813 -1.4684 -1.1415
18686TIP3   OH277548   3.778   2.003   5.187 -0.3797  0.3168 -0.3152
18686TIP3    H177549   3.709   1.994   5.121 -0.5634  0.4207 -0.1381
18686TIP3    H277550   3.732   2.003   5.271 -0.1736  0.4963 -0.2008
18687TIP3   OH277551   1.404   0.646  11.053 -0.3144  0.3498  0.0037
18687TIP3    H177552   1.429   0.558  11.027 -1.5682 -0.4392  1.3908
18687TIP3    H277553   1.425   0.700  10.977  2.5491 -0.7585 -0.0643
18688TIP3   OH277554   5.499   1.725  15.507  0.5435 -0.0201 -0.4110
18688TIP3    H177555   5.411   1.748  15.535  1.2777  0.7692  1.3198
18688TIP3    H277556   5.547   1.808  15.509  1.6471 -0.6627 -0.1113
18689TIP3   OH277557   2.294   6.221   5.821  0.1782 -0.3166 -0.6235
18689TIP3    H177558   2.236   6.235   5.896  1.5313  1.8656  0.0658
18689TIP3    H277559   2.380   6.207   5.861  0.3398 -2.3605 -1.6741
18690TIP3   OH277560   2.509   0.171  10.629 -0.2360 -0.3521 -0.2893
18690TIP3    H177561   2.461   0.245  10.590  0.9222  1.4746  1.6674
18690TIP3    H277562   2.601   0.193  10.616  0.1268 -1.2730  0.6644
18691TIP3   OH277563   5.166   2.613  10.708 -0.5892 -0.3782  0.0999
18691TIP3    H177564   5.082   2.629  10.750  0.7220 -0.1120  2.7592
18691TIP3    H277565   5.174   2.682  10.642 -2.1630 -0.0332  0.2517
18692TIP3   OH277566   0.845   3.642   3.374 -0.5646  0.1845 -0.1659
18692TIP3    H177567   0.774   3.579   3.361 -1.9326  1.1238  2.3801
18692TIP3    H277568   0.921   3.603   3.330 -1.4957 -3.0305  0.9482
18693TIP3   OH277569   3.083   1.113  11.814 -0.6511 -0.3236  0.3327
18693TIP3    H177570   3.029   1.098  11.737 -0.2053 -0.1715 -0.0155
18693TIP3    H277571   3.080   1.207  11.827  0.2256 -0.2098 -0.2134
18694TIP3   OH277572   4.509   5.807   4.300  0.1181 -0.3424  0.2246
18694TIP3    H177573   4.433   5.770   4.344 -0.0797  0.0466  0.2103
18694TIP3    H277574   4.547   5.734   4.252 -0.5621 -0.4113 -0.2061
18695TIP3   OH277575   4.054   1.830   3.689  0.4310  0.1251  0.4638
18695TIP3    H177576   4.056   1.772   3.765 -0.9094 -0.5051  0.0283
18695TIP3    H277577   4.113   1.789   3.625  1.5142  0.6248  1.1186
18696TIP3   OH277578   0.756   5.667  13.371 -0.7388  0.1345  0.2762
18696TIP3    H177579   0.816   5.609  13.324  0.2132  0.8565  0.5847
18696TIP3    H277580   0.694   5.698  13.304 -0.1284  0.2085 -0.2590
18697TIP3   OH277581   3.033   1.085  16.511 -0.6092  0.3598 -0.1515
18697TIP3    H177582   3.011   1.120  16.425 -0.4132 -1.5140 -0.9948
18697TIP3    H277583   2.951   1.089  16.561 -1.1243 -0.0229 -0.9574
18698TIP3   OH277584   5.127   4.363  12.998 -0.6443 -0.2298  0.1913
18698TIP3    H177585   5.095   4.445  13.036 -1.3200 -0.2712 -0.2824
18698TIP3    H277586   5.073   4.295  13.039  1.3861 -0.6645  2.2636
18699TIP3   OH277587   5.646   4.347  13.872  0.3706 -0.5827  0.0291
18699TIP3    H177588   5.707   4.405  13.918 -0.0578 -0.6728  0.7186
18699TIP3    H277589   5.699   4.271  13.848  0.7298 -0.2857 -0.1208
18700TIP3   OH277590   3.381   5.313  15.075 -0.7134  0.5736 -0.1311
18700TIP3    H177591   3.428   5.379  15.125  0.2007 -0.9423  1.0897
18700TIP3    H277592   3.391   5.340  14.984  1.0614  1.2245  0.2397
18701TIP3   OH277593   5.283   1.374  15.532  0.0033  0.4285 -0.2818
18701TIP3    H177594   5.245   1.439  15.473 -1.0589 -0.0583 -0.1453
18701TIP3    H277595   5.261   1.406  15.620  1.4258  1.0585 -0.1499
18702TIP3   OH277596   4.414   4.825   5.422  0.7698  0.6128  0.4185
18702TIP3    H177597   4.372   4.742   5.403 -1.9160  1.8495  0.6537
18702TIP3    H277598   4.468   4.844   5.345 -0.1982 -0.3845 -0.5185
18703TIP3   OH277599   5.081   6.209  12.114  0.6243 -0.1028  0.1227
18703TIP3    H177600   5.119   6.229  12.199  1.5878  0.1407 -0.3511
18703TIP3    H277601   5.016   6.279  12.100 -0.4915 -0.9049  1.2313
18704TIP3   OH277602   2.235   6.061  14.179  0.2335  0.5028 -0.3354
18704TIP3    H177603   2.246   6.045  14.085  0.2645 -2.8894  0.2002
18704TIP3    H277604   2.165   6.126  14.184 -1.8859 -1.5168 -2.6309
18705TIP3   OH277605   6.145   5.161  12.512 -0.3990 -1.1421  0.2276
18705TIP3    H177606   6.086   5.145  12.586  0.6778  0.5666  1.5059
18705TIP3    H277607   6.196   5.081  12.504 -0.5789 -1.3685  1.2860
18706TIP3   OH277608   6.141   3.111  12.238 -0.7864 -0.4983 -0.1633
18706TIP3    H177609   6.205   3.135  12.171 -0.9596 -0.4436 -0.3074
18706TIP3    H277610   6.142   3.184  12.300  0.2481 -1.0824  0.5302
18707TIP3   OH277611   1.731   3.507  16.886  0.0350  0.2460 -0.3302
18707TIP3    H177612   1.782   3.479  16.963 -2.4927 -0.0456  1.3123
18707TIP3    H277613   1.722   3.427  16.834  0.1707 -0.0193  0.0449
18708TIP3   OH277614   3.377   1.637   2.172  0.2356 -0.3770 -0.3874
18708TIP3    H177615   3.446   1.609   2.111  0.0336  1.2664 -1.4248
18708TIP3    H277616   3.421   1.641   2.257  1.3239  0.2113 -0.9606
18709TIP3   OH277617   5.414   0.677  16.791 -0.2218 -0.1403 -0.1326
18709TIP3    H177618   5.319   0.682  16.799 -0.3801 -1.1917 -1.1773
18709TIP3    H277619   5.429   0.609  16.724  1.2290  0.7573 -0.7470
18710TIP3   OH277620   0.918   2.595   0.274 -0.3397  0.4946 -0.0364
18710TIP3    H177621   0.995   2.649   0.257 -0.5216  0.6877 -0.2425
18710TIP3    H277622   0.875   2.587   0.189  0.2743 -0.8803 -0.2281
18711TIP3   OH277623   3.765   6.715   5.063 -0.6180 -0.5574 -0.5616
18711TIP3    H177624   3.836   6.701   5.125  0.7874  2.2787 -1.4558
18711TIP3    H277625   3.769   6.639   5.005  1.6029 -0.5371 -0.4973
18712TIP3   OH277626   3.942   0.246   4.426 -0.0447  0.0540 -0.1042
18712TIP3    H177627   3.891   0.193   4.488  0.5108 -0.6758 -0.2514
18712TIP3    H277628   4.033   0.229   4.451  0.1984 -0.5582 -1.3536
18713TIP3   OH277629   3.874   4.450   3.481  0.2921  0.2573  0.5254
18713TIP3    H177630   3.807   4.382   3.491 -0.8230  1.3402  0.5615
18713TIP3    H277631   3.926   4.422   3.406 -0.0832 -0.6965  0.6160
18714TIP3   OH277632   1.012   6.028   2.567  0.0441 -0.1621 -0.0989
18714TIP3    H177633   0.918   6.016   2.580  0.4561 -1.9586  1.3211
18714TIP3    H277634   1.025   6.012   2.474 -1.1065  0.5926 -0.4110
18715TIP3   OH277635   5.094   0.315  17.226  0.2790 -1.0832  0.0846
18715TIP3    H177636   5.074   0.224  17.203  0.5942 -0.9676 -0.6626
18715TIP3    H277637   5.027   0.366  17.181  1.8585 -0.7368 -1.9649
18716TIP3   OH277638   0.472   0.722  14.861  0.2285 -0.3447 -0.4279
18716TIP3    H177639   0.423   0.798  14.831 -1.4720 -1.5222 -0.6907
18716TIP3    H277640   0.406   0.655  14.877  1.7433 -1.9592 -0.7248
18717TIP3   OH277641   6.256   2.579   0.286 -0.8627  0.4957 -0.7083
18717TIP3    H177642   6.299   2.599   0.203  0.1931  1.4851  0.0731
18717TIP3    H277643   6.170   2.620   0.279 -1.6077 -1.2200 -2.1452
18718TIP3   OH277644   1.632   5.742   3.046 -0.5907 -0.0852  0.0122
18718TIP3    H177645   1.552   5.693   3.067 -0.0279 -0.0944  2.1929
18718TIP3    H277646   1.606   5.799   2.974 -2.3796 -0.5784  0.2362
18719TIP3   OH277647   1.693   1.256   0.387 -0.3877  0.7987  0.1092
18719TIP3    H177648   1.676   1.202   0.464 -0.7473  1.0507  0.2122
18719TIP3    H277649   1.605   1.279   0.355 -0.2379  0.7365 -0.3432
18720TIP3   OH277650   1.687   1.350   2.202 -0.1204  0.1330 -0.5452
18720TIP3    H177651   1.628   1.286   2.242 -0.1950  0.2972 -0.3870
18720TIP3    H277652   1.679   1.427   2.258  0.1931  0.1798 -0.5662
18721TIP3   OH277653   3.259   1.989  15.874 -0.6089  0.3209 -0.3785
18721TIP3    H177654   3.235   1.908  15.919  0.7183  0.2758  0.2702
18721TIP3    H277655   3.351   2.002  15.895 -0.7336  1.8641 -0.7033
18722TIP3   OH277656   5.486   4.832   4.118 -0.2384  0.0363  0.2000
18722TIP3    H177657   5.511   4.809   4.029  0.8966 -0.7042  0.7006
18722TIP3    H277658   5.448   4.920   4.111  2.8270  1.3397 -0.5310
18723TIP3   OH277659   2.954   2.177   2.066  0.3019  0.4930  0.0142
18723TIP3    H177660   2.923   2.091   2.038  0.7040  0.7349 -1.2278
18723TIP3    H277661   2.893   2.238   2.025  1.8496  0.9319 -1.7287
18724TIP3   OH277662   2.963   0.749  17.266  0.1156  0.2650  0.3835
18724TIP3    H177663   2.895   0.686  17.243 -0.7732  1.0639  0.7941
18724TIP3    H277664   3.032   0.735  17.202 -0.7997  0.0235 -0.5541
18725TIP3   OH277665   5.630   4.801  12.118 -0.1746 -0.0451  0.1475
18725TIP3    H177666   5.720   4.785  12.144 -0.5047  0.0748  1.4083
18725TIP3    H277667   5.611   4.733  12.053  1.0396  0.3669 -0.6482
18726TIP3   OH277668   1.931   3.860  13.164 -0.0280 -0.1226 -0.1052
18726TIP3    H177669   1.945   3.944  13.208 -0.4369 -0.2040  0.1858
18726TIP3    H277670   1.968   3.795  13.224 -0.0335 -0.1828 -0.1674
18727TIP3   OH277671   3.082   6.524  11.678 -0.2196 -0.3538 -0.4029
18727TIP3    H177672   3.167   6.543  11.639  0.0071  2.9188  1.4988
18727TIP3    H277673   3.021   6.583  11.633 -0.7867 -0.0217  0.7739
18728TIP3   OH277674   6.275   0.844  16.634 -0.0109 -1.0661 -0.1183
18728TIP3    H177675   6.296   0.915  16.574 -0.4748  0.7764  1.8732
18728TIP3    H277676   6.181   0.831  16.624 -0.1628 -0.4648  0.5272
18729TIP3   OH277677   1.166   6.055   5.141 -0.4180 -0.3750 -0.4827
18729TIP3    H177678   1.142   6.146   5.126  0.0449 -0.2894 -0.7248
18729TIP3    H277679   1.091   6.017   5.187 -1.2869 -0.2782 -1.7938
18730TIP3   OH277680   5.225   4.976  13.890  0.3532  0.1120  0.0819
18730TIP3    H177681   5.155   4.968  13.825  1.4854 -1.2973 -0.9936
18730TIP3    H277682   5.292   5.028  13.846  1.0809 -0.7540  0.1542
18731TIP3   OH277683   0.048   2.060   4.080  0.3598  0.0122  0.2595
18731TIP3    H177684   0.120   2.035   4.138  0.5965  1.5068  0.6299
18731TIP3    H277685  -0.021   2.090   4.140 -1.3743 -3.3263  0.0306
18732TIP3   OH277686   5.125   6.711   5.554 -0.3116 -0.3468  0.0328
18732TIP3    H177687   5.203   6.765   5.568 -1.0718  1.1279 -1.2241
18732TIP3    H277688   5.115   6.708   5.459 -2.0144 -0.1599  0.1975
18733TIP3   OH277689   0.316   4.642   5.729 -0.2526 -0.3643  0.1207
18733TIP3    H177690   0.323   4.726   5.684 -1.4091 -0.2871  0.0738
18733TIP3    H277691   0.400   4.632   5.774  0.0449  0.6211 -0.2043
18734TIP3   OH277692   6.705   3.095   4.111 -0.5802  0.0224 -0.2896
18734TIP3    H177693   6.748   3.130   4.189  0.7550 -3.0541  0.4152
18734TIP3    H277694   6.711   3.166   4.047  0.1475  1.8422  1.7231
18735TIP3   OH277695   5.793   0.953  10.572 -0.0100 -0.6185 -0.9663
18735TIP3    H177696   5.706   0.960  10.613  0.4422 -1.0326  0.0952
18735TIP3    H277697   5.783   0.995  10.487 -0.6611  1.3561  0.0487
18736TIP3   OH277698   5.515   2.910   5.870 -0.3800  0.1213  0.0406
18736TIP3    H177699   5.489   3.001   5.886  1.4462  0.8654 -1.1313
18736TIP3    H277700   5.534   2.906   5.776 -1.5513 -1.7685 -0.1461
18737TIP3   OH277701   5.137   0.268  12.280 -0.0782 -0.4265  0.0215
18737TIP3    H177702   5.153   0.238  12.191  1.3382  1.6891 -0.4674
18737TIP3    H277703   5.220   0.257  12.325 -0.2623  0.2613  0.5495
18738TIP3   OH277704   6.098   3.084   2.058 -0.1583 -0.2078  0.2672
18738TIP3    H177705   6.138   3.160   2.016 -1.3718  0.6630  0.6568
18738TIP3    H277706   6.006   3.088   2.032 -0.3653 -1.1977  0.8070
18739TIP3   OH277707   4.701   4.299   0.062 -0.2546 -0.1976  0.9127
18739TIP3    H177708   4.786   4.299   0.018 -0.0101 -3.5966  1.2252
18739TIP3    H277709   4.655   4.374   0.025  1.8127 -0.0029 -1.4143
18740TIP3   OH277710   5.575   4.202   5.668  0.2345 -0.2857 -0.0852
18740TIP3    H177711   5.660   4.229   5.633  0.7077 -0.2315  1.0802
18740TIP3    H277712   5.541   4.142   5.603  0.3847  1.0293 -1.4102
18741TIP3   OH277713   5.444   6.715   3.469 -0.4129 -0.6049  0.3171
18741TIP3    H177714   5.458   6.809   3.485  0.0997 -0.7395  0.6414
18741TIP3    H277715   5.514   6.690   3.409 -1.3301 -0.4852 -0.8421
18742TIP3   OH277716   2.714   3.646   3.471  0.3058 -0.2976 -0.2214
18742TIP3    H177717   2.806   3.643   3.448  0.1184 -0.7138 -0.9423
18742TIP3    H277718   2.696   3.738   3.490  0.4731  0.0624 -1.7421
18743TIP3   OH277719   0.092   5.834   3.421  0.5332  0.0842 -0.5765
18743TIP3    H177720   0.131   5.803   3.503  1.3918  0.4199 -0.8583
18743TIP3    H277721   0.123   5.924   3.412  1.5305 -0.3823 -1.9497
18744TIP3   OH277722   0.119   2.964  12.784  0.2408  0.0977  0.4703
18744TIP3    H177723   0.174   3.038  12.756  0.3936 -0.5128 -0.8865
18744TIP3    H277724   0.181   2.899  12.815  0.2600 -0.3248 -0.4271
18745TIP3   OH277725   4.557   2.899  15.667  0.2216 -0.2932  0.1130
18745TIP3    H177726   4.642   2.858  15.649  0.5371  1.0279 -1.4758
18745TIP3    H277727   4.493   2.833  15.638  0.7136 -0.3723 -0.8064
18746TIP3   OH277728   0.857   2.279   0.777  0.3737  0.3551 -0.1946
18746TIP3    H177729   0.819   2.359   0.813 -0.3323 -0.2539  0.4177
18746TIP3    H277730   0.934   2.262   0.832 -0.0618  0.0494  0.3265
18747TIP3   OH277731   1.853   2.015   5.348 -0.2873 -0.2128  0.2334
18747TIP3    H177732   1.946   1.996   5.336 -1.4428 -3.9784 -4.0384
18747TIP3    H277733   1.818   1.939   5.394 -1.4913  0.7515  0.9552
18748TIP3   OH277734   3.932   3.510  15.440  0.0958 -0.6971 -0.6640
18748TIP3    H177735   3.858   3.524  15.499 -0.1755  2.3919 -1.6443
18748TIP3    H277736   4.001   3.569  15.473  0.3737  0.1157 -2.6021
18749TIP3   OH277737   5.304   0.277   5.802  0.5507  0.4060 -0.6275
18749TIP3    H177738   5.375   0.339   5.820 -1.2077  2.2207  0.3116
18749TIP3    H277739   5.231   0.333   5.775 -1.6882 -1.0607  2.1523
18750TIP3   OH277740   0.147   0.903   6.384  0.0724 -0.0481 -0.3851
18750TIP3    H177741   0.185   0.822   6.416 -1.3222 -0.3252  0.5904
18750TIP3    H277742   0.171   0.969   6.449 -0.9302 -0.1789  0.1166
18751TIP3   OH277743   6.037   2.134   4.019 -0.1509  0.0188  0.2658
18751TIP3    H177744   6.011   2.130   3.927  1.8001 -0.3247 -0.2953
18751TIP3    H277745   5.985   2.066   4.061  1.0343 -1.8273 -1.1438
18752TIP3   OH277746   2.434   5.032   0.706  0.4642  0.2292  0.1030
18752TIP3    H177747   2.347   5.064   0.727  0.7554  0.2710  1.2901
18752TIP3    H277748   2.483   5.110   0.680 -0.1455  0.0524 -1.6328
18753TIP3   OH277749   3.771   2.996   3.691 -0.3254 -0.0017  0.5096
18753TIP3    H177750   3.849   3.020   3.641 -1.1479  2.7899  0.5045
18753TIP3    H277751   3.805   2.938   3.760  1.3032 -1.1230 -1.1839
18754TIP3   OH277752   0.269   2.478   3.464 -0.0365 -0.5952 -0.3172
18754TIP3    H177753   0.233   2.562   3.493 -0.2337 -0.6607 -0.3711
18754TIP3    H277754   0.304   2.438   3.543  0.6247 -0.1794 -0.4053
18755TIP3   OH277755   4.114   5.601  12.332 -0.4472 -0.1833 -0.0788
18755TIP3    H177756   4.134   5.685  12.292  0.0021  0.5537  1.6254
18755TIP3    H277757   4.192   5.581  12.385 -0.5308 -1.6898 -0.4941
18756TIP3   OH277758   0.344   3.671  16.228 -0.2948  0.4618 -0.1234
18756TIP3    H177759   0.363   3.756  16.269  1.4159  0.0151  0.0575
18756TIP3    H277760   0.287   3.692  16.155  0.9956  1.9151 -0.7501
18757TIP3   OH277761   0.099   2.876  12.427 -1.1957  0.6562 -0.1688
18757TIP3    H177762   0.019   2.823  12.427 -1.8963  1.6801  0.6400
18757TIP3    H277763   0.069   2.964  12.402  0.1773  0.3787 -3.0359
18758TIP3   OH277764   6.714   3.546   0.150  0.0185  0.9130 -0.0416
18758TIP3    H177765   6.738   3.569   0.240  0.0934 -1.7943  0.6842
18758TIP3    H277766   6.796   3.516   0.110  0.0397  2.3669 -1.1084
18759TIP3   OH277767   1.907   1.789   5.815  0.2773 -0.1558  0.5482
18759TIP3    H177768   1.844   1.846   5.858 -1.2054 -2.6066  1.7402
18759TIP3    H277769   1.930   1.835   5.734 -3.3503  0.6097 -0.1392
18760TIP3   OH277770   0.223   5.632   3.613 -0.0599 -0.4391 -0.0832
18760TIP3    H177771   0.199   5.539   3.611  1.3458 -0.8100 -0.6862
18760TIP3    H277772   0.314   5.633   3.584  0.1699  1.0606  0.6749
18761TIP3   OH277773   4.111   5.432   4.387 -0.6392  0.3844 -0.3856
18761TIP3    H177774   4.109   5.364   4.319 -0.0994  0.6686 -0.6914
18761TIP3    H277775   4.050   5.498   4.357 -1.0988  0.0757 -0.1316
18762TIP3   OH277776   4.976   3.565   1.894 -0.1738  0.2290 -0.4959
18762TIP3    H177777   4.985   3.495   1.830  0.9276  1.9734 -2.2920
18762TIP3    H277778   5.062   3.606   1.897 -1.1027  2.2280 -0.3190
18763TIP3   OH277779   2.897   0.530  13.353  0.0725 -0.6661  0.0672
18763TIP3    H177780   2.823   0.478  13.384  1.9594 -3.5792 -0.0974
18763TIP3    H277781   2.917   0.590  13.426 -2.1251 -0.1327  0.2635
18764TIP3   OH277782   0.466   6.044   1.862 -0.2062  0.1255 -0.6527
18764TIP3    H177783   0.515   5.997   1.796 -2.1775 -0.8349 -1.4731
18764TIP3    H277784   0.517   6.034   1.943  0.3714 -1.7383 -1.2450
18765TIP3   OH277785   4.552   1.240  17.087  0.0742 -0.5414 -0.3161
18765TIP3    H177786   4.565   1.217  17.179 -0.7536  0.2178 -0.0036
18765TIP3    H277787   4.633   1.283  17.062  0.1971 -0.4955  0.1453
18766TIP3   OH277788   3.811   4.090  16.619  0.3107  0.3876 -0.2994
18766TIP3    H177789   3.804   4.013  16.561  1.1514  1.9534 -2.5273
18766TIP3    H277790   3.904   4.100  16.635  0.0420 -0.4316  1.9405
18767TIP3   OH277791   2.348   2.951   2.917 -0.0463  0.0761  0.4435
18767TIP3    H177792   2.385   2.884   2.859 -0.5217  1.2199 -1.2538
18767TIP3    H277793   2.265   2.915   2.947  0.3055 -0.6243  0.5631
18768TIP3   OH277794   3.994   1.887   1.486 -0.2442  0.6052 -0.3909
18768TIP3    H177795   4.009   1.893   1.392 -0.1774 -1.2126 -0.5169
18768TIP3    H277796   4.073   1.845   1.520  0.2391  2.3264  0.6466
18769TIP3   OH277797   6.526   0.990  12.210  0.3502 -0.2145 -0.3255
18769TIP3    H177798   6.560   1.004  12.298  0.2918 -0.2492 -0.2979
18769TIP3    H277799   6.482   1.072  12.188  0.1770 -0.2829 -0.2365
18770TIP3   OH277800   3.566   6.252  10.336  0.1191 -0.0868 -0.0908
18770TIP3    H177801   3.521   6.234  10.418  0.8805 -0.5690  0.2306
18770TIP3    H277802   3.549   6.175  10.281 -0.0566  0.0534 -0.2310
18771TIP3   OH277803   4.596   4.923  16.910  0.5609  0.4863  0.1326
18771TIP3    H177804   4.545   4.996  16.874  0.4612  0.4834  0.2694
18771TIP3    H277805   4.678   4.963  16.938  1.2735  0.2257 -1.5206
18772TIP3   OH277806   6.586   6.605  15.592 -0.1609  0.2243 -0.6341
18772TIP3    H177807   6.510   6.572  15.641  0.3735 -1.0526 -0.6416
18772TIP3    H277808   6.608   6.533  15.532  0.2821  1.0816 -1.5035
18773TIP3   OH277809   2.806   5.912   1.810  0.4148  0.2138  0.4060
18773TIP3    H177810   2.812   5.993   1.759 -0.7076  1.4930  2.2619
18773TIP3    H277811   2.853   5.930   1.891 -1.9818 -0.0720  1.9296
18774TIP3   OH277812   6.379   1.853   1.760 -0.7472  0.1721 -0.5929
18774TIP3    H177813   6.435   1.870   1.685 -1.8758  0.8782 -1.2853
18774TIP3    H277814   6.375   1.757   1.766 -0.1940  0.1173 -1.0606
18775TIP3   OH277815   6.023   1.660   0.875  0.2221  0.2819  0.3443
18775TIP3    H177816   6.023   1.694   0.964  0.7464  1.5508 -0.1296
18775TIP3    H277817   6.051   1.734   0.821  2.2001 -1.1193 -0.6248
18776TIP3   OH277818   4.327   2.948  16.528  0.3597  0.1626 -1.0820
18776TIP3    H177819   4.421   2.952  16.511  0.3060  0.3196 -1.3285
18776TIP3    H277820   4.299   3.039  16.534  0.7598  0.1668  1.8784
18777TIP3   OH277821   0.517   5.801  16.321 -0.6993  1.0369  0.3425
18777TIP3    H177822   0.594   5.748  16.343  0.0470  1.0938 -2.0147
18777TIP3    H277823   0.538   5.888  16.355  0.1476  0.9782 -0.0154
18778TIP3   OH277824   4.862   5.884  11.183  0.4140 -0.2372 -0.0253
18778TIP3    H177825   4.938   5.941  11.195  1.0319 -1.0971  0.1267
18778TIP3    H277826   4.861   5.864  11.089 -0.0259  0.3301 -0.1428
18779TIP3   OH277827   1.309   3.987   2.846  0.2459  0.0901 -0.4796
18779TIP3    H177828   1.341   4.014   2.760 -1.7416  0.4445 -1.1313
18779TIP3    H277829   1.295   4.070   2.893 -0.8423 -0.0142 -0.6211
18780TIP3   OH277830   4.527   2.307  13.750 -0.1903 -0.0307  0.3185
18780TIP3    H177831   4.473   2.278  13.824 -2.0220  1.2488 -0.4808
18780TIP3    H277832   4.519   2.237  13.686  0.2287 -0.4865  0.7651
18781TIP3   OH277833   1.301   6.062   3.628 -0.0123  0.1650  0.1829
18781TIP3    H177834   1.336   5.995   3.686  0.4962 -0.7622 -1.1572
18781TIP3    H277835   1.377   6.091   3.577 -0.6718  0.0231 -0.9063
18782TIP3   OH277836   2.575   0.322  17.180  0.1305  0.0838  0.0583
18782TIP3    H177837   2.613   0.356  17.261  1.1035 -0.2716 -0.2403
18782TIP3    H277838   2.631   0.248  17.156  0.6419  0.9653 -1.6134
18783TIP3   OH277839   2.524   2.206  14.447 -0.0231 -0.1451  0.0323
18783TIP3    H177840   2.441   2.221  14.491 -0.5482  0.0272 -0.9859
18783TIP3    H277841   2.533   2.111  14.444  0.2620 -0.1472  0.9518
18784TIP3   OH277842   4.534   5.595   4.111 -0.4409  0.0387  0.8574
18784TIP3    H177843   4.609   5.547   4.075  0.6032  2.2921 -0.0667
18784TIP3    H277844   4.467   5.590   4.043  0.4170  1.6216 -0.1451
18785TIP3   OH277845   6.391   0.253  16.530 -0.5671  0.2308  0.5594
18785TIP3    H177846   6.459   0.321  16.539 -2.4746  2.2667  0.1292
18785TIP3    H277847   6.351   0.249  16.617  0.9811 -1.9967  1.2173
18786TIP3   OH277848   6.744   4.121   3.882  0.5157 -0.0810  0.2323
18786TIP3    H177849   6.822   4.130   3.937  0.3716  1.0279  0.2752
18786TIP3    H277850   6.767   4.166   3.801 -0.1917  0.5387  0.3676
18787TIP3   OH277851   2.474   5.800  11.159  0.4045  0.0693  0.0128
18787TIP3    H177852   2.389   5.826  11.123 -0.3947 -1.9441  0.3740
18787TIP3    H277853   2.528   5.783  11.082  0.5685  1.5942 -0.2202
18788TIP3   OH277854   2.820   4.745  13.122  0.6223  0.5004 -0.6358
18788TIP3    H177855   2.743   4.764  13.175  0.6558  0.6399 -0.6370
18788TIP3    H277856   2.877   4.695  13.181  0.2708 -0.1268 -0.8270
18789TIP3   OH277857   4.899   2.053   2.086 -0.2329 -0.2767  0.2611
18789TIP3    H177858   4.807   2.044   2.059  0.9111 -3.1834 -2.9539
18789TIP3    H277859   4.942   2.095   2.012  1.2400  0.1146  1.3306
18790TIP3   OH277860   4.212   5.580   5.370 -0.4093 -0.2094  0.3324
18790TIP3    H177861   4.292   5.532   5.352  0.5212  1.2777  0.3839
18790TIP3    H277862   4.240   5.652   5.427 -1.1880  2.2241 -2.2644
18791TIP3   OH277863   0.562   5.798  14.514 -0.0769  0.4618  0.3865
18791TIP3    H177864   0.478   5.842  14.499 -0.0846  0.5227  0.5990
18791TIP3    H277865   0.625   5.847  14.461 -0.4649 -0.6132 -1.0989
18792TIP3   OH277866   5.892   3.572   4.348 -0.2675 -0.7138  0.5517
18792TIP3    H177867   5.836   3.510   4.395  1.4921 -1.3085  1.8979
18792TIP3    H277868   5.874   3.657   4.389 -2.8718 -0.2034 -1.4652
18793TIP3   OH277869   1.247   3.509  17.099 -0.3562 -0.1583  0.1141
18793TIP3    H177870   1.343   3.509  17.101 -0.3411  0.3584 -0.5490
18793TIP3    H277871   1.222   3.432  17.149  0.4282 -0.8457 -0.5477
18794TIP3   OH277872   1.570   3.984   1.271 -0.2813 -0.3359  0.5526
18794TIP3    H177873   1.559   4.015   1.361 -1.3404 -0.1800  0.3806
18794TIP3    H277874   1.579   4.065   1.220  0.1848 -0.4202  0.4984
18795TIP3   OH277875   2.609   1.074   4.784 -0.8189 -0.4866  0.4142
18795TIP3    H177876   2.569   1.133   4.720 -0.2246 -1.0739 -0.5071
18795TIP3    H277877   2.590   0.986   4.750 -1.5467 -0.8255  1.6808
18796TIP3   OH277878   4.340   4.824  10.866 -0.1285  0.0139  0.1999
18796TIP3    H177879   4.257   4.844  10.822  0.4713  0.8154 -0.5894
18796TIP3    H277880   4.407   4.852  10.803  0.7646 -3.1684 -0.3529
18797TIP3   OH277881   4.667   6.409   2.983 -0.0407 -0.9115 -0.3181
18797TIP3    H177882   4.747   6.372   3.021 -0.8206 -3.2646 -0.9293
18797TIP3    H277883   4.615   6.436   3.059  0.8081 -0.4571  0.1106
18798TIP3   OH277884   6.106   4.610   4.023 -0.3606 -0.4375 -0.3997
18798TIP3    H177885   6.038   4.582   4.085 -1.7316  1.6057 -0.9188
18798TIP3    H277886   6.188   4.580   4.062 -1.5395 -2.8963  0.2876
18799TIP3   OH277887   6.385   1.569   1.861  1.0032 -0.2598 -0.5918
18799TIP3    H177888   6.381   1.506   1.789  0.4301 -0.1013 -0.6977
18799TIP3    H277889   6.475   1.601   1.859  1.4242 -1.3954 -0.2610
18800TIP3   OH277890   2.939   3.267   0.829  0.0004 -0.2651  0.3980
18800TIP3    H177891   3.003   3.295   0.895  1.9104 -0.6670 -1.2463
18800TIP3    H277892   2.885   3.345   0.815  2.1010  1.1141 -0.4284
18801TIP3   OH277893   2.969   4.432   2.335  0.3138 -0.6587 -0.2431
18801TIP3    H177894   2.961   4.384   2.417 -0.6977  2.7755  1.7639
18801TIP3    H277895   2.878   4.444   2.306  0.5403  0.1751 -0.6184
18802TIP3   OH277896   2.904   5.239   1.923 -0.5468 -0.4023  0.2992
18802TIP3    H177897   2.937   5.226   1.834 -0.8620 -2.3470  0.4484
18802TIP3    H277898   2.889   5.333   1.929  0.6236 -0.0888 -1.2981
18803TIP3   OH277899   3.594   0.166  12.583 -0.0203 -0.4300 -0.2615
18803TIP3    H177900   3.502   0.191  12.579  0.0905  0.0585  0.2447
18803TIP3    H277901   3.605   0.130  12.672  0.5385  0.5423  0.0665
18804TIP3   OH277902   3.066   5.908  11.564  0.1532 -0.1707  0.1073
18804TIP3    H177903   3.122   5.849  11.514 -1.2119 -0.6864 -0.8246
18804TIP3    H277904   3.017   5.851  11.622  0.4020  0.2615  0.7550
18805TIP3   OH277905   0.164   4.237  14.984  0.1824  0.4377  0.0473
18805TIP3    H177906   0.238   4.259  15.040  1.1491 -2.2476 -0.1070
18805TIP3    H277907   0.203   4.217  14.899 -0.7755 -0.4280 -0.1934
18806TIP3   OH277908   3.941   1.787   3.963  0.0544  0.1857 -0.2126
18806TIP3    H177909   3.891   1.722   4.012 -0.0293  1.0346  0.8398
18806TIP3    H277910   4.031   1.778   3.995  0.9845 -2.5797 -3.3898
18807TIP3   OH277911   5.691   1.232  13.532  0.4199 -0.0603 -0.4993
18807TIP3    H177912   5.642   1.166  13.579  2.0901 -0.7116  0.3655
18807TIP3    H277913   5.635   1.255  13.457 -1.0159 -1.0173  0.2620
18808TIP3   OH277914   2.233   0.649  16.559 -0.7328 -0.3819 -0.2519
18808TIP3    H177915   2.280   0.673  16.639  0.1569 -0.5099 -0.7367
18808TIP3    H277916   2.215   0.556  16.569  1.8325 -1.0415 -1.4349
18809TIP3   OH277917   0.374   1.471   1.147 -0.1744 -0.0049  0.2592
18809TIP3    H177918   0.423   1.477   1.229 -1.4091  0.4501  0.9713
18809TIP3    H277919   0.427   1.520   1.084  1.4340 -1.4558  0.4515
18810TIP3   OH277920   0.879   6.573  15.722 -0.3078  0.1746  0.1253
18810TIP3    H177921   0.899   6.529  15.639 -0.0840  0.9635 -0.2488
18810TIP3    H277922   0.964   6.583  15.765 -0.3997 -0.0543  0.3661
18811TIP3   OH277923   5.470   4.805   3.797 -0.5808 -0.1879  0.0676
18811TIP3    H177924   5.435   4.721   3.768 -1.0993 -0.1147  0.4704
18811TIP3    H277925   5.393   4.861   3.806 -0.1375  0.6556 -1.2509
18812TIP3   OH277926   1.982   0.518   2.970  0.2781 -0.5732  0.1304
18812TIP3    H177927   1.967   0.438   3.021  1.6764 -0.3619  0.8970
18812TIP3    H277928   1.990   0.487   2.880  2.7485 -1.5532  0.6472
18813TIP3   OH277929   2.970   1.447   0.727 -0.5126  0.2607 -0.0208
18813TIP3    H177930   2.888   1.434   0.775 -0.2321 -0.1698  0.3447
18813TIP3    H277931   2.944   1.492   0.647 -1.1164  0.0627  0.0623
18814TIP3   OH277932   0.266   3.519   2.988 -0.3928 -0.0859 -0.8158
18814TIP3    H177933   0.236   3.439   2.944  0.8256 -0.9372 -0.1151
18814TIP3    H277934   0.340   3.549   2.936  0.0543 -0.2107 -0.2496
18815TIP3   OH277935   5.584   2.438  12.426 -0.3065 -0.1365  0.0458
18815TIP3    H177936   5.662   2.390  12.454  0.1125  1.2107  1.2373
18815TIP3    H277937   5.556   2.486  12.504 -3.1598 -1.6550  0.0454
18816TIP3   OH277938   1.196   5.842   0.314  0.2668  0.4420 -0.0297
18816TIP3    H177939   1.122   5.851   0.374  0.8920 -2.7472  1.3393
18816TIP3    H277940   1.273   5.840   0.371  1.2154  1.4010 -1.2612
18817TIP3   OH277941   6.605   1.608  13.315 -0.3478 -0.0115  0.1601
18817TIP3    H177942   6.684   1.621  13.263 -1.6333  0.3777 -1.7455
18817TIP3    H277943   6.601   1.513  13.329  1.0797  0.0908  1.2819
18818TIP3   OH277944   2.484   3.924  13.562  0.1379  0.0987 -0.1864
18818TIP3    H177945   2.579   3.931  13.550  0.0338  0.5200 -0.8108
18818TIP3    H277946   2.469   3.832  13.583  0.7814  0.2226  0.8355
18819TIP3   OH277947   1.013   2.564   3.354  0.4738 -0.0588  0.3894
18819TIP3    H177948   1.018   2.482   3.305 -2.4151  0.0552 -0.1997
18819TIP3    H277949   1.021   2.632   3.287 -0.4937  0.1146  0.4480
18820TIP3   OH277950   3.974   3.016  10.512  0.1003 -0.2368 -0.3471
18820TIP3    H177951   3.916   3.052  10.580  1.3506 -0.3171  0.7767
18820TIP3    H277952   3.936   3.047  10.430 -1.0790  0.3947  0.4202
18821TIP3   OH277953   0.976   4.588   1.276  0.3863 -0.5483  0.4950
18821TIP3    H177954   0.951   4.660   1.219  0.6058 -1.1050 -0.3093
18821TIP3    H277955   1.054   4.551   1.235 -0.8115 -2.4252 -0.1043
18822TIP3   OH277956   5.155   1.649   3.643 -0.1247 -0.4170  0.1427
18822TIP3    H177957   5.231   1.698   3.676 -0.6750 -0.7798  1.9899
18822TIP3    H277958   5.107   1.623   3.721 -2.2010 -0.1682 -1.0008
18823TIP3   OH277959   2.851   3.422   4.209 -0.0274 -0.1201  0.5944
18823TIP3    H177960   2.836   3.512   4.240 -1.1492 -0.3769  0.8239
18823TIP3    H277961   2.946   3.416   4.199  0.3121  0.2256  3.1932
18824TIP3   OH277962   1.772   2.220  11.580  0.4931 -0.4031 -0.1496
18824TIP3    H177963   1.733   2.270  11.508  1.9124  0.3059 -0.4282
18824TIP3    H277964   1.789   2.284  11.648  0.9870 -0.7462  0.0505
18825TIP3   OH277965   6.297   0.760  14.633  0.1114  0.6075 -0.6228
18825TIP3    H177966   6.284   0.776  14.539 -1.1788 -2.8752 -1.1224
18825TIP3    H277967   6.210   0.770  14.671  0.7569  2.7052  0.3632
18826TIP3   OH277968   4.826   4.715   4.857  0.2762 -0.6948 -0.9653
18826TIP3    H177969   4.846   4.800   4.816 -0.7656 -1.0209 -2.1843
18826TIP3    H277970   4.734   4.722   4.882  0.8754 -0.5347  1.2933
18827TIP3   OH277971   1.381   4.455   5.959  0.6347 -0.1746 -0.1626
18827TIP3    H177972   1.352   4.436   6.048 -1.6713 -0.4958 -0.9355
18827TIP3    H277973   1.359   4.375   5.910  2.7688 -0.3681 -0.8196
18828TIP3   OH277974   6.449   4.978   2.953 -0.1442 -0.3565  0.6427
18828TIP3    H177975   6.439   5.034   3.030  0.0169 -0.2782  0.6067
18828TIP3    H277976   6.464   5.038   2.880  1.2149 -0.4746  0.7956
18829TIP3   OH277977   4.852   6.123  12.479  0.0541 -0.5958  0.0153
18829TIP3    H177978   4.830   6.112  12.386  1.0940  0.4993 -0.3692
18829TIP3    H277979   4.936   6.079  12.489 -0.1699 -0.9164  0.4964
18830TIP3   OH277980   3.454   0.137  13.384 -0.2028  0.4536  0.1179
18830TIP3    H177981   3.479   0.227  13.405 -1.2582  0.6441  0.5959
18830TIP3    H277982   3.461   0.090  13.467 -0.1956  0.2299 -0.0099
18831TIP3   OH277983   2.053   1.458  12.114 -0.2517 -0.0062  0.3384
18831TIP3    H177984   1.960   1.450  12.094 -0.1854  0.5570 -0.1929
18831TIP3    H277985   2.085   1.368  12.113 -0.6873 -0.1605  0.0298
18832TIP3   OH277986   2.261   5.762   0.347 -0.1598  0.5688  0.0438
18832TIP3    H177987   2.195   5.693   0.342  0.0551  0.2843  1.0821
18832TIP3    H277988   2.249   5.812   0.266 -0.1909 -0.7886 -0.8090
18833TIP3   OH277989   6.644   3.095   5.507 -0.0539  0.0120  0.3956
18833TIP3    H177990   6.629   3.039   5.430  2.0097  0.1501 -0.1198
18833TIP3    H277991   6.583   3.062   5.572  1.5126 -3.2674  0.2944
18834TIP3   OH277992   3.452   1.140   4.148 -0.2410  0.4114 -0.4956
18834TIP3    H177993   3.489   1.139   4.236 -1.8050 -2.4856  0.1746
18834TIP3    H277994   3.492   1.064   4.104 -0.7026  0.8895 -1.7633
18835TIP3   OH277995   3.258   5.370  14.419 -0.2792  0.0106  0.1070
18835TIP3    H177996   3.183   5.407  14.465 -0.7688 -2.3991  1.3233
18835TIP3    H277997   3.247   5.399  14.328 -0.1399  3.5008  1.1185
18836TIP3   OH277998   6.157   3.848   0.286 -0.2237 -0.0104 -0.7466
18836TIP3    H177999   6.138   3.782   0.352 -0.1458  0.4518 -0.2542
18836TIP3    H278000   6.099   3.827   0.213 -1.4528  0.4029  0.0930
18837TIP3   OH278001   3.465   0.565   5.930 -0.4511 -0.2133 -0.1763
18837TIP3    H178002   3.421   0.648   5.912 -1.0436 -0.1616  1.4687
18837TIP3    H278003   3.502   0.575   6.018  0.4876 -1.2670 -0.4260
18838TIP3   OH278004   6.493   1.396   3.094 -0.2916  0.2185  0.3294
18838TIP3    H178005   6.487   1.491   3.084  0.2206  0.1537 -0.6836
18838TIP3    H278006   6.587   1.379   3.094 -0.3679 -0.1930  1.4384
18839TIP3   OH278007   1.672   5.514   4.132  0.1579 -0.0571  0.1424
18839TIP3    H178008   1.611   5.486   4.064  1.4038 -2.9222  0.0989
18839TIP3    H278009   1.621   5.511   4.213 -0.6233  0.8019 -0.3108
18840TIP3   OH278010   4.394   1.228  12.323  0.0581 -0.0894  0.1972
18840TIP3    H178011   4.480   1.269  12.335  0.0885 -0.2793  0.6535
18840TIP3    H278012   4.384   1.219  12.228  0.2737  0.4976  0.1192
18841TIP3   OH278013   1.273   3.002   0.937  0.1069 -0.0701 -0.7351
18841TIP3    H178014   1.219   3.003   0.858  1.5984 -0.5400 -1.7852
18841TIP3    H278015   1.223   2.948   0.999 -1.4806  1.0073 -1.0368
18842TIP3   OH278016   0.570   1.999  17.108  0.5139 -0.1089  0.2758
18842TIP3    H178017   0.556   2.077  17.055  0.8787  1.5779  2.5646
18842TIP3    H278018   0.630   1.944  17.056  0.9338  1.5274 -0.9847
18843TIP3   OH278019   1.505   6.806   1.402 -0.7256 -0.1796 -0.5687
18843TIP3    H178020   1.548   6.879   1.359 -0.1675  0.4253  0.9710
18843TIP3    H278021   1.426   6.791   1.351 -1.0949  1.8211 -0.6064
18844TIP3   OH278022   5.049   3.999  12.596 -0.1841 -0.7328  0.6189
18844TIP3    H178023   5.076   4.066  12.659 -0.3725 -2.1044  2.2096
18844TIP3    H278024   4.954   3.993  12.607 -0.4352  0.1987 -1.0037
18845TIP3   OH278025   6.004   5.104  14.322  1.4225 -0.4402 -0.1831
18845TIP3    H178026   6.062   5.173  14.289  0.3608  0.4615 -0.2037
18845TIP3    H278027   5.942   5.151  14.378 -0.6329 -1.0692 -1.8931
18846TIP3   OH278028   3.590   0.963  15.034  0.2933  0.5831 -0.2202
18846TIP3    H178029   3.566   1.046  15.075  2.4142  1.0214  0.2064
18846TIP3    H278030   3.631   0.913  15.104  1.6327  0.3250 -1.1691
18847TIP3   OH278031   3.423   6.738   4.252 -0.2594  0.1817 -0.6397
18847TIP3    H178032   3.393   6.818   4.295  1.5696 -0.3624  1.7690
18847TIP3    H278033   3.367   6.669   4.289  1.0294 -0.2258  0.6078
18848TIP3   OH278034   0.874   1.678  10.849  0.1335 -0.1466 -0.0107
18848TIP3    H178035   0.828   1.758  10.824  1.8031  0.8115 -0.1397
18848TIP3    H278036   0.813   1.607  10.828 -0.7173  0.9929 -1.4840
18849TIP3   OH278037   3.881   4.420  11.656 -0.5548  0.3992 -0.6600
18849TIP3    H178038   3.828   4.482  11.707 -0.4554  1.6283 -2.0213
18849TIP3    H278039   3.923   4.366  11.722  0.1128  2.4214  0.6299
18850TIP3   OH278040   1.548   1.737  16.766  0.2046  0.2947 -0.2424
18850TIP3    H178041   1.609   1.731  16.692 -1.0193 -2.8572 -1.0870
18850TIP3    H278042   1.484   1.669  16.749 -0.1487 -0.4797  3.7521
18851TIP3   OH278043   3.791   6.390   3.356 -0.1098 -0.0700 -0.2394
18851TIP3    H178044   3.710   6.340   3.364 -0.9806  1.2863 -0.5305
18851TIP3    H278045   3.781   6.440   3.275  1.1043 -0.0363 -0.3834
18852TIP3   OH278046   3.414   3.530  12.265  0.3704  0.2456 -0.3044
18852TIP3    H178047   3.433   3.517  12.357 -0.2364  0.1600 -0.1846
18852TIP3    H278048   3.414   3.625  12.253 -1.3025  0.3240  0.1793
18853TIP3   OH278049   3.164   4.246  13.777 -0.2619  0.1136  0.1338
18853TIP3    H178050   3.183   4.154  13.757 -0.1316 -0.0584  1.0471
18853TIP3    H278051   3.098   4.243  13.847 -1.2909  0.7132 -0.7867
18854TIP3   OH278052   3.605   4.979  15.418  0.1515  0.0195 -0.0719
18854TIP3    H178053   3.571   5.066  15.398 -0.1487 -0.3859 -1.3975
18854TIP3    H278054   3.545   4.919  15.373  1.4499 -0.7777 -0.7692
18855TIP3   OH278055   2.956   5.624   5.009  0.1903 -0.0853  0.3276
18855TIP3    H178056   3.009   5.679   5.067  1.3179  0.0085 -0.7799
18855TIP3    H278057   3.019   5.562   4.971 -0.6789 -0.6389 -0.2130
18856TIP3   OH278058   5.620   5.153   0.906  0.1163 -0.4412  0.1986
18856TIP3    H178059   5.705   5.112   0.921  0.0139 -0.4622  0.7416
18856TIP3    H278060   5.632   5.205   0.826  0.9809  0.4767  0.9032
18857TIP3   OH278061   3.088   4.801  17.102  0.7282  0.1577 -0.5980
18857TIP3    H178062   3.178   4.829  17.117  0.3137  0.8874  0.5409
18857TIP3    H278063   3.036   4.852  17.163 -0.5306  0.1351 -1.6247
18858TIP3   OH278064   1.655   1.314   2.549 -1.0440  0.2784  0.2454
18858TIP3    H178065   1.638   1.290   2.640  0.6954  0.5115  0.6505
18858TIP3    H278066   1.666   1.230   2.504 -0.6332  0.1874  0.5130
18859TIP3   OH278067   6.683   0.949  15.603  0.0959 -0.4373  0.7690
18859TIP3    H178068   6.672   0.980  15.693  0.3582  1.0900  0.2826
18859TIP3    H278069   6.777   0.936  15.594  0.4189  2.3172 -0.2070
18860TIP3   OH278070   2.730   4.033   4.234 -0.1090 -0.0188  0.1194
18860TIP3    H178071   2.668   4.104   4.214  0.1476 -0.0782 -0.9198
18860TIP3    H278072   2.706   3.963   4.173 -0.0205 -0.6330  0.7842
18861TIP3   OH278073   0.205   6.114  16.893 -0.3627 -0.2657 -0.2587
18861TIP3    H178074   0.152   6.153  16.963 -0.1875 -1.1093  0.3605
18861TIP3    H278075   0.252   6.042  16.936  0.5011 -0.1740 -1.0250
18862TIP3   OH278076   3.612   1.128  15.647 -0.4851  0.0301  0.3517
18862TIP3    H178077   3.590   1.035  15.658 -0.5570  0.1226  1.0008
18862TIP3    H278078   3.605   1.165  15.735  0.7505  0.3982  0.3051
18863TIP3   OH278079   4.600   4.904   1.308 -0.2399 -0.2816  0.2078
18863TIP3    H178080   4.541   4.849   1.257 -1.4630 -0.0968  1.3960
18863TIP3    H278081   4.667   4.843   1.339 -1.8743 -1.2577  1.9545
18864TIP3   OH278082   5.730   3.264  11.116  0.3474  0.1205  0.4059
18864TIP3    H178083   5.659   3.203  11.138  1.2494 -1.2777 -0.4790
18864TIP3    H278084   5.753   3.305  11.200 -0.9550 -0.0021  0.8392
18865TIP3   OH278085   6.790   2.217   2.366 -0.1276  0.0572  0.3178
18865TIP3    H178086   6.715   2.166   2.397  0.4830 -1.0343  0.0338
18865TIP3    H278087   6.813   2.273   2.440 -1.6526  0.9099  0.1657
18866TIP3   OH278088   1.680   5.920   3.300 -0.1843  0.0950  0.2256
18866TIP3    H178089   1.652   5.846   3.247  0.6323 -1.2324  1.6178
18866TIP3    H278090   1.610   5.930   3.365 -0.9873  1.4657 -0.8176
18867TIP3   OH278091   2.312   5.478   3.637 -0.1064 -0.2046  0.3076
18867TIP3    H178092   2.389   5.521   3.599  0.3828 -1.3705 -0.0306
18867TIP3    H278093   2.283   5.416   3.570 -0.7053 -0.5317  0.8564
18868TIP3   OH278094   1.036   5.983  16.947  0.3908  0.4495 -0.3537
18868TIP3    H178095   0.958   6.016  16.903 -0.6166 -0.5701  0.6321
18868TIP3    H278096   1.014   5.893  16.971  1.2010  0.7248  1.5069
18869TIP3   OH278097   0.988   3.503  13.217  0.5368  0.4513  0.2289
18869TIP3    H178098   1.061   3.512  13.277 -0.1149 -1.6380  1.3836
18869TIP3    H278099   1.023   3.454  13.143 -0.0701 -2.0037  1.5306
18870TIP3   OH278100   6.646   0.667  13.281 -0.2964 -0.5452 -0.5399
18870TIP3    H178101   6.567   0.644  13.330 -0.9557  0.3234 -1.1906
18870TIP3    H278102   6.626   0.752  13.241  0.8250 -0.4976 -1.0186
18871TIP3   OH278103   4.282   2.948   3.522  0.7727  0.1256 -0.1362
18871TIP3    H178104   4.366   2.981   3.490  1.3202  0.5440  1.6778
18871TIP3    H278105   4.299   2.858   3.549  0.4455 -0.0475 -0.4975
18872TIP3   OH278106   2.069   0.463   2.409 -0.0583 -0.2328 -0.1352
18872TIP3    H178107   2.079   0.383   2.460 -0.7936 -1.5476 -1.9876
18872TIP3    H278108   2.158   0.489   2.385  0.2330 -0.0221  1.1670
18873TIP3   OH278109   1.038   6.219  15.326 -0.2544  0.0224 -0.2293
18873TIP3    H178110   0.988   6.180  15.255 -2.0100  1.3095  0.2792
18873TIP3    H278111   1.111   6.264  15.282 -1.4580  1.0165 -1.2310
18874TIP3   OH278112   5.740   2.428   3.290 -0.5743  0.0170 -0.1035
18874TIP3    H178113   5.658   2.378   3.293 -0.0780 -0.8776 -0.8718
18874TIP3    H278114   5.798   2.374   3.237  0.6028  0.5238  0.6570
18875TIP3   OH278115   3.343   6.536   1.229  0.2919 -0.1629 -0.2380
18875TIP3    H178116   3.313   6.541   1.320  0.4426  0.1428 -0.2056
18875TIP3    H278117   3.276   6.584   1.179  0.4301  0.0319 -0.2364
18876TIP3   OH278118   1.080   1.316  11.037 -0.6231 -0.3869 -0.8258
18876TIP3    H178119   1.103   1.400  10.998 -1.6697  0.4733  0.3369
18876TIP3    H278120   0.988   1.303  11.011  0.1835 -2.2488 -2.8389
18877TIP3   OH278121   3.172   4.970   5.666 -0.1896  0.5277  0.0366
18877TIP3    H178122   3.244   4.986   5.605 -0.3758  1.4838  0.0719
18877TIP3    H278123   3.160   4.875   5.663  0.8802  0.3907 -0.1852
18878TIP3   OH278124   3.629   3.557  13.099 -0.2825 -0.1108 -0.0568
18878TIP3    H178125   3.618   3.524  13.189  1.9871 -1.3161 -0.2075
18878TIP3    H278126   3.548   3.532  13.055 -1.2126  0.0550  1.5120
18879TIP3   OH278127   1.450   3.200  14.996  0.1200 -0.3229  0.8570
18879TIP3    H178128   1.425   3.290  15.016 -1.6043 -0.8498  1.1125
18879TIP3    H278129   1.439   3.153  15.079 -3.2752 -1.6919 -0.3069
18880TIP3   OH278130   0.344   6.766  13.599  0.1185  0.4352 -0.0268
18880TIP3    H178131   0.265   6.819  13.611 -0.7805 -1.0638  0.8272
18880TIP3    H278132   0.412   6.815  13.645  0.0717  2.5714 -2.1842
18881TIP3   OH278133   1.831   5.986  16.172 -0.1876 -0.1809  0.0201
18881TIP3    H178134   1.814   6.019  16.084 -0.3685 -0.6983 -0.1400
18881TIP3    H278135   1.838   5.891  16.161 -1.1303 -0.3368  0.7053
18882TIP3   OH278136   5.746   3.251  11.829 -0.0664 -0.5559  0.1149
18882TIP3    H178137   5.764   3.210  11.744 -1.6967 -2.2669  0.5735
18882TIP3    H278138   5.825   3.234  11.881  0.3030 -0.8649 -0.5341
18883TIP3   OH278139   4.260   1.307   1.293 -0.3660 -0.7069  0.0364
18883TIP3    H178140   4.354   1.319   1.310 -0.0667 -1.2681 -1.1450
18883TIP3    H278141   4.252   1.316   1.199 -1.8424  1.4335  0.3477
18884TIP3   OH278142   1.678   4.153  12.778 -0.3782  0.0729 -0.0943
18884TIP3    H178143   1.768   4.153  12.811 -0.9664  0.8405  1.5446
18884TIP3    H278144   1.665   4.065  12.742  0.9176 -0.1438 -0.0481
18885TIP3   OH278145   4.170   3.155   2.183 -0.6000 -0.1428  0.0712
18885TIP3    H178146   4.120   3.215   2.127  1.2005  1.1338 -0.2131
18885TIP3    H278147   4.136   3.172   2.271  0.3506  1.8533  0.0994
18886TIP3   OH278148   4.869   5.720  14.635 -0.9912 -0.7759 -0.3543
18886TIP3    H178149   4.852   5.805  14.596 -2.5571 -1.1998 -0.6387
18886TIP3    H278150   4.798   5.664  14.604  0.0275 -2.2007 -0.2074
18887TIP3   OH278151   2.095   5.798  13.502 -0.1957  0.6040 -0.3066
18887TIP3    H178152   2.055   5.715  13.477 -1.6646  1.1340  0.2219
18887TIP3    H278153   2.024   5.862  13.496 -0.1012  1.1164  3.0593
18888TIP3   OH278154   6.718   3.782  13.721  0.4702 -0.5100 -0.0956
18888TIP3    H178155   6.783   3.718  13.691  1.1597 -0.4790  1.2718
18888TIP3    H278156   6.694   3.831  13.643  0.3933 -2.0279 -1.0451
18889TIP3   OH278157   2.528   4.385  14.171  0.5172 -0.0953  0.2697
18889TIP3    H178158   2.466   4.335  14.224 -0.2848  0.0830 -0.4950
18889TIP3    H278159   2.498   4.373  14.081  1.5660  0.0282 -0.1033
18890TIP3   OH278160   4.222   0.909  13.798  0.0510  0.1866  0.0646
18890TIP3    H178161   4.252   0.828  13.756  1.4476  0.0571  1.2615
18890TIP3    H278162   4.277   0.977  13.762  0.2031  0.3084  0.5209
18891TIP3   OH278163   0.783   5.789  11.310 -0.1711  0.1373  0.3113
18891TIP3    H178164   0.820   5.707  11.277  1.0533  0.7571  0.1366
18891TIP3    H278165   0.760   5.770  11.401 -0.2158 -0.4977  0.1696
18892TIP3   OH278166   5.005   5.097  12.795  0.2190  0.3214 -0.0802
18892TIP3    H178167   5.021   5.161  12.725 -1.3139 -0.5371 -1.2572
18892TIP3    H278168   4.965   5.148  12.866  0.6290  0.9752 -0.3124
18893TIP3   OH278169   2.539   0.920   2.645 -0.0977  0.2008  0.9126
18893TIP3    H178170   2.542   0.827   2.622 -1.9246  0.2229  0.4744
18893TIP3    H278171   2.509   0.921   2.737 -0.7500  0.3595  0.7050
18894TIP3   OH278172   1.516   6.190   6.850  0.0839  0.1182  0.3516
18894TIP3    H178173   1.512   6.100   6.820  0.1061 -0.0875  0.9625
18894TIP3    H278174   1.540   6.241   6.772  3.4758 -0.7877  0.7666
18895TIP3   OH278175   1.218   1.663   0.591 -0.0516 -0.5341  0.1214
18895TIP3    H178176   1.208   1.730   0.523 -0.8290 -0.8173 -0.0484
18895TIP3    H278177   1.312   1.648   0.596  0.1065  0.3668 -0.0406
18896TIP3   OH278178   1.720   4.190  11.299  0.5133 -0.1733  0.6379
18896TIP3    H178179   1.751   4.102  11.319 -0.9647 -0.6359  0.9065
18896TIP3    H278180   1.629   4.178  11.272 -0.3622  1.5055  2.7603
18897TIP3   OH278181   6.396   6.128   1.879 -0.2995 -0.4527  0.5025
18897TIP3    H178182   6.449   6.052   1.903 -1.4030 -1.3628  0.1288
18897TIP3    H278183   6.419   6.194   1.944  0.4877 -1.1941  0.9950
18898TIP3   OH278184   2.763   0.748   2.485 -0.1463  0.3127  0.4848
18898TIP3    H178185   2.723   0.752   2.572 -0.4436 -1.8056  0.4571
18898TIP3    H278186   2.856   0.765   2.501 -0.3750  1.0563  1.0652
18899TIP3   OH278187   0.578   0.519   5.748  0.1275 -0.1968  0.0918
18899TIP3    H178188   0.603   0.570   5.825  0.2860 -0.8255  0.4595
18899TIP3    H278189   0.507   0.463   5.779  1.9511 -2.3566  0.4888
18900TIP3   OH278190   4.210   6.038  11.246  0.0023  0.3145 -0.9650
18900TIP3    H178191   4.297   5.998  11.239 -0.3628 -0.1239 -4.0716
18900TIP3    H278192   4.164   5.985  11.310  1.9211  0.3455  0.4712
18901TIP3   OH278193   5.489   3.742  11.614 -0.1308  0.1351  0.3317
18901TIP3    H178194   5.532   3.730  11.699  0.2093 -1.9092 -0.1037
18901TIP3    H278195   5.396   3.738  11.633 -0.0330 -2.6032  0.3177
18902TIP3   OH278196   0.136   3.966  12.550  0.0995 -0.5259 -0.3821
18902TIP3    H178197   0.190   3.920  12.487  0.1237 -1.3492  0.2176
18902TIP3    H278198   0.173   4.054  12.556  0.1408 -0.4706 -1.4406
18903TIP3   OH278199   2.309   5.583  16.170  0.0845  0.2449 -1.3448
18903TIP3    H178200   2.330   5.543  16.086 -1.1128  1.6456 -2.3318
18903TIP3    H278201   2.374   5.652  16.181  0.7792 -0.5004 -0.6901
18904TIP3   OH278202   5.832   2.315   3.679 -0.0008 -0.0556  0.1792
18904TIP3    H178203   5.909   2.342   3.729 -0.1346 -2.2948  1.6700
18904TIP3    H278204   5.855   2.229   3.644 -1.8623 -0.8248  0.7748
18905TIP3   OH278205   4.785   5.246   5.361 -0.6519 -0.6786  0.3643
18905TIP3    H178206   4.761   5.211   5.447 -2.8822 -1.0919 -0.4009
18905TIP3    H278207   4.722   5.316   5.345  1.1109  0.8729 -0.0147
18906TIP3   OH278208   4.657   5.204  11.891  0.2784 -0.1343  0.2130
18906TIP3    H178209   4.565   5.207  11.864 -0.5876 -0.1409  2.9594
18906TIP3    H278210   4.706   5.232  11.814 -2.0314 -0.1250 -1.2949
18907TIP3   OH278211   0.417   5.498  17.225 -0.0638 -0.1347 -0.2630
18907TIP3    H178212   0.338   5.445  17.215 -0.5398  0.5266 -0.0743
18907TIP3    H278213   0.485   5.448  17.181 -0.8218 -0.1911 -1.4018
18908TIP3   OH278214   0.263   5.526   2.011 -0.2075 -0.5121 -0.2063
18908TIP3    H178215   0.184   5.521   1.956  0.7762 -1.4630 -1.5649
18908TIP3    H278216   0.262   5.445   2.061 -2.4556  1.4737  3.1315
18909TIP3   OH278217   0.260   0.453  13.045 -0.0180  0.0634 -0.1912
18909TIP3    H178218   0.302   0.368  13.037 -0.9111 -0.5735  1.4940
18909TIP3    H278219   0.332   0.516  13.042  0.5991 -0.7200 -1.9375
18910TIP3   OH278220   1.059   4.984   5.733  0.0668 -0.0903 -0.0291
18910TIP3    H178221   1.065   5.079   5.725  1.5401 -0.1599  0.1167
18910TIP3    H278222   1.016   4.969   5.817 -1.8425  0.4630 -0.8850
18911TIP3   OH278223   1.933   4.238   3.679 -0.4647 -0.4651  0.5408
18911TIP3    H178224   1.853   4.238   3.732 -0.7019 -1.0456  0.1870
18911TIP3    H278225   1.951   4.331   3.663 -1.1272 -0.3325  0.5338
18912TIP3   OH278226   4.240   0.793   3.483  0.5095  0.3366 -0.4383
18912TIP3    H178227   4.156   0.803   3.439 -0.0557  0.3966  0.6300
18912TIP3    H278228   4.235   0.851   3.558  0.8129 -0.9690  0.6149
18913TIP3   OH278229   3.155   2.803  16.894  0.5088  0.6267 -0.4049
18913TIP3    H178230   3.061   2.788  16.905  0.6703 -0.8958 -0.9244
18913TIP3    H278231   3.161   2.853  16.812  0.2229 -0.4468 -1.0960
18914TIP3   OH278232   6.668   1.833  13.695  0.1515  0.0884 -0.0521
18914TIP3    H178233   6.638   1.791  13.775  1.7410 -2.5747 -0.7703
18914TIP3    H278234   6.593   1.829  13.635 -0.5334  0.6586  0.7646
18915TIP3   OH278235   5.464   6.183   4.059 -0.2574 -0.1321  0.1870
18915TIP3    H178236   5.549   6.226   4.053 -0.7753  0.8092 -0.4123
18915TIP3    H278237   5.467   6.135   4.142  1.0883 -0.6084 -0.1333
18916TIP3   OH278238   6.194   0.317   1.449  0.1840  0.3175  0.9045
18916TIP3    H178239   6.226   0.315   1.539  0.5855 -1.1930  0.7423
18916TIP3    H278240   6.250   0.381   1.405  0.6992  0.2495  1.4655
18917TIP3   OH278241   1.400   4.966   0.846  0.5462  0.1861 -0.1130
18917TIP3    H178242   1.417   5.046   0.795  1.7144 -0.8461 -1.3667
18917TIP3    H278243   1.451   4.978   0.926  0.1575  0.9999  0.0270
18918TIP3   OH278244   4.769   3.030   5.987  0.1579 -0.0136  0.7282
18918TIP3    H178245   4.788   3.087   6.062  1.3623 -1.8262  1.8220
18918TIP3    H278246   4.673   3.020   5.989  0.2530 -0.7842  2.5907
18919TIP3   OH278247   3.903   2.305  16.761 -0.1057  0.4019 -0.0472
18919TIP3    H178248   3.948   2.377  16.805 -0.7846  0.7999  0.0019
18919TIP3    H278249   3.811   2.332  16.758 -0.0564  0.4315 -1.8224
18920TIP3   OH278250   2.839   3.570   5.559  0.5374  0.0444 -0.3208
18920TIP3    H178251   2.905   3.503   5.575  1.2068  0.6577 -0.4812
18920TIP3    H278252   2.854   3.598   5.469  1.4196  1.6674  0.3083
18921TIP3   OH278253   2.506   5.124   4.552  0.2264 -0.3544  0.0412
18921TIP3    H178254   2.461   5.053   4.597  1.2610 -1.0750 -0.0332
18921TIP3    H278255   2.594   5.090   4.534  0.3002  0.4418 -1.2309
18922TIP3   OH278256   4.505   4.900  12.875 -0.0636 -0.1053 -0.9674
18922TIP3    H178257   4.411   4.884  12.868 -0.1365  0.0798 -0.4242
18922TIP3    H278258   4.534   4.844  12.947  0.0443  0.6900 -0.3962
18923TIP3   OH278259   3.318   1.376   4.141 -0.1125 -0.3011  0.3405
18923TIP3    H178260   3.328   1.281   4.145 -0.7190 -0.4886 -1.6898
18923TIP3    H278261   3.400   1.410   4.176  0.9507 -1.6086 -0.7931
18924TIP3   OH278262   0.791   3.382  14.603 -0.0525  0.7972 -0.1432
18924TIP3    H178263   0.706   3.387  14.558 -0.4545  0.0211  0.5097
18924TIP3    H278264   0.846   3.445  14.558 -1.3090  2.0916  0.1139
18925TIP3   OH278265   1.637   6.054  14.163  0.1317 -0.4503 -0.0517
18925TIP3    H178266   1.614   5.976  14.113  0.0732 -1.5533  1.6554
18925TIP3    H278267   1.733   6.058  14.158 -0.0536  1.2740 -2.9165
18926TIP3   OH278268   2.129   1.289  11.506  0.2262 -0.0819  0.1209
18926TIP3    H178269   2.163   1.205  11.475 -1.6905 -0.2057 -1.7928
18926TIP3    H278270   2.117   1.341  11.426 -1.9216  0.7218  0.9209
18927TIP3   OH278271   0.428   1.978  10.438 -0.2199  0.0163  0.4109
18927TIP3    H178272   0.490   2.048  10.458  0.1507  0.2716 -1.6228
18927TIP3    H278273   0.483   1.904  10.412 -0.7190 -0.2692  0.1662
18928TIP3   OH278274   6.586   2.563  12.918 -0.7838  0.4946  0.1167
18928TIP3    H178275   6.593   2.470  12.941  0.0042  0.9100  1.5560
18928TIP3    H278276   6.571   2.608  13.001 -2.0103  1.5880 -0.6662
18929TIP3   OH278277   3.216   5.677  10.870  0.4496  0.5255 -0.0642
18929TIP3    H178278   3.238   5.767  10.846 -1.9170  1.1121 -0.1755
18929TIP3    H278279   3.133   5.685  10.916  1.1640 -1.4236  1.5950
18930TIP3   OH278280   0.103   3.402  13.458  0.4250  0.3264 -0.2664
18930TIP3    H178281   0.199   3.405  13.462  0.5831 -2.4184 -0.7225
18930TIP3    H278282   0.083   3.375  13.369 -0.6499 -1.1810  0.3929
18931TIP3   OH278283   6.464   5.485  14.517  0.4132  0.4361 -0.6504
18931TIP3    H178284   6.414   5.493  14.598 -0.6096 -0.6435 -1.1654
18931TIP3    H278285   6.494   5.393  14.517 -0.5686  0.1137 -2.0626
18932TIP3   OH278286   6.540   3.458   1.426 -0.3797  0.1378 -0.0714
18932TIP3    H178287   6.613   3.515   1.449 -0.8374 -0.0492  1.9825
18932TIP3    H278288   6.473   3.516   1.389  0.1829  0.5274 -0.4829
18933TIP3   OH278289   3.683   6.041  10.995  0.1863 -0.1711  0.1583
18933TIP3    H178290   3.597   6.079  11.015  0.7401  0.3388  1.6485
18933TIP3    H278291   3.669   5.991  10.915 -1.6521 -0.6013  0.7233
18934TIP3   OH278292   2.166   0.568  11.425 -0.0588  0.1332  0.5025
18934TIP3    H178293   2.230   0.555  11.495  1.5616  0.4644 -0.8945
18934TIP3    H278294   2.217   0.564  11.344 -1.7429  0.8298 -0.6284
18935TIP3   OH278295   0.820   1.712  13.720 -0.0103  0.2528  0.1752
18935TIP3    H178296   0.865   1.628  13.733  0.4808  0.3393 -0.9487
18935TIP3    H278297   0.743   1.691  13.667  0.7468  0.7019 -1.0970
18936TIP3   OH278298   3.290   4.135  11.532  0.0987  0.2279  0.0457
18936TIP3    H178299   3.198   4.162  11.525  0.5427  1.3304 -1.8538
18936TIP3    H278300   3.312   4.151  11.623 -1.3731  0.7154  0.3360
18937TIP3   OH278301   6.063   2.554   6.230 -0.4840 -0.6199  0.6011
18937TIP3    H178302   5.975   2.532   6.199 -1.2654  0.6662  1.8015
18937TIP3    H278303   6.063   2.650   6.235  1.1934 -0.5717  0.0633
18938TIP3   OH278304   4.229   2.889   6.093  0.0401 -0.3722 -0.5528
18938TIP3    H178305   4.171   2.889   6.169  0.0500  0.3296 -0.5353
18938TIP3    H278306   4.316   2.879   6.130  0.1968  1.6665 -0.3242
18939TIP3   OH278307   4.152   1.967   2.031  0.0115 -0.1931 -0.0584
18939TIP3    H178308   4.238   1.977   1.989  0.1498  0.1633  0.3056
18939TIP3    H278309   4.160   1.887   2.083  0.8567  1.0157  1.7280
18940TIP3   OH278310   3.800   3.411   3.723 -0.2050 -0.0300  0.1544
18940TIP3    H178311   3.762   3.338   3.771 -2.7583 -0.0084 -1.6816
18940TIP3    H278312   3.887   3.382   3.698 -0.4037 -1.6139  1.2598
18941TIP3   OH278313   4.168   1.984  12.177  0.4709 -0.4798  0.1918
18941TIP3    H178314   4.102   1.921  12.147  0.6968 -0.6768  0.1059
18941TIP3    H278315   4.183   1.961  12.269 -1.3269  1.0783  0.9088
18942TIP3   OH278316   0.852   4.160  13.090 -0.5215  0.4138  0.0278
18942TIP3    H178317   0.829   4.088  13.031  0.1118 -0.1242  0.4318
18942TIP3    H278318   0.944   4.179  13.069 -0.5828  0.8618  0.1716
18943TIP3   OH278319   4.493   0.159  11.271  0.1699  0.1058  0.1184
18943TIP3    H178320   4.464   0.248  11.252  0.6433  0.2504  0.0834
18943TIP3    H278321   4.412   0.111  11.289 -0.1715  0.2652 -0.9990
18944TIP3   OH278322   1.847   5.211   6.755 -0.1120 -1.2495  0.2342
18944TIP3    H178323   1.936   5.201   6.719  0.0785 -1.9343  0.8799
18944TIP3    H278324   1.821   5.122   6.780 -0.9787 -1.0467  0.0608
18945TIP3   OH278325   6.562   1.152  11.290  0.2372 -0.1706 -0.1225
18945TIP3    H178326   6.651   1.119  11.273 -0.5046 -1.7960 -0.9427
18945TIP3    H278327   6.530   1.098  11.362  0.2146  1.0058  0.7688
18946TIP3   OH278328   5.451   5.523   5.285 -1.0195  0.4103  0.5943
18946TIP3    H178329   5.409   5.503   5.369  0.1714 -0.4452  1.0038
18946TIP3    H278330   5.464   5.437   5.244  0.0105  0.6975  0.3205
18947TIP3   OH278331   5.435   4.462  11.222 -0.1714 -0.2076 -0.0920
18947TIP3    H178332   5.454   4.371  11.244  1.1625  0.2555  0.6905
18947TIP3    H278333   5.519   4.498  11.194 -0.9615  0.4200 -1.7345
18948TIP3   OH278334   5.319   3.877  17.080  0.1370  0.5133 -0.1510
18948TIP3    H178335   5.337   3.961  17.122 -0.8642  0.9424 -0.5766
18948TIP3    H278336   5.302   3.817  17.154  0.6318  0.7290  0.1405
18949TIP3   OH278337   1.222   2.983   5.742 -0.2907 -0.2199 -0.2356
18949TIP3    H178338   1.159   3.033   5.793  0.4923  0.6215 -0.0970
18949TIP3    H278339   1.186   2.982   5.653  0.4988  1.9792 -0.5998
18950TIP3   OH278340   6.519   2.703   2.053 -0.0822  0.1222  0.6304
18950TIP3    H178341   6.605   2.697   2.011  0.8295 -1.2328  2.6206
18950TIP3    H278342   6.456   2.698   1.980  1.4821 -0.5447 -0.7101
18951TIP3   OH278343   2.030   0.309   5.498  0.5806 -0.7970  0.1187
18951TIP3    H178344   2.058   0.400   5.498 -0.0631 -0.6016  0.1668
18951TIP3    H278345   2.112   0.259   5.507  0.8682 -0.2138  0.7510
18952TIP3   OH278346   4.070   5.441   3.101 -0.2325  0.4632 -0.2095
18952TIP3    H178347   3.980   5.416   3.117 -0.6387  1.2295 -1.1863
18952TIP3    H278348   4.067   5.490   3.018  0.9564  1.1557  0.1381
18953TIP3   OH278349   0.438   5.143   1.174 -0.1027  0.3554  0.2744
18953TIP3    H178350   0.413   5.235   1.161  0.3741  0.7932  2.2311
18953TIP3    H278351   0.480   5.142   1.260  1.4943 -1.3899 -0.5002
18954TIP3   OH278352   0.183   0.930  11.111 -0.1792 -0.3521 -0.5898
18954TIP3    H178353   0.209   0.863  11.174 -0.0701  0.3471  0.1117
18954TIP3    H278354   0.177   0.883  11.028  0.7810 -1.0436 -0.2788
18955TIP3   OH278355   1.153   4.163  16.123  0.1575  0.2747 -0.4904
18955TIP3    H178356   1.225   4.105  16.097  0.2768  0.4625 -0.5730
18955TIP3    H278357   1.182   4.200  16.206 -0.8242 -1.4073  0.6391
18956TIP3   OH278358   5.291   1.963  12.325  0.2075 -0.1421 -0.4902
18956TIP3    H178359   5.275   1.947  12.232  1.3520  1.9265 -1.0790
18956TIP3    H278360   5.212   1.930  12.369 -0.5658 -0.6776 -2.2308
18957TIP3   OH278361   2.353   6.062  11.332  0.0220 -0.1001  0.1891
18957TIP3    H178362   2.431   6.016  11.364  1.1395  1.2452 -0.5463
18957TIP3    H278363   2.375   6.085  11.242 -0.8043  1.2500  0.3210
18958TIP3   OH278364   5.070   3.305  13.294  0.0591 -0.4123  0.4946
18958TIP3    H178365   5.042   3.243  13.361  0.7569  0.1342  1.3014
18958TIP3    H278366   5.110   3.377  13.343  1.0831 -0.2681 -0.5383
18959TIP3   OH278367   1.911   4.843  12.731  0.0229 -0.4635 -0.1120
18959TIP3    H178368   1.926   4.780  12.661  0.1398 -0.7727  0.1865
18959TIP3    H278369   1.819   4.867  12.722  0.0596 -0.4425 -0.4208
18960TIP3   OH278370   5.028   0.673   1.212 -0.4480 -0.3691  0.7841
18960TIP3    H178371   4.951   0.636   1.170  0.0077 -0.9931  0.4734
18960TIP3    H278372   5.088   0.598   1.222  1.0474  0.5126 -1.1071
18961TIP3   OH278373   1.303   1.917   4.077 -0.2177  0.2991  0.2062
18961TIP3    H178374   1.377   1.947   4.025  1.1524  0.8288  2.3689
18961TIP3    H278375   1.336   1.917   4.167 -2.1191 -1.7274  0.9474
18962TIP3   OH278376   4.561   5.762  16.115 -0.1591  0.1691 -0.1143
18962TIP3    H178377   4.616   5.836  16.141  0.7670  0.4672 -2.7001
18962TIP3    H278378   4.513   5.794  16.038  0.0547 -1.7943 -1.0919
18963TIP3   OH278379   4.016   3.041   3.533  0.4399 -1.1920  0.2086
18963TIP3    H178380   4.000   3.024   3.440 -0.0682  3.3922 -0.6499
18963TIP3    H278381   4.098   2.996   3.552  1.1356 -1.2610 -2.7362
18964TIP3   OH278382   3.905   2.882  11.939 -0.1031 -0.6120 -0.1764
18964TIP3    H178383   3.939   2.968  11.916  1.0581 -1.0726 -0.2327
18964TIP3    H278384   3.850   2.856  11.865 -1.1572  0.4456  0.2271
18965TIP3   OH278385   2.445   2.864  11.382  0.1867  0.4259 -0.1042
18965TIP3    H178386   2.380   2.909  11.327 -0.8026 -2.0565 -1.0187
18965TIP3    H278387   2.517   2.845  11.322 -0.0488 -0.5204 -0.0961
18966TIP3   OH278388   4.007   2.285  10.850  0.1119 -0.2472 -0.0983
18966TIP3    H178389   3.943   2.253  10.913  1.1261  0.2740  1.2351
18966TIP3    H278390   4.061   2.209  10.830 -0.0405 -0.3483 -0.1267
18967TIP3   OH278391   2.946   3.728   1.977  0.5494 -0.0225  0.3799
18967TIP3    H178392   2.868   3.706   2.029 -0.5344  0.6621 -0.9005
18967TIP3    H278393   2.989   3.644   1.960 -0.3810 -0.5148  0.4043
18968TIP3   OH278394   3.254   2.977  11.500 -0.4591 -0.8319 -0.4595
18968TIP3    H178395   3.181   2.919  11.478 -1.2902 -0.5191  1.3916
18968TIP3    H278396   3.310   2.925  11.558 -0.4393 -0.2847  0.0225
18969TIP3   OH278397   5.407   2.287   5.894 -0.0879 -0.1643  0.0223
18969TIP3    H178398   5.496   2.266   5.922  0.2899  1.5679  0.2148
18969TIP3    H278399   5.415   2.374   5.854 -1.3259 -0.8537 -1.7983
18970TIP3   OH278400   4.434   1.066  14.115  0.2168 -0.0960 -0.5648
18970TIP3    H178401   4.369   1.000  14.091  1.7278 -0.8387 -2.7187
18970TIP3    H278402   4.518   1.024  14.101  1.2056  1.3088  0.9106
18971TIP3   OH278403   0.950   6.212   3.448 -0.2095  0.6903 -0.4818
18971TIP3    H178404   0.997   6.155   3.509  1.1714  1.2314 -1.0293
18971TIP3    H278405   0.858   6.203   3.473  0.3456  1.0086  1.7508
18972TIP3   OH278406   0.695   0.308  14.841 -0.0682  0.2473  0.5485
18972TIP3    H178407   0.771   0.345  14.885 -0.7028  1.9131  0.2595
18972TIP3    H278408   0.706   0.213  14.850  1.5956  0.4979  1.2378
18973TIP3   OH278409   6.786   2.967  13.035  0.3897  0.1883  0.0063
18973TIP3    H178410   6.840   2.935  12.962  1.5536 -0.7198  1.2448
18973TIP3    H278411   6.838   2.949  13.113 -0.8096  1.2453  1.0631
18974TIP3   OH278412   0.741   2.811   6.244 -0.5362 -0.3790  0.4065
18974TIP3    H178413   0.701   2.724   6.247 -2.0858  0.3154  0.1412
18974TIP3    H278414   0.696   2.861   6.312  1.1882 -0.1148  1.3843
18975TIP3   OH278415   4.907   3.579  13.328  0.4082 -0.2328  0.0030
18975TIP3    H178416   4.997   3.604  13.308 -0.0364  0.5662 -1.0270
18975TIP3    H278417   4.856   3.659  13.312 -0.9544 -1.6049 -2.7742
18976TIP3   OH278418   5.904   1.667   5.264  0.3834  0.4811  0.0075
18976TIP3    H178419   5.830   1.670   5.325  1.5615 -0.3443  1.4963
18976TIP3    H278420   5.875   1.720   5.190 -1.5218  0.5602  0.7689
18977TIP3   OH278421   0.249   0.964  14.391  0.0737  0.5992 -0.4559
18977TIP3    H178422   0.263   1.045  14.342  0.0059  1.2899  0.6418
18977TIP3    H278423   0.182   0.987  14.455  1.5598  0.2833  1.2437
18978TIP3   OH278424   4.540   0.713  15.060 -0.3202  0.1347  0.2620
18978TIP3    H178425   4.521   0.625  15.028 -1.4084  0.7008 -0.6883
18978TIP3    H278426   4.478   0.727  15.131  0.3703 -0.1422  0.9349
18979TIP3   OH278427   4.925   6.111   1.681  0.5507 -0.3459  0.1074
18979TIP3    H178428   4.975   6.192   1.678  0.3990 -0.2249  0.6929
18979TIP3    H278429   4.987   6.046   1.714 -0.0689  0.1196  2.2587
18980TIP3   OH278430   0.947   1.387   1.117 -0.5601 -0.5972 -0.3921
18980TIP3    H178431   1.036   1.406   1.088 -0.8522  0.8841 -0.3180
18980TIP3    H278432   0.913   1.326   1.051  0.4285 -1.0013 -0.5311
18981TIP3   OH278433   6.312   1.287   5.203 -0.1752 -0.1175 -0.2023
18981TIP3    H178434   6.237   1.345   5.193 -0.0949 -0.1363 -0.9156
18981TIP3    H278435   6.284   1.204   5.164  0.4226  0.0504 -1.0016
18982TIP3   OH278436   4.479   2.846   6.235  0.8358  0.4654 -0.0574
18982TIP3    H178437   4.526   2.888   6.163  0.1794 -0.9194 -1.3376
18982TIP3    H278438   4.545   2.789   6.275  0.8659  0.2594 -0.3925
18983TIP3   OH278439   3.296   5.392  17.165 -0.4147 -0.1942  0.4100
18983TIP3    H178440   3.323   5.480  17.189 -0.3954 -0.3700  1.0491
18983TIP3    H278441   3.379   5.343  17.157 -0.4577 -0.3427  0.8261
18984TIP3   OH278442   3.736   1.071   5.090 -0.5250  0.2986 -0.3964
18984TIP3    H178443   3.735   1.167   5.091  1.8165  0.3362 -0.3281
18984TIP3    H278444   3.722   1.046   5.181  1.9384  0.6502  0.1137
18985TIP3   OH278445   4.570   4.032   4.136 -0.6668  0.3726  0.1190
18985TIP3    H178446   4.554   3.948   4.178 -2.0906  0.9411  0.7582
18985TIP3    H278447   4.560   4.014   4.042  1.9692 -0.7743  0.0326
18986TIP3   OH278448   1.429   6.067  15.579  0.6479 -0.5239 -0.6744
18986TIP3    H178449   1.364   6.010  15.621  1.1583 -0.5138  0.1448
18986TIP3    H278450   1.511   6.047  15.624  0.9569  0.4019 -0.8118
18987TIP3   OH278451   3.677   3.047  13.197  0.1911 -0.4715  0.0605
18987TIP3    H178452   3.710   2.962  13.168 -0.4864 -0.3520 -1.0682
18987TIP3    H278453   3.609   3.025  13.262 -2.8476 -0.9547 -3.1501
18988TIP3   OH278454   3.690   1.347  15.116  0.3110  0.0020  0.8056
18988TIP3    H178455   3.635   1.272  15.140 -0.4675  0.4868  0.5578
18988TIP3    H278456   3.771   1.308  15.082 -0.7750 -0.7652 -0.9798
18989TIP3   OH278457   5.253   6.016   4.506 -0.1907  0.7110  0.1002
18989TIP3    H178458   5.182   6.020   4.442  1.5418  1.6020 -1.8013
18989TIP3    H278459   5.302   5.937   4.482 -1.6531 -1.0429  2.6526
18990TIP3   OH278460   5.637   3.574  16.243 -0.0017 -0.3913  0.2945
18990TIP3    H178461   5.551   3.538  16.221 -0.0827  0.2999 -0.5614
18990TIP3    H278462   5.626   3.613  16.329 -0.5555 -0.3033  0.1859
18991TIP3   OH278463   3.381   2.640   3.605  0.6463  0.3277  0.4570
18991TIP3    H178464   3.358   2.618   3.515 -1.2348  1.8645  0.5413
18991TIP3    H278465   3.463   2.690   3.598  0.8994 -0.1973 -0.3298
18992TIP3   OH278466   5.484   3.131   1.488 -0.7821  0.1776 -0.0184
18992TIP3    H178467   5.400   3.163   1.456 -1.6436 -1.5434  0.4680
18992TIP3    H278468   5.520   3.204   1.539 -1.2010  1.5138 -1.6012
18993TIP3   OH278469   1.567   2.103   0.998 -0.7675  0.2776 -0.2666
18993TIP3    H178470   1.575   2.098   1.093  1.6919 -0.1471 -0.4622
18993TIP3    H278471   1.515   2.182   0.982 -2.4702 -0.4580  1.4590
18994TIP3   OH278472   3.584   1.476  16.979  0.5044  0.4329 -0.3248
18994TIP3    H178473   3.601   1.567  17.005  1.0480  0.0074  0.8485
18994TIP3    H278474   3.667   1.431  16.994 -0.4435 -0.7922  1.5648
18995TIP3   OH278475   4.453   0.919   5.148 -0.4957 -0.5271 -0.5132
18995TIP3    H178476   4.516   0.847   5.142 -0.5094 -0.6012  0.2118
18995TIP3    H278477   4.470   0.959   5.233 -2.4928 -1.5441  0.3833
18996TIP3   OH278478   0.470   1.821  14.040 -0.2151  0.2050 -0.6680
18996TIP3    H178479   0.465   1.787  13.950 -0.6319  0.3702 -0.7042
18996TIP3    H278480   0.465   1.916  14.030  0.5377  0.2638 -0.5308
18997TIP3   OH278481   5.906   0.546   0.192  0.5443  0.3709 -0.1587
18997TIP3    H178482   5.851   0.477   0.155  0.8219 -0.1010  0.3026
18997TIP3    H278483   5.853   0.625   0.185 -0.1030 -0.0387  0.0655
18998TIP3   OH278484   4.447   3.503  16.012 -0.2580 -0.0555 -0.1471
18998TIP3    H178485   4.396   3.422  16.000 -0.5278 -0.3038  2.4293
18998TIP3    H278486   4.505   3.484  16.086  0.6680  1.6519 -0.4095
18999TIP3   OH278487   4.256   1.880  16.113  0.1827 -0.3889 -0.2584
18999TIP3    H178488   4.313   1.957  16.111  2.7368 -2.2085 -0.5265
18999TIP3    H278489   4.212   1.881  16.028  0.0074  0.9106 -0.1645
19000TIP3   OH278490   0.397   1.379   4.524 -0.0045 -0.3655  0.8722
19000TIP3    H178491   0.379   1.391   4.618 -0.5842 -1.1387  0.8632
19000TIP3    H278492   0.434   1.292   4.518  1.1224  0.1362  0.5219
19001TIP3   OH278493   6.332   3.759  14.442 -0.4870  0.2891 -0.1118
19001TIP3    H178494   6.396   3.815  14.485  0.0724 -1.6874  1.7029
19001TIP3    H278495   6.254   3.763  14.498 -0.7578 -0.0438 -0.4557
19002TIP3   OH278496   0.748   3.457   0.102  0.5350  0.4025  0.0439
19002TIP3    H178497   0.713   3.373   0.073  1.0198  0.4943 -0.8150
19002TIP3    H278498   0.743   3.514   0.025 -0.1757  1.2886  0.7259
19003TIP3   OH278499   1.798   1.501  16.952 -0.5472 -0.6156  0.4283
19003TIP3    H178500   1.831   1.590  16.966  2.1828 -1.3268 -1.1112
19003TIP3    H278501   1.725   1.492  17.014 -0.2451  2.3471  1.2689
19004TIP3   OH278502   4.159   3.529  12.250 -0.3864 -0.4982 -0.2152
19004TIP3    H178503   4.115   3.446  12.270 -2.2264  0.3726 -0.5224
19004TIP3    H278504   4.089   3.585  12.216  0.8264  1.1865  0.0177
19005TIP3   OH278505   4.747   4.455  14.222 -0.5646 -0.0297 -0.1869
19005TIP3    H178506   4.743   4.516  14.296  2.1380 -0.4618  0.4033
19005TIP3    H278507   4.661   4.414  14.220 -0.9661  0.5668  2.2310
19006TIP3   OH278508   3.480   5.877   4.151 -0.1664  0.3461 -0.9376
19006TIP3    H178509   3.426   5.878   4.230 -1.0764  3.0509 -1.5440
19006TIP3    H278510   3.446   5.803   4.100  0.2899 -1.2739  1.0798
19007TIP3   OH278511   4.100   6.547   0.189  0.3550 -0.3853 -0.0307
19007TIP3    H178512   4.193   6.528   0.174  0.3336 -1.4277  1.0507
19007TIP3    H278513   4.074   6.485   0.257 -0.6226  1.2422  1.1206
19008TIP3   OH278514   5.214   4.920  12.144 -0.0907  0.0900  0.1900
19008TIP3    H178515   5.164   4.905  12.064  0.6404 -1.2209 -0.0470
19008TIP3    H278516   5.148   4.932  12.212 -0.7341 -0.8858 -0.2486
19009TIP3   OH278517   3.373   3.087  16.778  0.7092 -0.1420  0.1213
19009TIP3    H178518   3.457   3.069  16.736  1.1703 -0.0637  0.9973
19009TIP3    H278519   3.324   3.137  16.713  0.9768 -0.9992 -0.7565
19010TIP3   OH278520   1.742   3.577   4.240 -0.3245  0.3517  0.2133
19010TIP3    H178521   1.785   3.658   4.269  0.5798  0.8304 -2.2819
19010TIP3    H278522   1.650   3.589   4.264  0.4664  0.3872  3.4253
19011TIP3   OH278523   1.926   0.620  16.134 -0.3029  0.1079 -0.0335
19011TIP3    H178524   1.895   0.547  16.186 -1.2966 -1.7118 -3.0617
19011TIP3    H278525   2.002   0.586  16.087  0.8763  1.8539  0.5397
19012TIP3   OH278526   2.204   1.255  13.210  0.1928 -0.4424 -0.0123
19012TIP3    H178527   2.213   1.217  13.297 -2.4311 -0.2749  0.3679
19012TIP3    H278528   2.141   1.326  13.220  0.7734  0.3695 -1.8154
19013TIP3   OH278529   4.586   4.110   5.669  0.0728 -0.6547 -0.2699
19013TIP3    H178530   4.565   4.183   5.729 -1.5283 -2.0061  0.8673
19013TIP3    H278531   4.655   4.062   5.715 -0.0537 -0.8055 -0.2382
19014TIP3   OH278532   1.505   0.952   4.870  0.0041  0.6543  0.6084
19014TIP3    H178533   1.584   0.992   4.906 -1.5551  1.3536  3.3514
19014TIP3    H278534   1.502   0.865   4.909 -0.2539  0.3860 -0.0006
19015TIP3   OH278535   5.972   5.217   5.563  0.0478  0.1131 -0.2366
19015TIP3    H178536   5.940   5.187   5.649 -2.5829  0.3645 -1.0988
19015TIP3    H278537   6.037   5.284   5.584 -0.4363  0.0523  1.5758
19016TIP3   OH278538   3.049   5.547   3.350 -0.6906 -0.6023  0.4036
19016TIP3    H178539   3.120   5.565   3.288 -1.8932  2.6151 -0.1060
19016TIP3    H278540   3.018   5.460   3.325  1.9442 -1.3679 -0.4253
19017TIP3   OH278541   5.845   0.564   0.492 -0.5491  0.1889 -0.1896
19017TIP3    H178542   5.888   0.579   0.407 -0.2930 -1.2474 -0.3216
19017TIP3    H278543   5.841   0.469   0.500 -1.2291  0.3231  1.0900
19018TIP3   OH278544   0.964   4.139  12.714 -0.2498 -0.3629 -0.1390
19018TIP3    H178545   0.928   4.082  12.782 -0.4905 -0.0797 -0.0271
19018TIP3    H278546   0.965   4.226  12.754 -1.4911  0.0108 -0.9109
19019TIP3   OH278547   2.907   5.002   0.292 -0.3039 -0.6750 -0.6950
19019TIP3    H178548   2.936   4.955   0.214 -0.2934 -0.6705 -0.6936
19019TIP3    H278549   2.886   5.090   0.261  0.9285 -0.2922 -0.4627
19020TIP3   OH278550   3.545   3.364  11.622  0.3303  0.6758  0.8817
19020TIP3    H178551   3.523   3.270  11.620  0.7768  0.5517  1.5352
19020TIP3    H278552   3.481   3.405  11.563  0.4670 -0.1056  0.1869
19021TIP3   OH278553   5.027   5.946   5.308  0.0328 -1.2809  0.1378
19021TIP3    H178554   5.091   5.910   5.247 -0.9979 -1.9302 -0.5844
19021TIP3    H278555   5.054   5.913   5.393 -0.2290 -2.8124 -0.3699
19022TIP3   OH278556   2.658   4.254   1.468  0.2956  0.4747 -0.5067
19022TIP3    H178557   2.568   4.256   1.500 -0.6787 -1.5292 -3.0060
19022TIP3    H278558   2.704   4.199   1.532 -0.4662  0.6734  0.2306
19023TIP3   OH278559   2.932   6.213  15.024 -0.2355  0.1370 -0.5040
19023TIP3    H178560   3.002   6.245  15.080  0.3884  1.1835 -1.8650
19023TIP3    H278561   2.967   6.133  14.985 -0.1619  0.1517 -0.4678
19024TIP3   OH278562   2.651   4.263  17.156  0.3238  0.1503  0.3345
19024TIP3    H178563   2.674   4.350  17.125 -2.0680  0.5429 -0.3679
19024TIP3    H278564   2.558   4.254  17.138  0.3842 -2.2942  1.0281
19025TIP3   OH278565   0.393   1.739   0.819 -0.9652  0.4070  0.2194
19025TIP3    H178566   0.376   1.696   0.735  1.7711  0.7552 -0.5620
19025TIP3    H278567   0.434   1.671   0.873  0.2361  1.0639  0.1527
19026TIP3   OH278568   6.704   2.709   6.211 -0.1457  0.2956 -0.0490
19026TIP3    H178569   6.713   2.796   6.173  0.8464 -0.9019 -2.6676
19026TIP3    H278570   6.610   2.696   6.221 -0.3827  0.9139 -1.4661
19027TIP3   OH278571   5.048   4.122  14.560  0.2880 -0.3482  0.0795
19027TIP3    H178572   5.002   4.200  14.529  0.4348 -0.9460 -1.6647
19027TIP3    H278573   5.141   4.145  14.556  0.2115  0.6428  3.0214
19028TIP3   OH278574   0.532   6.789  12.867 -0.2095 -0.2965  0.0241
19028TIP3    H178575   0.625   6.809  12.876 -0.3331  1.1533 -1.7039
19028TIP3    H278576   0.526   6.695  12.882  1.1778 -0.0058  2.6691
19029TIP3   OH278577   0.767   6.753  14.568  0.0651 -0.1334  0.4873
19029TIP3    H178578   0.819   6.778  14.492  0.3750 -0.1706  0.6890
19029TIP3    H278579   0.703   6.824  14.577 -0.1829 -0.2966 -0.0063
19030TIP3   OH278580   0.297   1.745   4.830 -0.4085  0.1918 -0.0248
19030TIP3    H178581   0.301   1.804   4.754  1.0261  0.9729  0.6593
19030TIP3    H278582   0.385   1.709   4.837 -0.7357 -0.4413  0.8480
19031TIP3   OH278583   6.672   3.996  10.962  0.0760 -0.5176 -0.1877
19031TIP3    H178584   6.611   3.925  10.981 -2.4179  1.4368 -0.7610
19031TIP3    H278585   6.750   3.974  11.014 -0.1760 -4.2390 -1.2296
19032TIP3   OH278586   1.891   1.342  15.235  0.2576 -0.6528  0.3626
19032TIP3    H178587   1.943   1.418  15.209  0.4200  0.0296  2.6059
19032TIP3    H278588   1.824   1.378  15.293  0.7788 -2.3069  2.0170
19033TIP3   OH278589   2.556   6.228   5.550 -0.3312 -0.0795  0.2876
19033TIP3    H178590   2.463   6.217   5.529 -0.4962 -0.7692  1.3785
19033TIP3    H278591   2.602   6.195   5.472 -1.0055  1.2421 -0.6837
19034TIP3   OH278592   2.429   2.892   0.896  0.1740 -0.4541 -0.2636
19034TIP3    H178593   2.390   2.852   0.974  1.2254  1.4189  1.2662
19034TIP3    H278594   2.355   2.917   0.842 -0.7484  1.5784  1.8565
19035TIP3   OH278595   4.214   0.606  15.747 -0.4311 -0.1414 -0.3270
19035TIP3    H178596   4.258   0.529  15.783  0.4636  0.1324 -0.8218
19035TIP3    H278597   4.227   0.674  15.813 -1.6323 -0.5316  0.3306
19036TIP3   OH278598   6.506   3.429  12.944  0.2101  0.3404 -0.2763
19036TIP3    H178599   6.527   3.335  12.941  1.1341  0.5749 -1.6309
19036TIP3    H278600   6.501   3.449  13.037  2.3195 -0.5523  0.0578
19037TIP3   OH278601   4.159   0.444   3.871 -0.5337 -0.1299  0.0706
19037TIP3    H178602   4.075   0.402   3.889 -0.0588 -0.3941  1.8349
19037TIP3    H278603   4.143   0.500   3.795 -1.8807 -1.4083 -0.6037
19038TIP3   OH278604   3.279   2.506   1.887  0.2136  0.0146 -0.6454
19038TIP3    H178605   3.206   2.452   1.919  1.5788 -3.0746 -2.5552
19038TIP3    H278606   3.354   2.480   1.940  0.3704  1.8873  0.0932
19039TIP3   OH278607   0.530   0.537   1.979 -0.1128 -0.0233  0.4477
19039TIP3    H178608   0.482   0.538   2.062 -0.6308 -1.2339  0.1734
19039TIP3    H278609   0.622   0.526   2.004  0.0179  1.9535  0.9578
19040TIP3   OH278610   2.089   2.542   5.073 -0.5575  0.1738 -0.3292
19040TIP3    H178611   2.141   2.612   5.033 -1.9410  1.0977 -0.5668
19040TIP3    H278612   2.141   2.513   5.148  0.1157  1.3372 -0.3306
19041TIP3   OH278613   5.544   0.398   3.854 -0.2060 -0.1937  0.4135
19041TIP3    H178614   5.539   0.333   3.924  0.8744 -0.2850  0.4175
19041TIP3    H278615   5.637   0.401   3.831 -0.4018  0.6023 -0.2927
19042TIP3   OH278616   0.454   1.750  13.768  0.3334 -0.1224  0.3203
19042TIP3    H178617   0.383   1.693  13.797  0.3710 -0.2019  0.2573
19042TIP3    H278618   0.495   1.702  13.696  1.4839 -0.8452  1.4224
19043TIP3   OH278619   4.565   0.885   2.817  0.0422  0.1734 -0.7935
19043TIP3    H178620   4.628   0.909   2.749  0.8099  1.2564  0.2661
19043TIP3    H278621   4.545   0.793   2.800 -0.1364  0.5537 -2.7438
19044TIP3   OH278622   1.555   0.198   5.157  0.3403 -0.0724 -0.6333
19044TIP3    H178623   1.561   0.237   5.244  0.4118  0.2494 -0.7797
19044TIP3    H278624   1.644   0.203   5.123  0.1383  0.6141 -1.0708
19045TIP3   OH278625   0.755   4.467   1.418  0.2384 -0.0307  0.4279
19045TIP3    H178626   0.826   4.517   1.379 -0.2727  0.0750 -0.3823
19045TIP3    H278627   0.677   4.521   1.403 -0.3203 -1.0579 -0.4478
19046TIP3   OH278628   5.496   0.636   6.566  0.0786 -0.0418 -0.2453
19046TIP3    H178629   5.524   0.555   6.523  1.2972  0.1750  0.1247
19046TIP3    H278630   5.424   0.668   6.512  0.8172 -0.3893 -1.4546
19047TIP3   OH278631   2.639   4.893   2.893  0.2605 -0.5336  0.6128
19047TIP3    H178632   2.657   4.983   2.917 -0.2240  0.1629 -1.5068
19047TIP3    H278633   2.563   4.898   2.836  0.7517 -2.1753 -0.2373
19048TIP3   OH278634   1.149   0.975   0.947 -0.2225 -0.2764  1.0135
19048TIP3    H178635   1.179   0.896   0.992  2.4590 -0.3262 -0.7235
19048TIP3    H278636   1.205   0.981   0.870 -3.0727  1.1357 -1.0496
19049TIP3   OH278637   3.437   2.570  15.706  0.1334 -0.6435  0.6534
19049TIP3    H178638   3.392   2.580  15.621 -1.4046 -0.6004  1.4586
19049TIP3    H278639   3.488   2.490  15.696  1.2708  0.2406 -0.8922
19050TIP3   OH278640   4.871   0.304   6.438 -0.3502  0.1578  0.2610
19050TIP3    H178641   4.779   0.284   6.419 -0.2041 -0.1486 -0.1300
19050TIP3    H278642   4.891   0.379   6.382 -0.1536 -0.2354 -0.1998
19051TIP3   OH278643   3.218   6.041  12.769 -0.5506  0.3604 -0.1757
19051TIP3    H178644   3.128   6.009  12.777 -0.2355 -0.7623 -0.9901
19051TIP3    H278645   3.264   6.001  12.842 -1.3692  3.4146  2.1189
19052TIP3   OH278646   6.646   4.093  13.090  0.5443 -0.5461 -0.1711
19052TIP3    H178647   6.699   4.154  13.140  2.7743 -0.8052 -2.1277
19052TIP3    H278648   6.696   4.012  13.090 -0.6169 -1.2720 -0.7081
19053TIP3   OH278649   4.714   1.494  15.091  0.3153 -0.1945 -0.2322
19053TIP3    H178650   4.632   1.523  15.133 -0.1782 -0.8617 -0.7358
19053TIP3    H278651   4.718   1.400  15.107  0.8987 -0.1959 -0.3678
19054TIP3   OH278652   4.222   2.770   3.728 -0.0221 -0.4414  0.6082
19054TIP3    H178653   4.149   2.723   3.768  1.2924 -2.6994  0.4751
19054TIP3    H278654   4.270   2.807   3.802 -0.2480 -0.5626  0.8161
19055TIP3   OH278655   0.527   3.808  13.780 -0.1455 -0.1504 -0.1736
19055TIP3    H178656   0.582   3.800  13.858  0.5745  1.3726 -0.5085
19055TIP3    H278657   0.478   3.726  13.777  0.9251 -0.8563  1.0373
19056TIP3   OH278658   1.585   0.258  15.624 -0.9139 -0.1053  0.0161
19056TIP3    H178659   1.528   0.333  15.642  1.2905  2.2355 -2.1540
19056TIP3    H278660   1.662   0.273  15.678 -0.3014 -0.5940 -0.7139
19057TIP3   OH278661   1.311   6.261  12.130 -0.1553 -0.3382 -0.1593
19057TIP3    H178662   1.237   6.314  12.100  0.8903 -0.0672 -2.3853
19057TIP3    H278663   1.385   6.321  12.129  0.4834 -1.1145  0.1034
19058TIP3   OH278664   6.037   6.040   3.187  0.6763 -0.2577  0.0582
19058TIP3    H178665   6.108   5.986   3.154  0.7195  0.3795 -0.9321
19058TIP3    H278666   6.012   6.094   3.112 -0.0101  0.3998  0.7532
19059TIP3   OH278667   1.825   3.572  13.295 -0.0833 -0.2464  0.2748
19059TIP3    H178668   1.896   3.562  13.232 -0.2520  1.1729 -0.1584
19059TIP3    H278669   1.866   3.618  13.369 -0.6766  1.1391 -0.2368
19060TIP3   OH278670   0.750   5.685   5.984  0.1333  0.0911  0.1884
19060TIP3    H178671   0.823   5.738   6.015 -2.6594  5.9835 -2.3563
19060TIP3    H278672   0.693   5.675   6.061  0.5305  1.2197  0.6391
19061TIP3   OH278673   6.489   5.782   6.029  0.5487  0.3069  0.0290
19061TIP3    H178674   6.547   5.746   6.096 -0.2442  0.0934  0.6015
19061TIP3    H278675   6.432   5.842   6.077 -1.0395 -1.0018 -0.2067
19062TIP3   OH278676   3.525   0.856  13.078  0.0229  0.2793  0.3565
19062TIP3    H178677   3.518   0.918  13.006  1.5150  2.2900  1.9027
19062TIP3    H278678   3.612   0.871  13.115  0.1835 -2.3071  1.1703
19063TIP3   OH278679   0.125   3.585   2.435  0.0362  0.0086  0.0568
19063TIP3    H178680   0.071   3.546   2.366  0.4333 -0.3210 -0.0662
19063TIP3    H278681   0.152   3.670   2.399 -0.5645  0.2654  0.1995
19064TIP3   OH278682   2.116   1.555   2.858  0.4558  0.3493  0.4832
19064TIP3    H178683   2.189   1.553   2.921  1.1898 -1.0214 -0.3922
19064TIP3    H278684   2.045   1.597   2.906  0.5021 -2.0669  2.7647
19065TIP3   OH278685   0.504   6.395   0.043  0.1813 -0.0979 -0.0489
19065TIP3    H178686   0.510   6.343   0.123 -0.3530 -1.8789 -1.1352
19065TIP3    H278687   0.434   6.354  -0.007  0.4514  1.0505 -1.4115
19066TIP3   OH278688   0.120   6.179  14.772  0.1816 -0.5781  0.4758
19066TIP3    H178689   0.038   6.131  14.776 -0.1972 -0.2003 -1.8718
19066TIP3    H278690   0.184   6.116  14.738 -0.3440  0.5438 -2.7263
19067TIP3   OH278691   0.314   5.832  15.197 -0.2627  0.1457  0.2131
19067TIP3    H178692   0.306   5.914  15.246 -0.1873  0.4638 -0.2965
19067TIP3    H278693   0.359   5.773  15.256  0.2184  0.6619  0.3677
19068TIP3   OH278694   6.322   4.817  14.405  0.5052 -0.1454 -0.2555
19068TIP3    H178695   6.275   4.772  14.476  0.6628 -1.1828 -0.8047
19068TIP3    H278696   6.355   4.897  14.445 -0.2603 -0.2450  0.5896
19069TIP3   OH278697   0.695   5.549  16.285  0.2245  0.1596  0.5565
19069TIP3    H178698   0.714   5.456  16.269 -0.0420  0.2263 -0.1707
19069TIP3    H278699   0.670   5.583  16.199 -0.3042  0.7555  0.9451
19070TIP3   OH278700   5.622   1.118   1.364 -0.4023  0.2984 -0.0830
19070TIP3    H178701   5.671   1.157   1.292 -0.2605  0.5798  0.1664
19070TIP3    H278702   5.534   1.103   1.327 -0.2840  0.2911 -0.3637
19071TIP3   OH278703   5.045   3.436   2.387 -0.8350 -0.6670  0.0730
19071TIP3    H178704   5.064   3.514   2.334  1.5707  0.7041  2.8297
19071TIP3    H278705   5.111   3.373   2.361  0.4949  0.0896  1.5391
19072TIP3   OH278706   0.663   2.061  13.063  0.0531 -0.1385  0.7443
19072TIP3    H178707   0.747   2.068  13.018 -0.0854  1.1745  0.6777
19072TIP3    H278708   0.607   2.124  13.019  0.3322  2.2585  3.6299
19073TIP3   OH278709   0.027   6.155   0.182 -0.5141  1.0109  0.3569
19073TIP3    H178710  -0.049   6.197   0.142 -0.8840  1.1528  1.2120
19073TIP3    H278711   0.044   6.078   0.127 -0.7199  1.4750 -0.3582
19074TIP3   OH278712   4.335   2.074  13.732  0.6582  0.1922  0.5654
19074TIP3    H178713   4.298   2.032  13.654  1.0264 -0.5591  0.7919
19074TIP3    H278714   4.310   2.166  13.723 -0.1278 -0.0630  0.0497
19075TIP3   OH278715   5.338   3.354  10.258 -0.5712 -0.3679  0.4206
19075TIP3    H178716   5.259   3.330  10.306 -0.3012 -1.4516  0.3424
19075TIP3    H278717   5.369   3.434  10.300 -1.5779 -0.0787  0.6010
19076TIP3   OH278718   5.754   6.025  11.223  0.5180 -0.5278 -0.0901
19076TIP3    H178719   5.752   5.929  11.224  0.7641 -0.5387 -0.5104
19076TIP3    H278720   5.800   6.049  11.303 -1.0037 -0.7120  0.8731
19077TIP3   OH278721   6.520   0.300  17.222  0.0523 -0.0550 -0.2521
19077TIP3    H178722   6.497   0.351  17.145 -3.1082  4.4156  3.3817
19077TIP3    H278723   6.594   0.346  17.261 -1.3068  0.4544  1.8028
19078TIP3   OH278724   1.741   4.145  13.106  0.3728  0.2107  0.0355
19078TIP3    H178725   1.786   4.100  13.034  0.1617  2.5888 -1.6663
19078TIP3    H278726   1.660   4.096  13.117  1.0752 -1.0641 -0.3561
19079TIP3   OH278727   3.362   5.092   5.522  0.1443  0.3782  0.0595
19079TIP3    H178728   3.313   5.166   5.559 -0.3406 -0.1575  0.5092
19079TIP3    H278729   3.450   5.126   5.509  0.6946  0.2472  2.9338
19080TIP3   OH278730   4.109   6.291  11.438  0.0204  0.0261 -0.4327
19080TIP3    H178731   4.085   6.383  11.443  2.1860  0.7455 -2.3416
19080TIP3    H278732   4.153   6.273  11.521 -2.5326  0.0223  0.9610
19081TIP3   OH278733   1.282   6.034   3.247 -0.1336  0.1542 -0.2285
19081TIP3    H178734   1.269   6.126   3.271 -0.6590 -0.4041  1.7173
19081TIP3    H278735   1.240   6.026   3.162  1.0848  2.0201 -1.0620
19082TIP3   OH278736   3.026   2.269  13.004  0.2129 -0.3302 -0.0790
19082TIP3    H178737   3.090   2.315  13.059  0.3021  0.1594 -0.5923
19082TIP3    H278738   2.944   2.275  13.053  0.8991 -2.4508  1.4146
19083TIP3   OH278739   2.410   1.922  16.570  0.0439 -0.3660 -0.2396
19083TIP3    H178740   2.464   1.844  16.586 -0.6164 -0.6640  0.5773
19083TIP3    H278741   2.403   1.964  16.655 -0.5709 -0.0331 -0.4508
19084TIP3   OH278742   2.104   1.359   4.415  0.1757 -0.1229 -0.0329
19084TIP3    H178743   2.098   1.289   4.481 -1.3447 -0.3308 -0.3877
19084TIP3    H278744   2.138   1.315   4.337 -0.1781 -0.3437 -0.0647
19085TIP3   OH278745   3.508   2.398   5.680  0.3626 -1.1576  0.2794
19085TIP3    H178746   3.473   2.470   5.628  0.1972 -1.4186  0.0268
19085TIP3    H278747   3.555   2.440   5.751  0.3627 -0.7998  0.0667
19086TIP3   OH278748   1.688   6.087   3.055  0.5634  0.2739  0.2160
19086TIP3    H178749   1.649   6.008   3.017  0.9343 -0.2245  0.8576
19086TIP3    H278750   1.728   6.057   3.136  2.1044  0.8292 -0.3344
19087TIP3   OH278751   2.070   2.840   1.572 -0.3769 -0.3529  0.4244
19087TIP3    H178752   2.104   2.892   1.499  0.0126 -1.2376 -0.0318
19087TIP3    H278753   2.122   2.868   1.648  2.0153 -2.3110 -0.4236
19088TIP3   OH278754   0.057   0.353   6.304  0.2314 -0.1076  0.2139
19088TIP3    H178755  -0.036   0.346   6.282  0.2966 -0.5355  0.0714
19088TIP3    H278756   0.070   0.446   6.325  0.2313  0.4142 -1.8920
19089TIP3   OH278757   4.058   1.581   5.289 -0.5875  0.0179  0.0996
19089TIP3    H178758   4.052   1.512   5.223 -1.3401  2.1374 -2.1254
19089TIP3    H278759   4.138   1.628   5.268 -0.3208  0.1257  1.3203
19090TIP3   OH278760   4.860   4.368   1.019  0.2594  0.3301 -0.2287
19090TIP3    H178761   4.799   4.299   1.044 -1.3888  1.9378  0.2787
19090TIP3    H278762   4.805   4.444   1.001  2.2055  2.4363  2.2500
19091TIP3   OH278763   4.608   4.781  11.909 -0.5772 -0.3428 -0.4087
19091TIP3    H178764   4.679   4.811  11.965 -1.1775  0.4965 -0.0885
19091TIP3    H278765   4.563   4.714  11.961 -0.4248 -0.3977 -0.3484
19092TIP3   OH278766   2.264   2.231   3.808  0.1330 -0.0476 -0.1488
19092TIP3    H178767   2.348   2.197   3.839 -0.3739 -1.9860 -0.7840
19092TIP3    H278768   2.222   2.269   3.885  1.4220  0.5864  0.2465
19093TIP3   OH278769   3.233   1.593   5.150  0.3409  0.4714 -0.3042
19093TIP3    H178770   3.328   1.600   5.139  0.2531  0.3187 -1.2401
19093TIP3    H278771   3.197   1.649   5.081 -0.2475  0.8372  0.2977
19094TIP3   OH278772   1.144   3.825   4.379 -0.7030  0.3430  0.1338
19094TIP3    H178773   1.121   3.873   4.299 -2.1770 -0.1180  0.2713
19094TIP3    H278774   1.109   3.737   4.365 -0.1471 -0.0036  0.8974
19095TIP3   OH278775   2.972   0.197  11.030  0.2536 -0.2265 -0.1782
19095TIP3    H178776   3.015   0.127  10.980  0.8691  0.4329 -0.5735
19095TIP3    H278777   2.890   0.157  11.060 -0.3839 -0.4918 -2.1611
19096TIP3   OH278778   0.055   1.870   0.167 -0.5128 -0.1298  0.2573
19096TIP3    H178779   0.058   1.965   0.155 -2.4813 -0.1453 -0.7555
19096TIP3    H278780   0.146   1.842   0.165  0.0564  1.6771 -0.0243
19097TIP3   OH278781   2.205   1.745  12.956 -0.2311 -0.1626 -0.3590
19097TIP3    H178782   2.146   1.679  12.920 -1.3565  0.8440 -0.3962
19097TIP3    H278783   2.179   1.753  13.048 -0.0015  0.1142 -0.3170
19098TIP3   OH278784   1.487   2.568  14.914  0.1795 -0.2689 -0.3800
19098TIP3    H178785   1.410   2.585  14.967  0.4531  0.6185 -0.2507
19098TIP3    H278786   1.534   2.498  14.960 -1.3405 -1.9095 -1.2954
19099TIP3   OH278787   1.396   5.507  16.323 -0.5974  0.0700 -0.2986
19099TIP3    H178788   1.312   5.547  16.300 -0.6251 -0.5850 -1.3855
19099TIP3    H278789   1.434   5.483  16.238 -0.8730 -2.8174  0.3575
19100TIP3   OH278790   1.968   1.825  15.346  0.0718  0.3193 -0.7184
19100TIP3    H178791   1.947   1.912  15.381 -1.3108  0.1608 -1.1360
19100TIP3    H278792   1.883   1.782  15.335  0.7876 -1.4349  0.3515
19101TIP3   OH278793   0.145   1.368   3.428 -0.3848  0.4755 -0.3682
19101TIP3    H178794   0.070   1.424   3.448 -2.6838 -2.4753 -0.3171
19101TIP3    H278795   0.135   1.348   3.335 -0.5274 -1.0952 -0.0321
19102TIP3   OH278796   5.048   2.368   2.697 -0.1086 -0.0652  0.2500
19102TIP3    H178797   5.125   2.412   2.731 -0.5353  1.8245 -1.1582
19102TIP3    H278798   5.081   2.284   2.664  1.1943  0.3989  0.3563
19103TIP3   OH278799   2.892   5.120  13.264  0.9789 -0.2369 -0.3408
19103TIP3    H178800   2.950   5.069  13.208  0.1503 -1.7384  0.1366
19103TIP3    H278801   2.804   5.095  13.236  0.5627 -1.0111  1.6350
19104TIP3   OH278802   5.975   0.737   4.552  0.0490  0.1269  0.1598
19104TIP3    H178803   5.888   0.737   4.593 -1.1992  1.8691 -2.3298
19104TIP3    H278804   5.965   0.793   4.475  3.0187 -0.8138 -0.9890
19105TIP3   OH278805   4.909   2.986   2.711 -0.0762 -0.1915 -0.0179
19105TIP3    H178806   4.841   2.988   2.779 -1.1792  0.4111 -1.1249
19105TIP3    H278807   4.929   2.893   2.699 -0.8854 -0.3872  0.1413
19106TIP3   OH278808   2.257   5.500   6.837 -0.2344  0.0159 -0.0736
19106TIP3    H178809   2.184   5.453   6.798 -0.8050  0.0746  0.8915
19106TIP3    H278810   2.247   5.590   6.805 -0.8909  0.1398  0.4565
19107TIP3   OH278811   3.121   5.005   4.502  0.1181 -0.2643 -0.1632
19107TIP3    H178812   3.141   5.098   4.491  2.9456 -1.1349 -3.0861
19107TIP3    H278813   3.192   4.971   4.556 -0.9042 -0.7756  0.8909
19108TIP3   OH278814   5.733   3.356   0.751  0.0748  0.3286 -0.1025
19108TIP3    H178815   5.787   3.278   0.743 -1.1790 -0.4753 -0.8361
19108TIP3    H278816   5.787   3.426   0.714  0.5183 -0.5168 -1.0856
19109TIP3   OH278817   2.177   3.759  13.343 -0.1009 -0.1418 -0.2711
19109TIP3    H178818   2.217   3.706  13.413 -2.1721 -1.0398  0.2525
19109TIP3    H278819   2.201   3.849  13.366  1.1963 -0.6214  0.3128
19110TIP3   OH278820   0.985   6.203   3.900 -0.3384  0.0780 -0.5505
19110TIP3    H178821   0.922   6.134   3.924  1.7179 -0.6089  3.3144
19110TIP3    H278822   0.933   6.283   3.897 -1.9055 -0.8996 -0.2606
19111TIP3   OH278823   4.400   5.851   6.027  0.2783 -0.1746  0.3923
19111TIP3    H178824   4.310   5.821   6.016  0.5416 -0.8361  0.0032
19111TIP3    H278825   4.452   5.771   6.034  0.8156  0.2023  0.7933
19112TIP3   OH278826   1.073   1.228   3.835 -0.1655 -0.0618 -0.2757
19112TIP3    H178827   1.135   1.275   3.892  0.0365  1.4408 -1.6875
19112TIP3    H278828   1.003   1.292   3.819  0.4942  0.0356 -2.8519
19113TIP3   OH278829   0.767   1.344   2.528 -0.1534 -0.1478 -0.4019
19113TIP3    H178830   0.719   1.422   2.500  0.2808  0.2713  0.0150
19113TIP3    H278831   0.809   1.312   2.448 -0.2047  0.1360 -0.5433
19114TIP3   OH278832   1.028   2.460  15.473 -0.4182  0.1863  0.3977
19114TIP3    H178833   1.022   2.550  15.441 -2.8234 -0.3360 -0.8128
19114TIP3    H278834   0.940   2.441  15.508  0.3451 -1.3567  1.5413
19115TIP3   OH278835   4.525   5.322  11.173  0.1728 -0.2019  0.2979
19115TIP3    H178836   4.471   5.379  11.119  1.0811 -0.4464 -0.9013
19115TIP3    H278837   4.594   5.291  11.113  0.4622 -1.4813  1.2685
19116TIP3   OH278838   4.964   5.747  12.350 -0.1420  0.0659 -0.2046
19116TIP3    H178839   4.910   5.814  12.392  0.6522  0.1886  0.6168
19116TIP3    H278840   4.934   5.746  12.259 -0.6769  0.9964 -0.0432
19117TIP3   OH278841   3.785   0.640  15.540  0.0707 -0.2948 -0.1996
19117TIP3    H178842   3.859   0.612  15.594 -0.3169 -1.5864 -0.3165
19117TIP3    H278843   3.812   0.620  15.450  0.4633  1.2815 -0.4547
19118TIP3   OH278844   6.610   4.351   0.345  0.1807  0.1845  0.2421
19118TIP3    H178845   6.627   4.304   0.427  0.9441 -1.0148 -0.5974
19118TIP3    H278846   6.631   4.442   0.365 -1.7227  0.2694  2.0159
19119TIP3   OH278847   5.593   5.693   3.516 -0.5783  0.2580  0.2367
19119TIP3    H178848   5.531   5.753   3.474 -0.0270  0.4513 -0.3012
19119TIP3    H278849   5.648   5.749   3.570  1.1262  0.4953 -1.6789
19120TIP3   OH278850   6.266   1.747   3.570 -0.3495  0.1794  0.2839
19120TIP3    H178851   6.219   1.793   3.500  1.6653  2.0977  0.1258
19120TIP3    H278852   6.309   1.674   3.525 -0.0287  0.7105 -0.2898
19121TIP3   OH278853   4.258   4.351   5.935  0.0650  0.4029 -0.3225
19121TIP3    H178854   4.231   4.373   6.024 -2.4533 -0.7877 -0.7506
19121TIP3    H278855   4.263   4.256   5.935  2.8643  0.5219 -0.6995
19122TIP3   OH278856   3.783   1.856   3.645  0.0720  0.2292  0.0437
19122TIP3    H178857   3.733   1.779   3.674  0.1027  0.4401  0.6675
19122TIP3    H278858   3.874   1.833   3.661  0.0617  0.5187  0.5495
19123TIP3   OH278859   5.908   1.414  12.908  0.4038 -0.0531 -0.9240
19123TIP3    H178860   5.938   1.402  12.818  0.8894  0.3309 -0.8168
19123TIP3    H278861   5.816   1.388  12.907  0.1784  0.7964 -1.7276
19124TIP3   OH278862   5.065   2.644  14.522 -0.1989 -0.0745 -0.5895
19124TIP3    H178863   5.027   2.689  14.447 -1.7698  0.4608  0.5092
19124TIP3    H278864   5.002   2.574  14.542  0.0668 -0.0392  0.3928
19125TIP3   OH278865   0.174   5.236   4.668  0.1453  0.2134 -0.5092
19125TIP3    H178866   0.113   5.303   4.700 -0.7306 -0.2585 -1.1556
19125TIP3    H278867   0.255   5.251   4.717 -0.5886  0.6631  0.5707
19126TIP3   OH278868   6.298   6.222  12.893 -0.0346 -0.2767  0.2171
19126TIP3    H178869   6.248   6.272  12.829 -1.1698 -0.7486  0.7182
19126TIP3    H278870   6.283   6.268  12.976 -0.1360 -0.7649  0.4731
19127TIP3   OH278871   4.617   4.729   2.836  0.1555  0.2241  0.3266
19127TIP3    H178872   4.647   4.793   2.772  1.7775 -1.1936 -0.3531
19127TIP3    H278873   4.697   4.689   2.870 -0.7700 -0.5055  1.7280
19128TIP3   OH278874   6.516   0.945   5.285  0.3505 -0.1240  0.0766
19128TIP3    H178875   6.425   0.932   5.258  0.7032  0.2828 -1.3615
19128TIP3    H278876   6.563   0.872   5.244  0.6416 -0.4231  0.9475
19129TIP3   OH278877   5.606   1.506  14.561  0.3573 -0.5403 -0.3598
19129TIP3    H178878   5.526   1.539  14.601 -0.2027 -2.0823 -0.1517
19129TIP3    H278879   5.577   1.433  14.506  1.5201 -0.5860 -0.9479
19130TIP3   OH278880   6.533   0.736  16.581  0.0406  0.2710  0.4811
19130TIP3    H178881   6.499   0.688  16.505  0.2760  0.8225  0.0230
19130TIP3    H278882   6.455   0.761  16.631 -0.0272 -1.5343  1.3032
19131TIP3   OH278883   5.954   5.678   5.219 -0.5058  0.4125 -0.0228
19131TIP3    H178884   5.989   5.608   5.164  0.4335  0.4062  0.5800
19131TIP3    H278885   5.869   5.645   5.248  0.0473 -0.6054  0.4862
19132TIP3   OH278886   5.079   4.222  12.748  0.3582 -0.3827 -0.5366
19132TIP3    H178887   5.128   4.293  12.789 -0.0145 -0.1416 -0.5150
19132TIP3    H278888   5.019   4.191  12.815 -0.1939 -0.0426 -0.8723
19133TIP3   OH278889   0.795   6.048  13.363  0.6253 -0.3029 -0.2937
19133TIP3    H178890   0.736   6.024  13.434  0.8374 -0.5915 -0.2130
19133TIP3    H278891   0.865   6.097  13.405  0.6048 -0.2296 -0.3458
19134TIP3   OH278892   3.059   0.905  16.732 -0.6437  0.4342  0.1377
19134TIP3    H178893   2.969   0.932  16.711 -0.8165 -0.1772  0.0888
19134TIP3    H278894   3.111   0.935  16.658 -1.4567 -2.9126 -1.8727
19135TIP3   OH278895   3.465   2.291  15.851 -0.7468 -0.0397 -0.1754
19135TIP3    H178896   3.399   2.267  15.786 -1.0539 -1.0135  0.4822
19135TIP3    H278897   3.537   2.230  15.836 -1.2983 -1.0349  1.1490
19136TIP3   OH278898   4.219   1.467  13.320 -0.2016 -0.5055 -0.0058
19136TIP3    H178899   4.293   1.524  13.340 -1.2948  0.9243  0.1174
19136TIP3    H278900   4.190   1.435  13.406 -1.8983  1.7886  0.3487
19137TIP3   OH278901   1.527   6.153  13.778  0.3799 -0.3511  0.2755
19137TIP3    H178902   1.546   6.245  13.757  1.2859 -0.6263 -0.1754
19137TIP3    H278903   1.611   6.109  13.766 -0.2256 -1.3718 -0.2784
19138TIP3   OH278904   6.800   4.771  13.275 -0.6877  0.5436  0.3113
19138TIP3    H178905   6.878   4.759  13.222  0.3112  0.2531  1.8036
19138TIP3    H278906   6.803   4.864  13.299 -0.6217  0.4581  0.6341
19139TIP3   OH278907   6.316   6.153   5.580  0.0338  0.6691 -0.1306
19139TIP3    H178908   6.366   6.168   5.660 -0.2756 -0.5643  0.3066
19139TIP3    H278909   6.342   6.225   5.522 -0.7023  2.3030  1.5162
19140TIP3   OH278910   6.203   5.459   0.763  0.2181 -0.3092  0.0426
19140TIP3    H178911   6.264   5.529   0.737 -1.5918  0.8763 -1.1605
19140TIP3    H278912   6.222   5.387   0.702 -0.6355  0.6445 -1.3909
19141TIP3   OH278913   0.458   2.024  11.079 -0.1681 -0.2000 -0.1017
19141TIP3    H178914   0.549   2.046  11.063 -0.1586  0.1456  0.4481
19141TIP3    H278915   0.431   2.081  11.151 -0.1649 -1.8926  1.2668
19142TIP3   OH278916   5.845   2.176  12.847  0.8108  0.2339  0.2734
19142TIP3    H178917   5.756   2.158  12.878  0.6059 -0.6729 -0.8291
19142TIP3    H278918   5.849   2.271  12.839 -1.0479  0.1174 -2.5376
19143TIP3   OH278919   0.993   0.022  12.222 -0.0222  0.1822  0.4070
19143TIP3    H178920   0.957  -0.049  12.168  0.1030  0.7792 -0.4728
19143TIP3    H278921   1.088   0.008  12.220 -0.0285  0.0984  0.6331
19144TIP3   OH278922   4.192   0.887   5.204 -0.5580 -0.0331 -0.4377
19144TIP3    H178923   4.127   0.949   5.170 -0.1879 -0.1180 -1.3266
19144TIP3    H278924   4.274   0.914   5.161  0.0703  0.3173  0.9622
19145TIP3   OH278925   5.541   0.562   3.168  0.6129 -0.2543 -0.0785
19145TIP3    H178926   5.519   0.655   3.161  1.1640 -0.1620 -0.7203
19145TIP3    H278927   5.561   0.536   3.078  3.4550 -0.2306  0.5069
19146TIP3   OH278928   6.124   0.099   4.629  0.2668 -0.0854  0.1030
19146TIP3    H178929   6.071   0.114   4.707  0.9573  1.0653  0.3616
19146TIP3    H278930   6.061   0.076   4.560 -0.5321  0.9204  0.4930
19147TIP3   OH278931   5.530   3.376  11.728  0.1660 -0.2291  0.0540
19147TIP3    H178932   5.503   3.383  11.819  0.2820  2.2553 -0.0699
19147TIP3    H278933   5.618   3.338  11.732  0.9407  1.5955  1.1213
19148TIP3   OH278934   4.077   6.581   1.177 -0.8215 -0.1168  0.0180
19148TIP3    H178935   4.139   6.535   1.233 -1.0680  0.5643  0.8646
19148TIP3    H278936   4.083   6.537   1.092  0.3571 -0.4485  0.2682
19149TIP3   OH278937   3.517   3.575  16.668  0.0943  0.1585  0.2556
19149TIP3    H178938   3.498   3.611  16.582  2.1263 -0.7265 -0.5975
19149TIP3    H278939   3.580   3.637  16.706  0.1310 -0.1017  0.6236
19150TIP3   OH278940   2.932   4.233   3.429  0.3545  0.2808  0.5697
19150TIP3    H178941   2.860   4.243   3.366  1.7552  0.8663 -1.0001
19150TIP3    H278942   2.967   4.322   3.439  0.6911  0.0428  1.4986
19151TIP3   OH278943   5.447   1.650   0.903 -0.0595  0.0933  0.3461
19151TIP3    H178944   5.471   1.675   0.992 -0.4190  1.0907  0.1617
19151TIP3    H278945   5.524   1.668   0.850 -0.5753  1.5567  0.0781
19152TIP3   OH278946   4.321   3.685  12.877 -0.1925 -0.3758 -0.0722
19152TIP3    H178947   4.272   3.646  12.949 -0.9225 -0.3532 -0.5559
19152TIP3    H278948   4.255   3.705  12.811  0.4750 -0.4093 -0.7566
19153TIP3   OH278949   4.762   1.264  11.160 -0.7903  0.2169 -0.2691
19153TIP3    H178950   4.835   1.304  11.207 -1.8610 -0.6372  2.1561
19153TIP3    H278951   4.697   1.333  11.152 -0.8745  0.1806  0.0960
19154TIP3   OH278952   1.422   3.462   2.230 -0.1864  0.1087  0.4093
19154TIP3    H178953   1.376   3.435   2.310  0.3544 -1.7479  0.1173
19154TIP3    H278954   1.416   3.387   2.172 -1.5314  1.8413 -1.7536
19155TIP3   OH278955   0.131   0.722   2.761 -0.1714  0.6155  0.4836
19155TIP3    H178956   0.097   0.811   2.753 -1.0531  0.2529  0.0958
19155TIP3    H278957   0.140   0.708   2.856 -0.9464  0.7834  0.5869
19156TIP3   OH278958   6.247   5.690  12.305  0.4060 -0.0824  0.1336
19156TIP3    H178959   6.321   5.739  12.341  0.2028  0.8488 -0.6689
19156TIP3    H278960   6.287   5.625  12.247  0.7110 -1.3359  1.7229
19157TIP3   OH278961   2.749   2.428   3.984 -0.2161 -0.0735 -0.1012
19157TIP3    H178962   2.820   2.470   3.935 -0.9143  1.4627  0.1847
19157TIP3    H278963   2.714   2.363   3.923 -0.6296  1.3540 -1.4295
19158TIP3   OH278964   5.605   2.251  13.283  0.2222 -0.1266 -0.3933
19158TIP3    H178965   5.573   2.309  13.352  0.6291  1.6012 -1.6303
19158TIP3    H278966   5.531   2.193  13.266 -0.5187  0.6036  0.2527
19159TIP3   OH278967   3.647   2.694  13.880 -0.2208 -0.1687 -0.3261
19159TIP3    H178968   3.675   2.603  13.885  0.9766  0.3026  3.2295
19159TIP3    H278969   3.551   2.689  13.879 -0.2486 -1.4657  2.5805
19160TIP3   OH278970   4.225   4.633   5.085  0.2423  0.1137 -0.8765
19160TIP3    H178971   4.174   4.564   5.042  1.4332 -0.3373 -1.5763
19160TIP3    H278972   4.206   4.621   5.179 -1.2636  0.2212 -1.1605
19161TIP3   OH278973   4.565   2.889  11.704  0.4715 -0.1255 -0.3319
19161TIP3    H178974   4.615   2.854  11.777 -1.4520 -1.5461  0.3499
19161TIP3    H278975   4.560   2.817  11.641  1.3901  0.8121 -1.5086
19162TIP3   OH278976   1.657   1.012  11.410  0.2128  0.1187 -0.0895
19162TIP3    H178977   1.680   0.925  11.376 -0.6551 -0.0119 -0.3554
19162TIP3    H278978   1.589   0.995  11.476 -1.3666  0.7401 -1.5086
19163TIP3   OH278979   5.987   3.492  11.202 -0.3965 -0.0144  0.3705
19163TIP3    H178980   5.938   3.440  11.266 -1.4890 -1.3127 -1.4665
19163TIP3    H278981   6.068   3.516  11.247 -0.9811 -1.2261  2.1095
19164TIP3   OH278982   1.662   0.599   0.319  0.1826 -0.5775 -0.2068
19164TIP3    H178983   1.680   0.513   0.358  0.0117 -0.0773  1.0072
19164TIP3    H278984   1.574   0.592   0.283  0.6087 -1.2661 -1.1397
19165TIP3   OH278985   5.561   2.795  12.051 -0.1318  0.1219 -0.4536
19165TIP3    H178986   5.488   2.831  12.102  1.4785  1.5240  0.9255
19165TIP3    H278987   5.638   2.841  12.084  1.6076 -2.4831 -0.7749
19166TIP3   OH278988   2.804   3.417   4.905  0.3935 -0.1132  0.6170
19166TIP3    H178989   2.884   3.364   4.905  0.0769 -0.6149 -0.5049
19166TIP3    H278990   2.834   3.506   4.886  0.6836 -0.3093  0.1412
19167TIP3   OH278991   2.974   2.401   1.805 -0.6566  0.1491 -0.1037
19167TIP3    H178992   2.904   2.432   1.863 -0.7627  1.2835 -0.8347
19167TIP3    H278993   2.950   2.310   1.786 -0.3152 -0.4185  2.0872
19168TIP3   OH278994   0.988   3.357   6.595 -0.6318  0.4415  0.4286
19168TIP3    H178995   0.989   3.332   6.503 -0.7583  0.1351  0.5089
19168TIP3    H278996   1.027   3.444   6.597 -0.3274  0.3104  0.1263
19169TIP3   OH278997   5.946   1.318   3.081  0.2687 -0.1155  0.0435
19169TIP3    H178998   5.856   1.332   3.112  0.1845  0.3525 -0.4089
19169TIP3    H278999   5.993   1.287   3.158 -0.2021 -0.0342  0.3681
19170TIP3   OH279000   2.139   5.676   3.486 -0.4137 -0.3493  0.0948
19170TIP3    H179001   2.135   5.737   3.412  0.7783  0.0838  0.3772
19170TIP3    H279002   2.048   5.649   3.499 -0.6486 -0.3443 -1.4551
19171TIP3   OH279003   0.402   6.426   6.002 -0.2686 -0.0720  0.0636
19171TIP3    H179004   0.420   6.340   6.040  0.1387  0.4868  1.1891
19171TIP3    H279005   0.485   6.453   5.964  0.7159  1.4413  3.0815
19172TIP3   OH279006   4.451   6.558   4.663  0.2334  0.2303  0.4769
19172TIP3    H179007   4.356   6.558   4.657  0.2307 -1.5191 -0.0113
19172TIP3    H279008   4.479   6.625   4.601 -0.6094 -1.3978 -1.7501
19173TIP3   OH279009   0.460   5.423   3.797 -0.3231 -0.1949  0.8658
19173TIP3    H179010   0.500   5.414   3.884  1.3415  1.5142  0.3215
19173TIP3    H279011   0.371   5.451   3.815  0.7980  2.8693  2.0436
19174TIP3   OH279012   2.330   3.987   3.095  0.3750 -0.2690 -0.0697
19174TIP3    H179013   2.399   3.988   3.162 -1.9660 -1.7108  2.4668
19174TIP3    H279014   2.273   4.059   3.120  0.0981 -0.0905 -1.2248
19175TIP3   OH279015   0.023   0.618  16.148 -0.0600  0.2505 -0.4549
19175TIP3    H179016   0.078   0.650  16.077  0.7650 -0.4762 -0.1525
19175TIP3    H279017  -0.013   0.535  16.115 -2.1161  1.3975 -1.2054
19176TIP3   OH279018   0.739   6.273   3.191 -0.3378  0.3756 -0.0097
19176TIP3    H179019   0.800   6.307   3.257 -0.7009 -1.6675  1.4463
19176TIP3    H279020   0.717   6.185   3.223 -0.9877 -0.4252 -2.5684
19177TIP3   OH279021   4.873   1.828   5.041 -0.3819 -0.5664 -0.3123
19177TIP3    H179022   4.918   1.822   4.957 -0.7838 -1.5335 -0.4516
19177TIP3    H279023   4.781   1.843   5.019 -0.3743 -0.0613 -0.0301
19178TIP3   OH279024   6.266   5.641   3.188 -0.3354  0.4321  0.1666
19178TIP3    H179025   6.308   5.716   3.145 -2.2958  1.1390 -0.5617
19178TIP3    H279026   6.242   5.673   3.275  1.3324 -0.2269  0.8972
19179TIP3   OH279027   5.159   3.506  15.082 -0.1315 -0.0031 -0.1313
19179TIP3    H179028   5.237   3.513  15.137  0.2336  2.4722 -0.8879
19179TIP3    H279029   5.160   3.416  15.050  2.1120 -0.1739  0.3356
19180TIP3   OH279030   3.122   3.296  14.127 -0.2047  0.5290  0.2214
19180TIP3    H179031   3.116   3.389  14.104 -0.3309  0.3250 -0.5898
19180TIP3    H279032   3.103   3.294  14.221 -0.3544  1.3079  0.2187
19181TIP3   OH279033   5.824   0.483   4.234 -0.5008  0.8521  0.5831
19181TIP3    H179034   5.766   0.468   4.309  0.6977  1.4048  1.6343
19181TIP3    H279035   5.912   0.488   4.272  0.5140 -2.1131 -1.2285
19182TIP3   OH279036   6.015   1.097  17.134  0.4989  0.1633  0.5261
19182TIP3    H179037   6.075   1.156  17.088 -0.8242  0.8943 -0.3116
19182TIP3    H279038   6.008   1.134  17.222 -0.7117  1.5918 -0.1365
19183TIP3   OH279039   3.637   2.847   4.555  0.7364 -0.3304  0.5556
19183TIP3    H179040   3.597   2.906   4.618  1.3670  0.4020  0.2753
19183TIP3    H279041   3.731   2.856   4.569  0.8539 -0.8831  0.1626
19184TIP3   OH279042   4.797   5.940   0.967 -0.1057 -0.2258 -0.1118
19184TIP3    H179043   4.830   5.911   0.881 -0.3291 -0.2124 -0.2045
19184TIP3    H279044   4.726   6.001   0.945  1.4445  1.6982  0.0774
19185TIP3   OH279045   5.369   4.741   1.561 -0.2544 -0.2457  0.0338
19185TIP3    H179046   5.410   4.691   1.632 -3.4733  0.2617  2.3813
19185TIP3    H279047   5.410   4.828   1.567 -0.2943 -0.2861  1.1049
19186TIP3   OH279048   2.531   5.574  13.188 -0.5897  0.8349  0.7787
19186TIP3    H179049   2.567   5.502  13.240 -1.3918  0.0157  0.2058
19186TIP3    H279050   2.605   5.605  13.136 -0.3107  0.2232  0.8047
19187TIP3   OH279051   1.323   5.779   5.685 -0.6439 -0.6264 -0.0960
19187TIP3    H179052   1.405   5.824   5.665 -1.6282  0.6520 -1.3197
19187TIP3    H279053   1.348   5.686   5.690  0.3289 -0.6386 -3.6885
19188TIP3   OH279054   4.595   3.020  14.487 -0.4279  0.1925  0.2275
19188TIP3    H179055   4.644   3.098  14.459  0.9526 -0.4290  0.8808
19188TIP3    H279056   4.629   2.949  14.433 -1.1885 -0.1059  0.1303
19189TIP3   OH279057   5.244   3.593   5.613 -0.2057  0.3496  0.4200
19189TIP3    H179058   5.331   3.572   5.581 -0.4078 -1.0304  0.7709
19189TIP3    H279059   5.258   3.629   5.700 -0.0094 -0.0401  0.5469
19190TIP3   OH279060   4.031   5.842   5.673  0.3402 -0.2265 -0.8686
19190TIP3    H179061   4.121   5.821   5.649  1.4177  2.9386  0.1443
19190TIP3    H279062   3.996   5.889   5.597  0.4034  0.8049 -0.2697
19191TIP3   OH279063   5.629   0.679   4.111  0.6174  0.8839 -0.5158
19191TIP3    H179064   5.664   0.590   4.114 -0.0727  0.6067 -0.5954
19191TIP3    H279065   5.605   0.693   4.019  0.2824  0.9766 -0.4164
19192TIP3   OH279066   5.671   3.997  12.436 -0.3277 -0.3190  0.5073
19192TIP3    H179067   5.730   4.043  12.496  0.5001  1.2993 -1.4881
19192TIP3    H279068   5.697   3.906  12.442 -0.0849 -0.1395  2.4159
19193TIP3   OH279069   3.551   4.563   2.547  0.3420 -0.2320 -0.0606
19193TIP3    H179070   3.550   4.468   2.540  0.4202 -0.3057  0.8784
19193TIP3    H279071   3.497   4.582   2.624  0.5696  0.4623 -0.0671
19194TIP3   OH279072   4.997   4.782   5.119 -0.7585 -0.1509  0.2799
19194TIP3    H179073   4.967   4.693   5.103 -0.2533 -0.1829 -0.5647
19194TIP3    H279074   4.938   4.837   5.067 -1.1770  0.0186  0.9362
19195TIP3   OH279075   2.236   1.439  15.908 -0.0404  0.2465 -0.2892
19195TIP3    H179076   2.155   1.415  15.864 -0.5265  1.7692 -0.2609
19195TIP3    H279077   2.298   1.456  15.837  0.4524 -1.5174 -0.3029
19196TIP3   OH279078   4.467   1.112   6.728 -0.2188 -0.3826  0.0708
19196TIP3    H179079   4.398   1.177   6.721 -1.2854 -1.6366 -1.4397
19196TIP3    H279080   4.475   1.075   6.640  0.5432 -2.1152  0.8287
19197TIP3   OH279081   2.761   4.930   6.453  0.0101  0.3218  0.3670
19197TIP3    H179082   2.720   4.901   6.371 -0.4513 -0.5976  0.9244
19197TIP3    H279083   2.786   5.021   6.435  0.0147  0.1023 -0.8363
19198TIP3   OH279084   5.801   4.476  11.452 -0.1212  0.2509  0.4302
19198TIP3    H179085   5.732   4.413  11.474 -1.5917  1.2330 -1.1557
19198TIP3    H279086   5.766   4.523  11.376  2.4975  0.5096 -0.6484
19199TIP3   OH279087   4.969   2.841   5.903 -0.3235  0.2235  0.1664
19199TIP3    H179088   4.926   2.779   5.845 -0.1541  0.1256  0.1460
19199TIP3    H279089   4.897   2.885   5.949 -0.3684 -2.1511  2.4607
19200TIP3   OH279090   2.340   6.584  12.198  0.3127  0.3372  0.0808
19200TIP3    H179091   2.397   6.617  12.268  0.7769 -0.7063  0.2136
19200TIP3    H279092   2.394   6.588  12.119  0.3688 -0.0799  0.0953
19201TIP3   OH279093   5.204   4.320   0.417  0.5430 -0.0032 -0.0801
19201TIP3    H179094   5.224   4.253   0.482 -0.0982 -0.7832 -0.6770
19201TIP3    H279095   5.122   4.290   0.377  1.4869 -0.0915 -1.9826
19202TIP3   OH279096   5.887   1.830   6.124 -0.1338  0.6677 -0.2673
19202TIP3    H179097   5.969   1.795   6.159 -0.3731 -0.6351 -0.9898
19202TIP3    H279098   5.912   1.912   6.081  1.0011 -0.3168 -1.5329
19203TIP3   OH279099   0.488   4.563   1.425  0.4710  0.4166  0.0941
19203TIP3    H179100   0.464   4.557   1.333  1.9175  1.8303 -0.3857
19203TIP3    H279101   0.459   4.650   1.452  2.6408  1.1355  0.1936
19204TIP3   OH279102   1.414   2.314   4.395  0.0493 -0.3355 -0.1566
19204TIP3    H179103   1.366   2.397   4.402  0.4376 -0.0218 -1.0731
19204TIP3    H279104   1.502   2.334   4.427  0.2495 -0.2912 -0.7219
19205TIP3   OH279105   6.288   3.424  14.710  0.0300  0.0246 -0.3493
19205TIP3    H179106   6.196   3.430  14.684  0.2929 -0.4138 -1.3919
19205TIP3    H279107   6.315   3.515  14.721 -0.2306  0.1944 -1.0900
19206TIP3   OH279108   4.834   2.973   3.614  0.1938 -0.0777 -0.2617
19206TIP3    H179109   4.805   3.031   3.543 -0.8044  1.0324  1.0327
19206TIP3    H279110   4.871   2.897   3.569 -3.1940 -0.7963 -1.9859
19207TIP3   OH279111   5.448   1.705   0.576  0.3935  1.0536 -0.0384
19207TIP3    H179112   5.503   1.653   0.518 -0.7929  0.9545 -1.0942
19207TIP3    H279113   5.507   1.772   0.611  2.2496 -1.6760  2.2876
19208TIP3   OH279114   0.610   6.088  12.728  0.1321 -0.1189  0.0236
19208TIP3    H179115   0.615   6.181  12.704  0.5965 -0.1419  0.0218
19208TIP3    H279116   0.701   6.059  12.728 -0.2504 -1.4730 -3.4752
19209TIP3   OH279117   0.942   4.113   0.491  0.2634 -0.0044  0.6213
19209TIP3    H179118   0.987   4.174   0.433  2.4164 -0.7512  1.4530
19209TIP3    H279119   0.950   4.028   0.448 -1.8073  0.0846 -0.0181
19210TIP3   OH279120   0.455   5.818   4.926  0.1993 -0.0150 -0.3345
19210TIP3    H179121   0.408   5.901   4.933  1.6516  0.7154  0.9545
19210TIP3    H279122   0.387   5.751   4.938 -0.5240  1.0229  1.6381
19211TIP3   OH279123   4.960   1.798   0.395 -0.4913  0.2243 -0.3257
19211TIP3    H179124   5.008   1.729   0.349 -1.7333 -1.1343  0.3697
19211TIP3    H279125   5.020   1.828   0.464  0.4799  0.6374 -1.3491
19212TIP3   OH279126   2.641   5.326  15.710  0.0587  0.0179  0.3563
19212TIP3    H179127   2.669   5.236  15.727 -0.7417 -0.2146  0.4937
19212TIP3    H279128   2.642   5.368  15.796  0.8673  0.2682  0.2246
19213TIP3   OH279129   0.838   0.201   2.510  0.2469 -0.2174  0.4262
19213TIP3    H179130   0.883   0.245   2.583  0.7098  0.5801 -0.3289
19213TIP3    H279131   0.791   0.271   2.465  0.1753 -0.6614 -0.2017
19214TIP3   OH279132   6.654   1.267  14.078 -0.2075 -0.7436 -0.2431
19214TIP3    H179133   6.581   1.270  14.016 -0.2158 -1.6646 -0.2820
19214TIP3    H279134   6.710   1.195  14.047  0.1898 -0.7100  0.3710
19215TIP3   OH279135   0.258   1.691  16.670  0.1841 -0.2419  0.3201
19215TIP3    H179136   0.284   1.745  16.745  2.3011 -1.0249  0.1769
19215TIP3    H279137   0.211   1.617  16.708  2.5833 -1.4451  1.0643
19216TIP3   OH279138   2.561   6.487   1.505 -0.3204  0.3528  0.6855
19216TIP3    H179139   2.596   6.410   1.461 -1.3897 -0.1013  0.6057
19216TIP3    H279140   2.615   6.560   1.475  1.3998 -0.5142  1.5959
19217TIP3   OH279141   0.187   3.728   5.754  0.6127  0.3057 -0.2437
19217TIP3    H179142   0.146   3.800   5.706  1.8437  1.2277  0.0437
19217TIP3    H279143   0.258   3.770   5.804  1.0958 -1.0473  0.2417
19218TIP3   OH279144   0.527   0.771   2.946  0.0709 -0.6637  0.0856
19218TIP3    H179145   0.533   0.690   2.997 -2.2619 -0.4440  0.7673
19218TIP3    H279146   0.608   0.818   2.966  0.1594 -1.5481  1.9362
19219TIP3   OH279147   6.816   5.929  13.111 -0.0210  0.0300 -0.3736
19219TIP3    H179148   6.843   5.954  13.199 -2.3014  1.3471  0.0020
19219TIP3    H279149   6.876   5.975  13.053  0.9820 -0.2075  0.4599
19220TIP3   OH279150   1.082   4.404  14.677 -0.3109 -0.2042  0.4140
19220TIP3    H179151   1.154   4.451  14.634  0.3926 -0.0883  1.6970
19220TIP3    H279152   1.007   4.463  14.669  0.6425  1.3131  2.3012
19221TIP3   OH279153   4.594   2.832   0.949  0.3783  0.3742  0.3863
19221TIP3    H179154   4.627   2.744   0.929 -0.6502  0.1864 -0.5355
19221TIP3    H279155   4.643   2.890   0.891 -0.9230  0.0899 -1.0191
19222TIP3   OH279156   0.507   0.352   1.318  0.1220  0.2416 -0.2651
19222TIP3    H179157   0.595   0.367   1.352  0.3328  0.3143 -0.8231
19222TIP3    H279158   0.480   0.437   1.282 -0.3932  0.3593  0.3825
19223TIP3   OH279159   4.688   4.927   3.185  0.9650 -0.4049  0.7792
19223TIP3    H179160   4.711   4.981   3.261  0.2122 -0.5056  1.0790
19223TIP3    H279161   4.725   4.975   3.110  1.8335 -0.3790  1.2132
19224TIP3   OH279162   1.556   4.951   1.387 -0.9696 -0.0200 -0.1018
19224TIP3    H179163   1.619   4.968   1.457  0.3515 -0.8424 -1.0840
19224TIP3    H279164   1.506   4.875   1.418 -2.1843  1.2507  1.1314
19225TIP3   OH279165   0.395   4.080  15.063  0.1228 -0.0677 -0.1902
19225TIP3    H179166   0.426   4.033  15.140  2.1853 -0.7564 -1.4102
19225TIP3    H279167   0.320   4.028  15.033  1.7640 -2.0733 -0.9502
19226TIP3   OH279168   2.690   6.734  11.946  0.2966  0.9767  0.3701
19226TIP3    H179169   2.724   6.744  11.857 -0.6447 -0.4796 -0.1808
19226TIP3    H279170   2.727   6.652  11.977 -0.9952  0.4563  0.5545
19227TIP3   OH279171   3.096   5.653  13.206  0.4510  0.1173 -0.5323
19227TIP3    H179172   3.064   5.732  13.162 -0.5969 -0.9574 -1.7518
19227TIP3    H279173   3.085   5.672  13.299 -2.5540  0.3361 -0.8661
19228TIP3   OH279174   4.216   3.145   2.744 -0.3821  0.5895  0.0363
19228TIP3    H179175   4.179   3.210   2.804 -1.0535  0.1456  0.1105
19228TIP3    H279176   4.162   3.152   2.666 -1.7135 -1.2436  0.7709
19229TIP3   OH279177   5.764   6.124  15.587  0.2548  0.0952 -0.0104
19229TIP3    H179178   5.726   6.157  15.506 -0.6456 -0.3554  0.2160
19229TIP3    H279179   5.688   6.101  15.641  0.8377 -1.7762  0.0564
19230TIP3   OH279180   2.868   2.630  13.852  0.0510  0.0185  0.4151
19230TIP3    H179181   2.867   2.713  13.805 -2.7461 -0.5493 -0.5964
19230TIP3    H279182   2.915   2.570  13.794  0.7476  0.5028  0.4741
19231TIP3   OH279183   5.448   6.352   2.692 -0.4502 -0.3599 -0.2576
19231TIP3    H179184   5.543   6.358   2.679 -0.6340  2.2541 -0.7019
19231TIP3    H279185   5.425   6.434   2.736 -2.6258 -0.6375 -0.8462
19232TIP3   OH279186   6.212   5.871   3.939  0.4687  0.1305  0.0832
19232TIP3    H179187   6.129   5.869   3.891  1.5687 -0.7558 -1.8849
19232TIP3    H279188   6.271   5.921   3.882  1.2611  0.8216  1.4896
19233TIP3   OH279189   0.544   6.746   2.841 -0.4795  0.1666  0.1439
19233TIP3    H179190   0.623   6.772   2.793  0.1437  1.3474  1.7533
19233TIP3    H279191   0.575   6.680   2.903 -0.9300  0.0042  0.1983
19234TIP3   OH279192   4.014   3.091  10.946 -0.0736 -0.2713 -0.3258
19234TIP3    H179193   3.922   3.107  10.963 -0.0780 -0.2460 -0.3738
19234TIP3    H279194   4.044   3.039  11.021  0.5339  2.0471  1.0930
19235TIP3   OH279195   6.010   4.553   5.983  0.1953  0.0233  0.2576
19235TIP3    H179196   6.055   4.474   6.011  1.9201  0.4734 -1.1610
19235TIP3    H279197   6.057   4.624   6.026 -0.1323  0.3950  0.0051
19236TIP3   OH279198   4.610   0.902  12.493 -0.1428 -0.0315 -0.2449
19236TIP3    H179199   4.648   0.964  12.431  0.4379 -0.6477 -0.5114
19236TIP3    H279200   4.524   0.881  12.457  0.4336 -0.8474 -1.1559
19237TIP3   OH279201   5.381   1.971  15.301  0.8302  0.8493 -1.2607
19237TIP3    H179202   5.433   2.050  15.315  1.4144  0.0853  1.1388
19237TIP3    H279203   5.428   1.923  15.234  1.9399  1.2942 -0.8154
19238TIP3   OH279204   4.626   4.118  16.408  0.1087  0.0313 -0.1158
19238TIP3    H179205   4.555   4.133  16.346  0.6675 -0.4599 -0.8784
19238TIP3    H279206   4.686   4.191  16.394 -0.4583  0.6924  0.8414
19239TIP3   OH279207   6.543   5.204   1.509  0.3812  0.1694  0.5489
19239TIP3    H179208   6.597   5.137   1.468 -0.2068 -0.1615  0.3113
19239TIP3    H279209   6.485   5.234   1.439  0.4133  0.6895  0.7411
19240TIP3   OH279210   4.255   6.070   5.583 -0.4198  0.2781  0.2367
19240TIP3    H179211   4.279   6.110   5.499 -1.7904  0.1945 -0.2221
19240TIP3    H279212   4.336   6.031   5.616  0.5625  2.0099 -0.1042
19241TIP3   OH279213   0.473   5.338  16.424 -0.5961  0.2603  0.3677
19241TIP3    H179214   0.548   5.365  16.370 -0.3956 -1.5784 -0.3097
19241TIP3    H279215   0.505   5.262  16.473 -1.5899  0.3317  1.1381
19242TIP3   OH279216   5.248   3.217   4.616  0.6702  0.1876  0.1617
19242TIP3    H179217   5.292   3.182   4.694  0.9324  0.6054  0.2082
19242TIP3    H279218   5.213   3.141   4.571  1.5654 -0.1694  0.0558
19243TIP3   OH279219   0.842   3.918   1.905  0.1850 -0.3604  0.3306
19243TIP3    H179220   0.769   3.856   1.900 -0.4406 -0.0130  3.7040
19243TIP3    H279221   0.899   3.882   1.973  0.9249  1.5918  0.7753
19244TIP3   OH279222   0.721   0.465   0.778 -0.5077  0.3248  0.2871
19244TIP3    H179223   0.697   0.401   0.845  0.7690 -1.9268 -1.3440
19244TIP3    H279224   0.814   0.483   0.794 -0.3083  0.1062 -0.5804
19245TIP3   OH279225   6.533   0.575  15.732 -0.4156 -0.1616 -0.2585
19245TIP3    H179226   6.554   0.538  15.646 -0.3772 -0.2579 -0.2077
19245TIP3    H279227   6.467   0.515  15.768 -1.1730  0.4415 -0.6405
19246TIP3   OH279228   2.269   5.155  17.223 -0.0563  0.0684  0.0776
19246TIP3    H179229   2.335   5.119  17.282 -0.2162 -0.2056  0.0907
19246TIP3    H279230   2.271   5.097  17.146 -1.0340 -0.5814  0.5367
19247TIP3   OH279231   4.786   1.854  16.081 -0.3953 -0.0164 -0.2442
19247TIP3    H179232   4.805   1.947  16.070  1.2501 -0.2954  0.0997
19247TIP3    H279233   4.731   1.850  16.159 -1.3614  0.7537 -0.8692
19248TIP3   OH279234   2.788   1.336  13.888 -0.9381  0.0304 -0.2576
19248TIP3    H179235   2.790   1.311  13.796  2.0484  1.7280 -0.6920
19248TIP3    H279236   2.728   1.411  13.891 -0.1019  0.7453 -1.0449
19249TIP3   OH279237   2.136   0.608   4.561  0.1906  0.2955 -0.4453
19249TIP3    H179238   2.180   0.570   4.637  0.3041  0.1248 -0.5955
19249TIP3    H279239   2.065   0.660   4.598 -0.3570 -0.5635 -0.2551
19250TIP3   OH279240   1.186   6.204   2.713  0.5445 -0.1518  0.2056
19250TIP3    H179241   1.247   6.230   2.644  1.3542 -2.1852  0.0965
19250TIP3    H279242   1.124   6.146   2.669  0.6061 -0.8466  1.0241
19251TIP3   OH279243   2.640   5.468   4.910  0.3027  0.6203 -0.1091
19251TIP3    H179244   2.697   5.404   4.867  1.3883  0.6339  1.3108
19251TIP3    H279245   2.695   5.545   4.922 -0.3034  0.9774  0.3768
19252TIP3   OH279246   2.910   5.576   3.049  0.1656  0.3722 -0.4665
19252TIP3    H179247   2.939   5.498   3.002  1.2098  1.1658 -1.1557
19252TIP3    H279248   2.938   5.650   2.994  0.8185  1.2920  1.0608
19253TIP3   OH279249   4.789   6.027  14.780 -0.0732  1.2559  0.3783
19253TIP3    H179250   4.742   5.962  14.832 -0.8462  2.3780  1.1264
19253TIP3    H279251   4.808   6.097  14.843 -1.6558  2.9671 -0.9784
19254TIP3   OH279252   0.464   5.032   1.673 -0.2542  0.2193  0.0443
19254TIP3    H179253   0.535   4.985   1.717 -0.6022  0.4652  0.8723
19254TIP3    H279254   0.390   5.025   1.733 -1.1299 -0.6154 -1.1076
19255TIP3   OH279255   1.848   1.491   3.602 -0.0127 -0.1495  0.3789
19255TIP3    H179256   1.810   1.499   3.515  0.2305 -0.1689  0.2691
19255TIP3    H279257   1.803   1.416   3.641 -0.5505  0.2310  0.4952
19256TIP3   OH279258   5.703   4.053   2.834  0.9467  0.0272  0.7386
19256TIP3    H179259   5.727   3.986   2.898 -1.0428 -0.8413  0.6083
19256TIP3    H279260   5.747   4.025   2.753 -1.1400 -2.0261  0.2646
19257TIP3   OH279261   3.269   5.454  11.510  0.3080  0.2539 -0.2549
19257TIP3    H179262   3.177   5.472  11.528  0.3914 -0.6921  1.1520
19257TIP3    H279263   3.284   5.366  11.544  1.6055  0.1944 -0.9365
19258TIP3   OH279264   3.125   0.498  12.240 -0.2587  0.0827 -0.1926
19258TIP3    H179265   3.209   0.512  12.198 -0.0027  0.0100  0.2886
19258TIP3    H279266   3.088   0.422  12.197  0.8834 -1.2016  1.0615
19259TIP3   OH279267   0.377   2.020  13.358  0.6373  0.3621  0.1259
19259TIP3    H179268   0.289   2.058  13.358  1.2141  1.7538 -0.3142
19259TIP3    H279269   0.383   1.974  13.274 -0.2762 -1.2256  0.9171
19260TIP3   OH279270   3.124   1.584  16.397  0.8646 -0.8487 -0.5306
19260TIP3    H179271   3.131   1.599  16.492  1.3639 -0.7556 -0.5798
19260TIP3    H279272   3.033   1.560  16.383  0.2463  1.3616 -0.3393
19261TIP3   OH279273   5.714   0.789   5.950 -0.2342  0.0547  0.6234
19261TIP3    H179274   5.790   0.840   5.921  0.0310 -0.3456  0.6186
19261TIP3    H279275   5.745   0.743   6.028  0.0646 -1.4852 -0.3867
19262TIP3   OH279276   5.242   0.995  11.270 -0.5825 -0.2671  0.0251
19262TIP3    H179277   5.178   0.997  11.341 -1.8271  1.2499 -1.0918
19262TIP3    H279278   5.192   0.964  11.194 -0.0245  0.9753 -0.8616
19263TIP3   OH279279   1.124   6.473  14.308  0.4085 -0.1573 -0.5710
19263TIP3    H179280   1.167   6.404  14.257  0.7016  0.0952 -0.6703
19263TIP3    H279281   1.169   6.554  14.282 -0.7632  0.2465 -1.3821
19264TIP3   OH279282   2.980   3.074   4.253  0.0037  0.0679 -0.1632
19264TIP3    H179283   2.937   3.096   4.170  0.9683  1.6653 -0.2577
19264TIP3    H279284   2.966   3.150   4.309 -1.8413 -1.5447  1.6799
19265TIP3   OH279285   4.856   0.773  16.400  0.2690 -0.3915  0.2820
19265TIP3    H179286   4.886   0.862  16.382  0.1261  0.1498  2.5022
19265TIP3    H279287   4.874   0.761  16.494 -2.4663 -1.6201  0.6832
19266TIP3   OH279288   2.668   2.653  16.705 -0.4056 -0.0675 -0.3078
19266TIP3    H179289   2.604   2.646  16.634 -1.1305  0.9842  0.2219
19266TIP3    H279290   2.748   2.615  16.669 -1.5114 -2.1290 -0.7344
19267TIP3   OH279291   3.568   3.919  16.373  0.6501 -0.7974 -0.2890
19267TIP3    H179292   3.547   3.895  16.283  1.0987 -0.6759 -0.4215
19267TIP3    H279293   3.482   3.931  16.415  0.4446 -0.6268 -0.7565
19268TIP3   OH279294   2.452   0.991  14.590 -0.0403 -0.0242 -0.4232
19268TIP3    H179295   2.405   0.963  14.668 -0.3606 -1.7564 -1.2061
19268TIP3    H279296   2.525   0.929  14.583 -0.0833  0.0426 -1.5600
19269TIP3   OH279297   4.773   2.741  13.299  0.5126  0.1952 -0.3842
19269TIP3    H179298   4.852   2.775  13.343 -0.3070 -1.6330  2.6759
19269TIP3    H279299   4.708   2.809  13.313  0.0159 -0.7259  2.1557
19270TIP3   OH279300   6.203   0.596  15.682 -0.4004  0.2227  0.4981
19270TIP3    H179301   6.258   0.543  15.740  0.1547 -0.9280 -1.0400
19270TIP3    H279302   6.125   0.543  15.667 -1.1768  1.1237  1.3131
19271TIP3   OH279303   6.230   4.637  16.732  0.0384 -0.9401 -0.4475
19271TIP3    H179304   6.143   4.632  16.773 -0.2574 -2.2013 -1.1967
19271TIP3    H279305   6.220   4.700  16.661 -0.0324 -0.4317  0.0093
19272TIP3   OH279306   0.736   0.054   1.494 -0.2306 -0.4983 -0.8255
19272TIP3    H179307   0.773   0.088   1.576 -0.3619  0.3616 -1.1088
19272TIP3    H279308   0.812   0.042   1.437  0.0032 -2.3792 -0.1377
19273TIP3   OH279309   2.713   2.376  12.083 -0.0006 -0.4774 -0.3107
19273TIP3    H179310   2.670   2.294  12.062  0.5438 -0.8763  0.1261
19273TIP3    H279311   2.728   2.372  12.178  1.4831 -0.5841 -0.5435
19274TIP3   OH279312   0.616   1.123  15.140  0.4066 -0.0536  0.4466
19274TIP3    H179313   0.563   1.187  15.189 -1.2072 -1.0873  0.0876
19274TIP3    H279314   0.577   1.122  15.052  0.8267 -1.0544  0.2662
19275TIP3   OH279315   6.502   0.061   1.794  0.1358  0.1385 -0.2236
19275TIP3    H179316   6.511  -0.011   1.731 -0.4830  0.0831 -0.2516
19275TIP3    H279317   6.433   0.116   1.758 -0.1471  0.1662  0.3470
19276TIP3   OH279318   5.096   5.106   1.351 -0.0590  0.2800  0.0216
19276TIP3    H179319   5.133   5.188   1.383 -0.4944  0.2528  0.6024
19276TIP3    H279320   5.077   5.123   1.259 -1.5884  1.3459  0.5132
19277TIP3   OH279321   6.524   6.590  12.966  0.1215  0.1565 -0.3021
19277TIP3    H179322   6.597   6.638  12.928  0.3369  1.1433  1.3269
19277TIP3    H279323   6.553   6.499  12.967  0.4067  0.2259 -1.7710
19278TIP3   OH279324   0.997   3.264   2.299  0.0373  0.3550  0.4044
19278TIP3    H179325   1.019   3.357   2.299 -0.2986  0.4491  2.0692
19278TIP3    H279326   1.060   3.225   2.359  1.5001 -0.8424 -1.8314
19279TIP3   OH279327   3.767   0.140  16.016 -0.5034 -0.1273 -0.6727
19279TIP3    H179328   3.747   0.124  16.108 -0.7365  1.1448 -0.5021
19279TIP3    H279329   3.682   0.143  15.973 -0.4061 -0.4367 -0.8898
19280TIP3   OH279330   5.869   6.289  14.271 -0.4972  0.5298 -0.0102
19280TIP3    H179331   5.928   6.345  14.220 -1.2256  0.1804 -1.2405
19280TIP3    H279332   5.928   6.231  14.320  0.2184  1.2166 -0.0471
19281TIP3   OH279333   2.602   2.697   6.220  0.8707  0.0966 -1.0749
19281TIP3    H179334   2.587   2.693   6.315  0.3340  1.6189 -1.0745
19281TIP3    H279335   2.631   2.787   6.204  3.1353 -0.7883 -2.0763
19282TIP3   OH279336   1.330   0.965   1.614  0.2516 -0.6172  0.0209
19282TIP3    H179337   1.336   0.939   1.706 -0.9511  1.3075  0.6730
19282TIP3    H279338   1.402   1.027   1.602 -0.1861 -0.1287 -0.0797
19283TIP3   OH279339   2.003   3.272   3.038  0.4444  0.1494  0.6595
19283TIP3    H179340   1.976   3.331   3.108  2.0921 -0.8619  2.2023
19283TIP3    H279341   2.096   3.292   3.025  0.1274  0.4188 -1.3558
19284TIP3   OH279342   6.603   0.130   3.738 -0.1871  0.1231  0.1764
19284TIP3    H179343   6.522   0.080   3.730  0.3475 -1.1501  2.4819
19284TIP3    H279344   6.671   0.064   3.751  0.6828  1.3823  2.1614
19285TIP3   OH279345   5.086   4.270   3.824  0.3038  0.0826 -0.2016
19285TIP3    H179346   5.105   4.363   3.821 -1.2859  0.4078 -0.3924
19285TIP3    H279347   4.991   4.264   3.830  0.1667 -1.5446 -2.8089
19286TIP3   OH279348   1.405   0.157  16.245 -0.8839 -0.3734  0.0696
19286TIP3    H179349   1.378   0.073  16.208  0.2762 -1.0122  0.6279
19286TIP3    H279350   1.344   0.172  16.317 -0.4930 -1.2342  0.5932
19287TIP3   OH279351   2.590   1.854  13.158  0.6690 -0.0554 -0.1929
19287TIP3    H179352   2.559   1.942  13.141 -1.8626 -0.4505  2.1198
19287TIP3    H279353   2.568   1.804  13.079 -0.3582  0.7575 -0.4245
19288TIP3   OH279354   1.354   2.742  12.743 -0.2661  0.1254 -0.7172
19288TIP3    H179355   1.373   2.662  12.792 -1.1313 -0.2931 -1.0721
19288TIP3    H279356   1.438   2.765  12.702  0.3843  0.2798  0.6415
19289TIP3   OH279357   5.018   2.917  17.251  0.2063  0.4586  0.0990
19289TIP3    H179358   5.093   2.876  17.293 -0.5658 -0.3383  0.7388
19289TIP3    H279359   4.968   2.843  17.216 -0.4003  0.9574 -0.0911
19290TIP3   OH279360   0.444   5.641  14.079  0.8300 -0.5128  0.2122
19290TIP3    H179361   0.468   5.730  14.105 -0.6500  0.2935 -1.0398
19290TIP3    H279362   0.520   5.607  14.032  0.4090  1.1508 -1.7389
19291TIP3   OH279363   0.478   0.621   1.281 -0.7167  0.0456  0.0550
19291TIP3    H179364   0.461   0.625   1.375  2.1730  0.0337  0.6125
19291TIP3    H279365   0.494   0.712   1.256 -0.4408 -0.0778 -0.2180
19292TIP3   OH279366   1.394   2.827  16.820  0.0056 -0.3444  0.3717
19292TIP3    H179367   1.367   2.748  16.866 -0.0307 -1.6916 -1.9154
19292TIP3    H279368   1.444   2.795  16.745 -0.5834  1.7802 -0.9509
19293TIP3   OH279369   5.351   0.366   4.363 -0.1656 -0.3268  0.1618
19293TIP3    H179370   5.337   0.459   4.382 -0.1488 -0.1141 -0.8174
19293TIP3    H279371   5.314   0.354   4.276 -0.8186 -1.4109  0.5855
19294TIP3   OH279372   0.661   2.351   5.703  0.2349  0.7521 -0.2093
19294TIP3    H179373   0.684   2.286   5.637 -1.7571  0.3549 -0.5560
19294TIP3    H279374   0.705   2.431   5.675  1.9967 -0.2118 -0.2606
19295TIP3   OH279375   6.514   2.927   3.868  0.8675 -0.8622  0.0901
19295TIP3    H179376   6.533   2.919   3.961 -0.2813 -1.0505  0.3147
19295TIP3    H279377   6.517   3.022   3.851  0.1703 -0.7607  0.5195
19296TIP3   OH279378   4.569   0.269  14.486  0.2493 -0.2745 -0.6386
19296TIP3    H179379   4.655   0.308  14.471 -0.6822  1.4944 -1.5674
19296TIP3    H279380   4.579   0.177  14.461  1.6676  0.0805 -1.4251
19297TIP3   OH279381   2.149   6.761  17.180 -0.3977 -0.5257 -0.3256
19297TIP3    H179382   2.223   6.822  17.185 -0.6505 -0.2996  0.8843
19297TIP3    H279383   2.087   6.793  17.245 -1.7558 -0.4853 -1.6183
19298TIP3   OH279384   1.939   2.380  16.367  0.3476  0.1321 -0.5052
19298TIP3    H179385   2.006   2.446  16.386  0.1167  0.6717 -1.5713
19298TIP3    H279386   1.953   2.313  16.434 -0.3029  1.8925  1.4450
19299TIP3   OH279387   5.562   6.020  15.722  0.3140  0.2461 -0.0480
19299TIP3    H179388   5.481   6.070  15.711 -1.3940 -1.8116  2.5157
19299TIP3    H279389   5.534   5.928  15.717  2.7467 -0.4791 -0.7552
19300TIP3   OH279390   4.765   4.949  16.054 -0.3213  0.2916 -0.0427
19300TIP3    H179391   4.703   4.916  16.119  0.2480 -0.6977  0.0065
19300TIP3    H279392   4.790   5.035  16.086  0.4346 -0.4355  1.3820
19301TIP3   OH279393   0.343   6.737   3.440 -0.3675  0.0821  0.0935
19301TIP3    H179394   0.325   6.816   3.490  2.2195  0.8392 -0.0950
19301TIP3    H279395   0.419   6.698   3.483 -0.6750 -1.4870 -0.7322
19302TIP3   OH279396   1.672   4.543  15.468  0.0767  0.3973  0.6786
19302TIP3    H179397   1.633   4.602  15.403  1.2446  0.2500 -0.1723
19302TIP3    H279398   1.697   4.465  15.419  1.6282  0.5666  1.1370
19303TIP3   OH279399   0.122   4.873   0.073 -0.2337 -0.0457  0.1705
19303TIP3    H179400   0.098   4.780   0.070 -0.7158  0.0402  1.3629
19303TIP3    H279401   0.062   4.912   0.136  0.0467  1.0613 -0.2355
19304TIP3   OH279402   2.476   3.716   2.436  0.0852 -0.0607 -0.2041
19304TIP3    H179403   2.519   3.632   2.417  0.3072  0.3399 -1.4990
19304TIP3    H279404   2.462   3.714   2.531 -0.9127 -2.0432 -0.3711
19305TIP3   OH279405   3.160   0.382   1.855 -0.4982  0.7004 -0.3043
19305TIP3    H179406   3.194   0.400   1.767 -1.2735  2.8012 -0.2050
19305TIP3    H279407   3.217   0.431   1.914  1.4737 -2.5539  0.6461
19306TIP3   OH279408   4.540   4.273   2.711  0.1057  0.2670  0.4169
19306TIP3    H179409   4.539   4.315   2.797 -0.0706 -0.7918  0.9321
19306TIP3    H279410   4.525   4.180   2.729 -0.8230  0.1646 -0.8180
19307TIP3   OH279411   3.046   4.653  16.501 -0.2116  0.2999 -0.3676
19307TIP3    H179412   2.953   4.637  16.517  0.0575 -0.4724  0.4427
19307TIP3    H279413   3.059   4.744  16.526 -0.6239  0.2350  0.0913
19308TIP3   OH279414   0.330   2.938  11.511  0.3926  0.0367 -0.1470
19308TIP3    H179415   0.392   2.891  11.454  1.4072  0.6926  0.4091
19308TIP3    H279416   0.261   2.967  11.451  1.8417  1.4004 -1.2085
19309TIP3   OH279417   0.898   1.686   1.756 -0.7671  0.0108  0.2217
19309TIP3    H179418   0.813   1.710   1.720 -0.5638 -0.4154 -0.5729
19309TIP3    H279419   0.925   1.609   1.705  0.6440  0.8767 -0.3799
19310TIP3   OH279420   6.301   6.095  11.110 -0.4330  0.3094  0.3003
19310TIP3    H179421   6.229   6.108  11.048 -0.8981  3.7609  1.4602
19310TIP3    H279422   6.258   6.056  11.186 -0.4341 -0.9263 -0.3233
19311TIP3   OH279423   3.078   6.299  12.435 -0.2700  0.0233 -0.4257
19311TIP3    H179424   3.027   6.337  12.506  0.9193  1.3324 -0.2674
19311TIP3    H279425   3.041   6.211  12.425 -0.5249 -0.1601  1.7361
19312TIP3   OH279426   0.338   4.963   5.214  0.6072  0.5463  0.0062
19312TIP3    H179427   0.373   4.922   5.134  1.0798  0.4934  0.2378
19312TIP3    H279428   0.278   4.897   5.250  0.1381  0.7015 -0.4806
19313TIP3   OH279429   6.301   5.958  15.429 -0.3623 -0.1084 -0.1166
19313TIP3    H179430   6.359   6.032  15.410  0.1700 -0.5851 -0.3664
19313TIP3    H279431   6.252   5.984  15.507  0.0359  0.3871 -0.0363
19314TIP3   OH279432   6.415   4.402  13.887 -0.1818 -0.3260  0.2172
19314TIP3    H179433   6.455   4.487  13.867 -0.5896  0.2432  1.7855
19314TIP3    H279434   6.463   4.340  13.832  0.6503  0.7961 -0.3561
19315TIP3   OH279435   4.904   6.216   5.830  0.2436 -0.6982  0.0936
19315TIP3    H179436   4.959   6.217   5.909 -0.3180 -0.4782  0.4811
19315TIP3    H279437   4.959   6.175   5.764  1.2945  0.4904  0.1967
19316TIP3   OH279438   0.701   4.515   3.549 -0.4107 -0.6600  0.2126
19316TIP3    H179439   0.717   4.607   3.529 -2.4149 -0.7544 -2.0042
19316TIP3    H279440   0.772   4.469   3.504 -1.1361 -0.4059 -1.1945
19317TIP3   OH279441   6.451   1.926   0.904 -0.3092  0.9355  0.4711
19317TIP3    H179442   6.482   1.973   0.827 -0.8671  0.1210 -0.2611
19317TIP3    H279443   6.530   1.892   0.946 -0.0475  0.8828 -0.0717
19318TIP3   OH279444   5.643   0.345  15.177  0.0015  0.0935  0.4077
19318TIP3    H179445   5.630   0.436  15.152 -1.0847  0.3792  1.8842
19318TIP3    H279446   5.673   0.301  15.098  1.8467  2.0036  0.0281
19319TIP3   OH279447   5.452   0.748  11.320  0.9090 -0.9725  0.0649
19319TIP3    H179448   5.435   0.762  11.227 -0.0001 -0.7374  0.2629
19319TIP3    H279449   5.438   0.835  11.360  0.6348 -1.2197  0.5118
19320TIP3   OH279450   2.426   3.227  14.083  0.2838 -0.0606  0.1670
19320TIP3    H179451   2.422   3.296  14.150 -1.5934  1.4564 -1.4433
19320TIP3    H279452   2.335   3.202  14.070  0.6947 -0.7299 -1.4351
19321TIP3   OH279453   1.526   2.029  15.501 -0.1071 -0.5043  0.1827
19321TIP3    H179454   1.561   2.091  15.437 -1.6342 -0.6525 -0.8116
19321TIP3    H279455   1.584   2.038  15.577  2.0616 -0.7275 -1.4008
19322TIP3   OH279456   0.693   5.351   3.180 -0.4831  0.1289  0.6025
19322TIP3    H179457   0.616   5.309   3.218 -0.4638 -0.9946 -0.5506
19322TIP3    H279458   0.755   5.279   3.167  0.2255  0.8009  0.2128
19323TIP3   OH279459   5.410   1.025  13.158 -0.3323 -0.0881  0.5165
19323TIP3    H179460   5.453   0.956  13.208 -0.6001 -0.4205  0.2858
19323TIP3    H279461   5.338   1.054  13.214 -1.4487 -1.3749 -0.2392
19324TIP3   OH279462   2.338   1.412  11.775  0.5939  0.9371  0.5047
19324TIP3    H179463   2.367   1.422  11.865  0.7047 -1.3557  0.7608
19324TIP3    H279464   2.321   1.501  11.744  0.6398  1.7375  2.7462
19325TIP3   OH279465   3.800   0.402   6.187 -0.7010 -0.0250  0.6132
19325TIP3    H179466   3.822   0.495   6.184 -1.1307  0.0536 -2.0351
19325TIP3    H279467   3.711   0.399   6.222 -1.6564  0.8272 -1.6104
19326TIP3   OH279468   0.382   0.275   4.067  1.1610 -0.0957 -0.4509
19326TIP3    H179469   0.396   0.340   4.136  3.1462  0.8003 -1.6562
19326TIP3    H279470   0.360   0.195   4.114  0.4692  0.9905  1.1319
19327TIP3   OH279471   6.738   5.897   5.489 -0.5631  0.1633 -0.5229
19327TIP3    H179472   6.720   5.820   5.543  0.5845  0.0946 -0.2355
19327TIP3    H279473   6.678   5.887   5.414 -2.3831  0.4386  0.8782
19328TIP3   OH279474   1.751   0.534  15.319  0.3106 -1.2850 -0.1352
19328TIP3    H179475   1.776   0.597  15.251  0.3210 -1.4157 -0.2506
19328TIP3    H279476   1.817   0.545  15.387 -1.7362  1.5093  1.5429
19329TIP3   OH279477   6.791   1.072   5.359  0.4146 -0.5086 -0.0087
19329TIP3    H179478   6.824   1.125   5.432  1.7568  0.2306 -1.1294
19329TIP3    H279479   6.783   1.134   5.287  0.1726 -1.4681 -0.8091
19330TIP3   OH279480   1.858   3.130   5.022  0.6986 -0.9166 -0.0665
19330TIP3    H179481   1.764   3.116   5.035  0.1847  1.7063 -0.7370
19330TIP3    H279482   1.870   3.128   4.927  0.9505  0.8672 -0.0842
19331TIP3   OH279483   2.917   3.596   2.947  0.2027  0.2047  0.4431
19331TIP3    H179484   2.899   3.592   2.853  0.8777  2.5012  0.1799
19331TIP3    H279485   2.987   3.660   2.955  2.0236 -1.9382  2.2913
19332TIP3   OH279486   1.610   4.772   1.654 -0.3912  0.4387  0.4688
19332TIP3    H179487   1.614   4.694   1.598 -0.5414  0.8668 -0.1472
19332TIP3    H279488   1.583   4.739   1.740 -1.9324 -0.0001 -0.1659
19333TIP3   OH279489   0.254   4.480  16.701  0.3745  0.0415 -0.3228
19333TIP3    H179490   0.296   4.456  16.618  0.5959  1.6712 -0.7022
19333TIP3    H279491   0.182   4.419  16.710  0.5960 -0.4158 -1.5184
19334TIP3   OH279492   3.637   3.051   3.344 -0.3770 -0.1302  0.5706
19334TIP3    H179493   3.706   3.016   3.288  0.3637  1.9540  0.1317
19334TIP3    H279494   3.557   3.042   3.293 -0.4281 -2.3221  0.9777
19335TIP3   OH279495   1.524   5.535  13.222  0.1747 -0.0489  0.2347
19335TIP3    H179496   1.561   5.575  13.143 -1.9301 -2.6048 -2.1329
19335TIP3    H279497   1.466   5.602  13.257 -0.4670  0.3904 -1.5963
19336TIP3   OH279498   0.687   3.067   1.960 -0.3046  0.2306  0.4274
19336TIP3    H179499   0.773   3.085   1.998 -0.5022  1.7683  0.1496
19336TIP3    H279500   0.707   3.035   1.872 -0.0507  1.5398  0.0050
19337TIP3   OH279501   6.307   2.922  15.013  0.2718  0.7679  0.0354
19337TIP3    H179502   6.323   2.875  14.931  1.0042  0.9172  0.0860
19337TIP3    H279503   6.217   2.900  15.037  0.2854  0.1774 -0.4553
19338TIP3   OH279504   6.482   6.792  14.652  0.4782  0.0447  0.5506
19338TIP3    H179505   6.527   6.853  14.712 -0.2907 -0.2991  1.4924
19338TIP3    H279506   6.512   6.705  14.680  0.6995 -0.0742 -0.0585
19339TIP3   OH279507   3.114   2.828  12.728  0.5299 -0.1031 -0.0083
19339TIP3    H179508   3.133   2.772  12.804 -2.5645  0.3520  1.1545
19339TIP3    H279509   3.185   2.893  12.728 -0.3655  0.9786  3.5854
19340TIP3   OH279510   5.005   3.955  11.295  0.2812  0.4317 -0.6917
19340TIP3    H179511   4.962   3.979  11.377 -0.8211  1.4934 -1.5617
19340TIP3    H279512   5.007   3.859  11.295 -0.3310  0.4179  0.2591
19341TIP3   OH279513   0.010   0.751   1.248  0.4328 -0.3737  0.3813
19341TIP3    H179514   0.042   0.684   1.308  1.8793  1.5440  1.8134
19341TIP3    H279515  -0.023   0.821   1.304 -0.1884  0.5240 -1.0530
19342TIP3   OH279516   1.642   1.212  11.976 -0.1597 -0.2678 -0.3853
19342TIP3    H179517   1.657   1.119  11.958  1.0974  0.0210 -0.8736
19342TIP3    H279518   1.581   1.240  11.908  2.1099  0.0553 -2.3533
19343TIP3   OH279519   4.504   3.694   0.732 -0.4355 -0.3825  0.1324
19343TIP3    H179520   4.567   3.679   0.802 -1.4789 -1.1726  0.9149
19343TIP3    H279521   4.444   3.619   0.738 -1.0962  0.0536 -0.9784
19344TIP3   OH279522   4.611   0.512  16.740  0.0291 -0.0768 -0.3428
19344TIP3    H179523   4.569   0.565  16.808  0.9411  0.8584 -0.4930
19344TIP3    H279524   4.569   0.427  16.746 -1.3282  0.6033  0.0476
19345TIP3   OH279525   3.509   2.785   5.303 -0.3532 -0.8077 -0.6292
19345TIP3    H179526   3.453   2.733   5.362  0.2385 -0.7428 -0.0023
19345TIP3    H279527   3.450   2.853   5.269 -0.7475 -0.9459 -0.2419
19346TIP3   OH279528   3.665   3.680   6.001 -0.0008  0.0697  0.2550
19346TIP3    H179529   3.740   3.657   5.946  0.5241  1.4869  0.3576
19346TIP3    H279530   3.660   3.609   6.065  0.6467 -0.5393 -0.3639
19347TIP3   OH279531   0.978   4.401   3.383 -0.3633 -0.4440 -0.2546
19347TIP3    H179532   1.059   4.449   3.401 -0.1004  0.1082 -2.7459
19347TIP3    H279533   1.006   4.311   3.370 -0.4409 -0.6727  1.1190
19348TIP3   OH279534   0.428   6.166   6.118  0.5949  0.3116  0.3611
19348TIP3    H179535   0.500   6.108   6.092  1.8159  2.1136 -0.3940
19348TIP3    H279536   0.360   6.107   6.149  2.4928 -1.4415  1.3511
19349TIP3   OH279537   3.823   0.391   2.605 -0.0230 -0.0221  0.1545
19349TIP3    H179538   3.838   0.337   2.528  0.0042 -2.9561  2.1418
19349TIP3    H279539   3.737   0.430   2.592 -0.4209 -1.2502 -0.9108
19350TIP3   OH279540   1.283   2.145   5.200  0.0070 -0.0320 -0.5098
19350TIP3    H179541   1.357   2.151   5.260 -0.6255 -0.6528  0.3379
19350TIP3    H279542   1.235   2.068   5.229 -0.5929 -0.0296 -1.4887
19351TIP3   OH279543   0.288   2.365   0.175  0.5679  0.1434 -0.1319
19351TIP3    H179544   0.250   2.341   0.091 -0.1188 -1.8128  0.6982
19351TIP3    H279545   0.377   2.330   0.172  0.9212  1.0634 -0.4719
19352TIP3   OH279546   5.376   4.123  17.207  0.2003  0.0656 -0.1047
19352TIP3    H179547   5.345   4.128  17.298  2.0785  0.0058  0.5560
19352TIP3    H279548   5.349   4.206  17.168 -0.1894  0.3026  0.6518
19353TIP3   OH279549   0.984   0.121  11.343  0.1401  0.6495 -0.3990
19353TIP3    H179550   0.968   0.156  11.430  1.1777  1.1085 -0.3951
19353TIP3    H279551   0.902   0.136  11.295 -0.1636  1.0788  0.2623
19354TIP3   OH279552   5.448   0.789   1.175  0.2225  0.2356 -0.2736
19354TIP3    H179553   5.404   0.806   1.258  0.2406 -0.7678 -0.0505
19354TIP3    H279554   5.381   0.807   1.108  0.7968  2.9702 -0.1565
19355TIP3   OH279555   5.238   4.076   5.720 -0.1346  0.6547 -0.1810
19355TIP3    H179556   5.216   4.167   5.698  0.6184  0.2336 -2.8901
19355TIP3    H279557   5.307   4.083   5.785  1.6951  2.1030 -2.1991
19356TIP3   OH279558   5.858   6.391  13.562 -0.2464  0.3427 -0.6014
19356TIP3    H179559   5.813   6.307  13.570  0.3965 -0.0617 -1.2348
19356TIP3    H279560   5.951   6.370  13.567 -0.0508  0.9198 -1.6034
19357TIP3   OH279561   4.977   3.207  12.611  0.7775 -0.3950  0.0137
19357TIP3    H179562   4.938   3.173  12.530  1.3583 -0.7248 -0.1273
19357TIP3    H279563   4.905   3.253  12.654  0.5745  0.1453 -0.8882
19358TIP3   OH279564   1.684   3.263   0.246  0.4718  0.4189 -0.1316
19358TIP3    H179565   1.724   3.296   0.327 -0.7333 -0.5547  0.8638
19358TIP3    H279566   1.683   3.168   0.256  1.4078  0.1960 -1.8245
19359TIP3   OH279567   6.780   6.612  15.152  0.5927  0.7057 -0.8142
19359TIP3    H179568   6.766   6.520  15.129  2.2815  0.8275 -2.5474
19359TIP3    H279569   6.868   6.613  15.190  0.2028  1.4739  0.0811
19360TIP3   OH279570   6.725   6.282  12.363 -0.3279 -0.5246  0.4901
19360TIP3    H179571   6.686   6.281  12.451 -0.9326  1.8079  0.2933
19360TIP3    H279572   6.819   6.291  12.378  0.1237 -4.9092  0.9440
19361TIP3   OH279573   1.680   6.551  11.107  0.2042 -0.3974  0.5257
19361TIP3    H179574   1.745   6.592  11.050  0.2362  2.1982  2.3395
19361TIP3    H279575   1.598   6.557  11.057  0.7077 -0.5185 -0.3283
19362TIP3   OH279576   1.305   5.467  14.547  0.7497 -0.2880 -0.0684
19362TIP3    H179577   1.237   5.514  14.595 -0.6678 -3.0672  0.7946
19362TIP3    H279578   1.385   5.483  14.596 -0.0699 -0.3349  1.3093
19363TIP3   OH279579   6.513   0.279   1.601  0.3768 -0.4412 -0.6386
19363TIP3    H179580   6.592   0.263   1.653  1.5180  2.9232 -1.2405
19363TIP3    H279581   6.535   0.247   1.514 -0.4194 -3.1764  0.1033
19364TIP3   OH279582   5.679   2.539  14.672  0.2123  0.1584  0.0690
19364TIP3    H179583   5.699   2.566  14.762  0.2004 -1.7664  0.6782
19364TIP3    H279584   5.593   2.578  14.654 -0.2376 -0.2222  1.2703
19365TIP3   OH279585   3.865   6.256   4.619  0.2644 -0.3576 -0.2279
19365TIP3    H179586   3.926   6.220   4.554  2.2758  1.4466  0.6055
19365TIP3    H279587   3.898   6.224   4.703 -0.4570 -0.0657  0.1708
19366TIP3   OH279588   0.771   3.210  12.286 -0.1347  0.0888  0.2478
19366TIP3    H179589   0.856   3.226  12.327 -0.2240  0.1653  0.4076
19366TIP3    H279590   0.790   3.157  12.209 -0.1344 -1.3447  1.2209
19367TIP3   OH279591   2.749   4.195  11.132  0.0218  0.1196 -0.0380
19367TIP3    H179592   2.738   4.259  11.062  2.7930 -0.4433 -1.0501
19367TIP3    H279593   2.798   4.123  11.092  0.4289 -0.8575  2.1093
19368TIP3   OH279594   1.018   3.153  11.528 -0.2648  0.3682  0.1860
19368TIP3    H179595   0.928   3.173  11.501 -0.4089 -0.7717 -0.2110
19368TIP3    H279596   1.053   3.236  11.559  0.0067  1.8360 -3.8335
19369TIP3   OH279597   1.284   4.982  12.932  0.3278 -0.0916 -0.0364
19369TIP3    H179598   1.296   5.053  12.996  0.1290 -0.9230  0.9349
19369TIP3    H279599   1.232   5.021  12.862  0.5549  0.8332  0.3031
19370TIP3   OH279600   4.470   5.425   0.970 -0.6123  0.5392  0.4545
19370TIP3    H179601   4.498   5.512   0.943  1.6269 -0.0486  0.7927
19370TIP3    H279602   4.472   5.428   1.066 -0.5497  0.1126  0.4665
19371TIP3   OH279603   6.814   3.820  12.177 -0.2217 -0.3935 -0.4922
19371TIP3    H179604   6.734   3.767  12.187 -1.4314  1.5407  0.2913
19371TIP3    H279605   6.782   3.904  12.145  1.4865  0.5597  0.3065
19372TIP3   OH279606   6.525   4.298  11.325 -0.1209  0.0287 -0.1699
19372TIP3    H179607   6.481   4.381  11.306  0.0579  0.6227  1.8768
19372TIP3    H279608   6.496   4.239  11.256  0.0979  1.9114 -1.9210
19373TIP3   OH279609   1.425   6.137   0.850 -0.0641  0.0862 -0.0619
19373TIP3    H179610   1.458   6.191   0.922 -0.0058 -0.0010 -0.0221
19373TIP3    H279611   1.488   6.150   0.780  0.3104 -0.4353  0.1682
19374TIP3   OH279612   3.067   1.573   5.368  0.9047 -0.0215  0.7200
19374TIP3    H179613   3.125   1.530   5.431  0.5908 -0.3352  0.7994
19374TIP3    H279614   3.125   1.603   5.298  1.4074  1.3548  1.7153
19375TIP3   OH279615   1.129   1.962   5.302  0.4165  0.1375 -0.5896
19375TIP3    H179616   1.066   1.993   5.367 -0.6923 -1.8882 -0.6728
19375TIP3    H279617   1.192   1.909   5.352  0.5234 -0.0401 -0.9115
19376TIP3   OH279618   6.377   4.576  10.767  0.4093  0.2797 -0.0964
19376TIP3    H179619   6.467   4.589  10.798 -0.1465 -1.0947  2.2489
19376TIP3    H279620   6.324   4.584  10.846 -1.1708 -2.4818 -0.8287
19377TIP3   OH279621   0.397   0.075  14.203 -0.2450 -0.1026  0.6333
19377TIP3    H179622   0.370   0.152  14.152 -0.4367 -0.6701 -0.1208
19377TIP3    H279623   0.357   0.001  14.158 -1.0979 -0.5386  2.0865
19378TIP3   OH279624   1.944   1.507  14.837 -0.5099 -0.2905 -0.0634
19378TIP3    H179625   1.852   1.522  14.856 -0.9092 -2.3357 -0.2064
19378TIP3    H279626   1.975   1.454  14.911  0.7606  1.0328  0.3865
19379TIP3   OH279627   5.483   6.346  13.994  0.5141 -0.0955 -0.4043
19379TIP3    H179628   5.564   6.388  13.965 -0.0910  1.1094 -0.3941
19379TIP3    H279629   5.417   6.379  13.934 -0.2540  0.2203  0.5928
19380TIP3   OH279630   5.177   4.303  11.279 -0.0668  0.4562  0.1801
19380TIP3    H179631   5.246   4.279  11.341 -0.5776  0.1459  0.6302
19380TIP3    H279632   5.157   4.394  11.300  0.0410  0.4746  0.2041
19381TIP3   OH279633   5.216   6.624   2.495  0.0049 -0.1939 -0.6731
19381TIP3    H179634   5.153   6.565   2.536  1.6384 -0.8125  1.0223
19381TIP3    H279635   5.162   6.687   2.447 -1.8653 -1.2151  0.0427
19382TIP3   OH279636   3.500   4.616   5.338 -0.3530 -0.0042 -0.2727
19382TIP3    H179637   3.457   4.530   5.344  0.6596 -0.4904  0.0075
19382TIP3    H279638   3.427   4.679   5.342 -1.0542 -0.8251  0.0665
19383TIP3   OH279639   1.053   4.012  15.206 -0.2047  0.5819  0.1680
19383TIP3    H179640   1.137   3.977  15.176 -0.3523  0.6523 -0.3308
19383TIP3    H279641   0.990   3.982  15.141 -0.6980 -0.1417  0.9702
19384TIP3   OH279642   6.296   5.026   4.141  0.3152  0.2569  0.3761
19384TIP3    H179643   6.337   5.092   4.085  0.4165  0.6045  0.8512
19384TIP3    H279644   6.357   4.952   4.140  1.0421  0.8345  1.2128
19385TIP3   OH279645   4.537   6.802  16.080  0.7075  0.0533 -0.1146
19385TIP3    H179646   4.579   6.801  15.994  0.5929 -0.3848 -0.1642
19385TIP3    H279647   4.517   6.895  16.095  0.2220  0.0613 -0.8020
19386TIP3   OH279648   0.551   4.291  14.374  0.0115  0.3935 -0.0616
19386TIP3    H179649   0.640   4.287  14.340  0.1207 -0.9727  0.3689
19386TIP3    H279650   0.561   4.322  14.464  0.0907 -0.2899  0.1615
19387TIP3   OH279651   2.516   4.456   2.806  0.0803 -0.3040  0.2314
19387TIP3    H179652   2.550   4.484   2.722  1.4510 -0.9070  0.5755
19387TIP3    H279653   2.518   4.535   2.860  1.9277 -0.5568  0.5578
19388TIP3   OH279654   3.977   1.340   1.569  0.2329  0.1257  0.2618
19388TIP3    H179655   4.055   1.293   1.598  1.4896  2.8249  1.4682
19388TIP3    H279656   4.005   1.432   1.566 -2.2047  0.8525 -1.6918
19389TIP3   OH279657   1.181   1.147  12.395  0.1120  0.0739 -0.2026
19389TIP3    H179658   1.142   1.232  12.376 -0.1853  0.0720  0.3797
19389TIP3    H279659   1.106   1.090  12.415  0.4051  0.1099  1.0779
19390TIP3   OH279660   6.487   2.711  13.675  0.1378 -0.0686 -0.0136
19390TIP3    H179661   6.468   2.617  13.668 -0.9288  0.1532 -0.2439
19390TIP3    H279662   6.408   2.748  13.715 -0.3898  1.0640 -2.0284
19391TIP3   OH279663   5.591   6.700  15.687 -0.0144 -0.1783  0.0530
19391TIP3    H179664   5.665   6.720  15.744 -0.6080 -2.3199  1.6480
19391TIP3    H279665   5.610   6.612  15.652 -1.5729 -0.5758  0.1537
19392TIP3   OH279666   4.072   0.037  16.318 -0.2069 -0.6338  0.3280
19392TIP3    H179667   4.165   0.013  16.319 -0.1169 -0.4028  2.9882
19392TIP3    H279668   4.039   0.005  16.402 -2.5594 -0.7421 -0.6094
19393TIP3   OH279669   5.847   0.292   5.102 -0.4990 -0.5921 -0.6848
19393TIP3    H179670   5.836   0.341   5.183 -0.5636  0.9792 -1.6304
19393TIP3    H279671   5.777   0.323   5.045  0.5277 -0.4953 -1.9216
19394TIP3   OH279672   4.408   3.786  16.903 -0.0469  0.5606 -0.7308
19394TIP3    H179673   4.321   3.780  16.941  0.2452  0.0126 -0.1296
19394TIP3    H279674   4.399   3.847  16.830 -1.1117 -0.1212 -1.1858
19395TIP3   OH279675   4.585   5.582  13.501  0.5542  0.7253  0.4680
19395TIP3    H179676   4.518   5.529  13.458  3.2815 -1.2723 -1.5334
19395TIP3    H279677   4.608   5.534  13.580  1.6099 -0.1152 -0.3262
19396TIP3   OH279678   6.139   0.499  16.257 -0.2375  0.1254 -0.0762
19396TIP3    H179679   6.231   0.482  16.237  0.4163  2.6208  0.5573
19396TIP3    H279680   6.109   0.556  16.187 -0.9823  0.2354  0.3217
19397TIP3   OH279681   1.517   3.329  16.397 -0.7313 -0.1719  0.0956
19397TIP3    H179682   1.552   3.387  16.464  0.3156 -0.9705  0.2410
19397TIP3    H279683   1.448   3.280  16.442  0.6975 -1.4823  0.8888
19398TIP3   OH279684   0.025   4.284  16.720 -0.6528 -0.1061 -0.0776
19398TIP3    H179685  -0.004   4.215  16.661 -0.7494  0.2373 -0.4369
19398TIP3    H279686   0.067   4.238  16.792 -2.4941 -0.6269  0.6771
19399TIP3   OH279687   4.068   1.440   4.278  0.0674 -0.3184 -0.0650
19399TIP3    H179688   4.127   1.412   4.348  1.5828 -0.7153 -1.4674
19399TIP3    H279689   3.984   1.400   4.300  0.4121 -0.1181  1.7259
19400TIP3   OH279690   6.759   1.245   5.644 -0.1717 -0.3951 -0.7614
19400TIP3    H179691   6.674   1.223   5.681  0.8140 -0.0015  1.8493
19400TIP3    H279692   6.743   1.327   5.596 -0.7962  1.1006  1.8613
19401TIP3   OH279693   5.646   1.612   5.072 -0.0819  0.0418 -0.3141
19401TIP3    H179694   5.595   1.627   5.152  1.0116  1.4010  0.1511
19401TIP3    H279695   5.697   1.693   5.061  1.6761 -1.1367 -0.9810
19402TIP3   OH279696   3.990   5.031  17.246 -0.0924 -0.1136 -0.4769
19402TIP3    H179697   4.001   5.064  17.336  0.9836  0.9936 -0.9980
19402TIP3    H279698   4.061   4.968  17.235 -0.8173 -0.9927 -0.2367
19403TIP3   OH279699   3.325   1.317   6.004 -0.2397 -0.1625  0.5127
19403TIP3    H179700   3.292   1.245   6.058  1.4051 -1.8488 -0.6428
19403TIP3    H279701   3.377   1.370   6.064  0.0777 -1.0073  1.0047
19404TIP3   OH279702   2.385   4.173   0.267  0.0083 -0.1954  0.5978
19404TIP3    H179703   2.403   4.082   0.243  1.4196  0.2277 -0.0203
19404TIP3    H279704   2.343   4.211   0.190  1.1274  0.1623  0.1507
19405TIP3   OH279705   4.442   5.535  15.533  0.0439  0.3329  0.4734
19405TIP3    H179706   4.399   5.617  15.557  0.4552  0.5491  0.4583
19405TIP3    H279707   4.520   5.561  15.485  0.4252 -0.0548  0.8734
19406TIP3   OH279708   1.489   4.809  15.559 -0.1435 -0.0044 -0.5171
19406TIP3    H179709   1.551   4.882  15.552  0.5730 -0.5744 -0.1896
19406TIP3    H279710   1.514   4.749  15.488 -0.3398 -0.2187 -0.4070
19407TIP3   OH279711   6.765   5.158   2.141  0.1576  0.1499 -0.1594
19407TIP3    H179712   6.724   5.122   2.062 -0.9030  0.2650  0.3277
19407TIP3    H279713   6.789   5.081   2.192  1.1761  0.0637 -0.7404
19408TIP3   OH279714   0.480   6.152   4.298 -0.5519 -0.0232 -0.0752
19408TIP3    H179715   0.460   6.099   4.221  0.3963  0.1781 -0.4647
19408TIP3    H279716   0.394   6.170   4.337 -0.8413 -2.4855  0.5106
19409TIP3   OH279717   0.541   2.255   4.326 -0.2779 -0.5128 -0.0553
19409TIP3    H179718   0.457   2.259   4.280 -0.6918  1.5990  0.8404
19409TIP3    H279719   0.594   2.196   4.272 -2.0631 -1.2817 -1.0424
19410TIP3   OH279720   4.854   6.032  16.405  0.2886  0.0748 -0.0356
19410TIP3    H179721   4.938   5.998  16.434 -0.3288 -0.2209  1.4264
19410TIP3    H279722   4.793   5.958  16.411 -0.0717  0.2595 -1.1633
19411TIP3   OH279723   1.182   6.700   2.922 -0.1620 -0.1233  0.0640
19411TIP3    H179724   1.100   6.708   2.971  0.5883 -0.9300  1.4824
19411TIP3    H279725   1.195   6.605   2.913  1.0468 -0.0270  0.6275
19412TIP3   OH279726   6.703   2.195  11.348  0.3143  0.4274  0.4579
19412TIP3    H179727   6.704   2.130  11.277 -0.4265 -0.2948  1.1000
19412TIP3    H279728   6.767   2.163  11.411 -0.1005  0.2805  0.8078
19413TIP3   OH279729   3.505   3.278   5.928  0.4681  0.6768 -0.0037
19413TIP3    H179730   3.504   3.360   5.879  0.9386  0.3968 -0.4841
19413TIP3    H279731   3.597   3.261   5.945  0.5180 -0.7091 -1.5167
19414TIP3   OH279732   4.792   2.474   1.445  0.4627  0.1235 -0.3368
19414TIP3    H179733   4.756   2.428   1.370  0.9273  1.7019 -1.5653
19414TIP3    H279734   4.864   2.419   1.475 -0.9810 -1.5053  0.2203
19415TIP3   OH279735   6.259   1.295   0.427  0.0176 -0.3824 -0.0984
19415TIP3    H179736   6.341   1.345   0.435  1.7254 -3.1920  0.7848
19415TIP3    H279737   6.261   1.234   0.501 -1.2911 -2.7062 -1.9028
19416TIP3   OH279738   0.391   2.538   6.186 -0.1236 -0.4812  0.1057
19416TIP3    H179739   0.409   2.616   6.133 -2.8903 -0.7302 -1.3286
19416TIP3    H279740   0.304   2.555   6.223 -0.0631 -2.2013  1.0870
19417TIP3   OH279741   1.013   6.660   6.118 -0.0846 -0.0603 -0.1023
19417TIP3    H179742   0.919   6.667   6.107 -0.1799 -1.9292 -0.6175
19417TIP3    H279743   1.031   6.701   6.202 -1.4194 -0.1503  0.2330
19418TIP3   OH279744   1.918   0.177  10.922 -0.1135  0.4557  0.8740
19418TIP3    H179745   1.842   0.127  10.953  0.2997 -0.9010 -0.2314
19418TIP3    H279746   1.937   0.140  10.836 -0.2649  3.0901 -0.3302
19419TIP3   OH279747   5.600   2.481  17.107 -0.0883 -0.2185 -0.5867
19419TIP3    H179748   5.526   2.541  17.100 -1.1223 -1.2467  1.1386
19419TIP3    H279749   5.673   2.528  17.069 -1.0355  1.8739  0.1324
19420TIP3   OH279750   3.680   4.950  16.254 -0.3666  0.6683  0.1885
19420TIP3    H179751   3.727   5.010  16.195  0.2927 -0.0657 -0.0457
19420TIP3    H279752   3.599   4.996  16.275 -0.4355  1.1068 -0.9849
19421TIP3   OH279753   3.894   5.924  14.938 -0.3930 -0.1738  0.5717
19421TIP3    H179754   3.840   5.942  15.015 -0.4655  0.1005  0.4570
19421TIP3    H279755   3.831   5.919  14.866 -0.3189 -0.3701  0.5211
19422TIP3   OH279756   0.774   6.562  12.270 -0.3890  0.2130  0.0744
19422TIP3    H179757   0.688   6.561  12.228  0.1846  0.6235 -1.1326
19422TIP3    H279758   0.775   6.642  12.322 -1.3009 -0.5592  1.3296
19423TIP3   OH279759   4.163   4.380  10.552  0.1105  0.0388 -0.2661
19423TIP3    H179760   4.151   4.475  10.542  0.2551  0.0141 -0.6781
19423TIP3    H279761   4.241   4.360  10.502 -0.3493 -0.4169 -0.8098
19424TIP3   OH279762   6.574   2.257  16.507  0.3674 -0.1059  0.2231
19424TIP3    H179763   6.613   2.271  16.421  3.9027 -2.2271  1.3250
19424TIP3    H279764   6.524   2.176  16.498 -0.1927  0.2784 -0.1128
19425TIP3   OH279765   3.566   3.704  11.530 -0.2460  0.4088 -0.1005
19425TIP3    H179766   3.588   3.755  11.452  1.3661  0.3386  0.2788
19425TIP3    H279767   3.571   3.612  11.502 -0.8665  0.4079 -0.2130
19426TIP3   OH279768   6.334   3.550  15.896 -0.5441 -0.1736  0.2702
19426TIP3    H179769   6.304   3.562  15.987 -0.2423 -0.4438  0.4048
19426TIP3    H279770   6.281   3.477  15.863 -1.6544  0.8348 -0.2266
19427TIP3   OH279771   6.065   0.689   2.966  0.4779 -0.6414 -0.1436
19427TIP3    H179772   6.135   0.624   2.957  0.3084 -0.7935 -0.3643
19427TIP3    H279773   6.108   0.766   3.003  0.8115 -0.6488 -0.5125
19428TIP3   OH279774   5.914   5.316   2.888 -0.0201  0.2301 -0.0340
19428TIP3    H179775   5.970   5.240   2.906  0.1354  0.2487 -0.4285
19428TIP3    H279776   5.825   5.282   2.894  0.0548 -0.7491 -3.3037
19429TIP3   OH279777   4.325   5.513  11.562  0.6631 -0.0777 -0.1920
19429TIP3    H179778   4.368   5.508  11.477  0.0137  0.5662 -0.5652
19429TIP3    H279779   4.348   5.431  11.606  0.9973 -0.4111 -0.9890
19430TIP3   OH279780   4.682   3.693  11.739 -0.3317  0.3041  0.6807
19430TIP3    H179781   4.672   3.660  11.828 -1.1788  0.9859  0.8536
19430TIP3    H279782   4.602   3.664  11.694 -0.8149  1.5827  0.6818
19431TIP3   OH279783   2.790   0.785  16.834  0.4790 -0.2132 -0.5284
19431TIP3    H179784   2.728   0.821  16.896  2.4561  0.7640  0.9375
19431TIP3    H279785   2.791   0.691  16.852 -2.5539 -0.6656 -2.4312
19432TIP3   OH279786   5.178   4.454   5.088 -0.3221  0.1559 -0.6695
19432TIP3    H179787   5.091   4.473   5.053 -0.8160  1.1714  1.0169
19432TIP3    H279788   5.220   4.540   5.096  0.2150 -0.1687  0.0486
19433TIP3   OH279789   2.527   0.737  14.301  0.5263  0.3574 -0.0095
19433TIP3    H179790   2.576   0.787  14.366  0.7395  0.8023 -0.5163
19433TIP3    H279791   2.440   0.727  14.339  0.9974 -0.4046  0.8794
19434TIP3   OH279792   2.348   3.519  16.810  0.4554  0.0179 -0.3085
19434TIP3    H179793   2.339   3.549  16.900  0.2998  0.8470 -0.5925
19434TIP3    H279794   2.293   3.579  16.759  0.8053 -0.2263 -0.9863
19435TIP3   OH279795   0.241   3.914  12.907 -0.3726  0.6759 -0.2666
19435TIP3    H179796   0.150   3.925  12.879 -0.7664  0.1042  0.7615
19435TIP3    H279797   0.293   3.927  12.827 -1.2825  2.1127 -0.6268
19436TIP3   OH279798   4.400   4.544  14.479  1.2393  0.3545  0.2341
19436TIP3    H179799   4.304   4.539  14.476  1.3284 -1.2101 -0.5715
19436TIP3    H279800   4.420   4.638  14.473 -0.2694  0.7703  1.4432
19437TIP3   OH279801   1.128   4.029   1.761  0.3754 -0.2717 -0.3393
19437TIP3    H179802   1.164   4.113   1.790 -0.0890  0.2802 -1.3556
19437TIP3    H279803   1.044   4.022   1.807  0.9155 -0.6812  0.5805
19438TIP3   OH279804   3.348   0.745   3.425  0.1629 -0.0627 -0.1162
19438TIP3    H179805   3.281   0.683   3.453 -0.0443  0.3682  0.3323
19438TIP3    H279806   3.428   0.692   3.417  0.1502 -0.2475  0.9462
19439TIP3   OH279807   4.086   0.260   5.032  0.4016 -0.3787  0.2290
19439TIP3    H179808   4.100   0.228   4.943  0.5920  2.9105 -1.0198
19439TIP3    H279809   4.014   0.322   5.024  2.4489  2.3161  1.7199
19440TIP3   OH279810   6.777   5.521  16.795  0.2684  0.1914  0.0630
19440TIP3    H179811   6.850   5.531  16.856 -0.6523  0.8445  1.0724
19440TIP3    H279812   6.699   5.523  16.850 -0.5943  1.1624 -1.1575
19441TIP3   OH279813   4.689   6.657  16.286  0.4022  0.0816  0.4324
19441TIP3    H179814   4.629   6.689  16.219  0.6905 -4.0211 -1.9690
19441TIP3    H279815   4.635   6.598  16.340  1.0482  0.5036  1.5525
19442TIP3   OH279816   3.370   5.270   4.657  0.6339  0.4122  0.2973
19442TIP3    H179817   3.306   5.287   4.587 -0.8795  1.6413  1.9298
19442TIP3    H279818   3.385   5.356   4.696  1.1143 -0.3459  1.7869
19443TIP3   OH279819   1.672   2.999  12.238  0.3651 -0.4818 -0.0862
19443TIP3    H179820   1.688   3.006  12.333 -0.1809 -0.1212 -0.0205
19443TIP3    H279821   1.666   3.090  12.208 -1.2988 -0.6070 -0.1544
19444TIP3   OH279822   6.608   1.164   0.323  0.7504  0.0095  0.1963
19444TIP3    H179823   6.678   1.097   0.325  0.7900 -0.0026 -1.1295
19444TIP3    H279824   6.652   1.242   0.289  0.3306  0.2544  0.2265
19445TIP3   OH279825   6.007   6.037  13.334 -0.1450 -0.5333  0.1560
19445TIP3    H179826   5.984   5.963  13.277 -1.2819 -0.9557  1.1513
19445TIP3    H279827   5.977   6.012  13.421 -0.0169  0.8566  0.6252
19446TIP3   OH279828   6.413   0.528   3.635  0.2400  0.2631 -0.5834
19446TIP3    H179829   6.381   0.584   3.705 -1.8883  0.7588 -1.9154
19446TIP3    H279830   6.394   0.439   3.664 -1.0053  0.4867 -0.6932
19447TIP3   OH279831   6.220   2.029  14.934  0.0593  0.8723 -0.1902
19447TIP3    H179832   6.148   1.993  14.987  1.2811 -0.1398  0.8183
19447TIP3    H279833   6.198   2.122  14.925 -0.8139  0.8120  1.0451
19448TIP3   OH279834   3.640   6.386   4.244 -0.3834  0.3978  0.0722
19448TIP3    H179835   3.634   6.301   4.200 -2.2694 -0.0522  1.1244
19448TIP3    H279836   3.595   6.447   4.186 -1.1832  0.1825  0.4583
19449TIP3   OH279837   1.343   2.406   0.197 -0.2715 -0.3367  0.5569
19449TIP3    H179838   1.336   2.486   0.248 -0.7327 -0.6072  0.9237
19449TIP3    H279839   1.260   2.401   0.148  0.7622  0.6999 -1.3836
19450TIP3   OH279840   0.228   4.788   1.987 -0.0928 -0.1490 -0.3867
19450TIP3    H179841   0.286   4.713   2.000  0.7411  0.3484 -1.1433
19450TIP3    H279842   0.146   4.751   1.955 -0.4802 -0.9367  1.4931
19451TIP3   OH279843   1.920   6.010   3.239 -0.1446  0.6843 -0.2434
19451TIP3    H179844   1.841   5.978   3.282  0.4467 -0.5572 -0.0597
19451TIP3    H279845   1.980   5.936   3.239  0.0227  0.7613 -2.8914
19452TIP3   OH279846   1.627   0.865   3.126  0.0903  0.0582  0.0791
19452TIP3    H179847   1.574   0.788   3.106 -1.6267  1.1500  0.2879
19452TIP3    H279848   1.649   0.856   3.219 -1.3251  0.4968  0.4798
19453TIP3   OH279849   0.992   3.302  16.941  0.6914 -0.2625 -0.0509
19453TIP3    H179850   0.901   3.329  16.932  0.1639 -1.8195  0.5868
19453TIP3    H279851   0.999   3.219  16.895  1.6101 -0.5406  0.5612
19454TIP3   OH279852   6.050   3.521  17.176  0.0497 -0.3649  0.1470
19454TIP3    H179853   5.983   3.485  17.118  1.9140  1.0484 -3.0384
19454TIP3    H279854   6.055   3.613  17.151  1.6415  0.0271  1.8544
19455TIP3   OH279855   5.865   3.972   2.158 -0.3520 -0.4798 -0.2227
19455TIP3    H179856   5.872   4.014   2.244 -0.2936 -0.3379 -0.2965
19455TIP3    H279857   5.882   3.880   2.174  1.5311 -0.1906 -0.3639
19456TIP3   OH279858   5.093   5.376  15.030 -0.1765  0.0837  0.5752
19456TIP3    H179859   5.149   5.338  14.962  1.5916  1.9994  0.9116
19456TIP3    H279860   5.022   5.419  14.982 -0.2845 -0.6786  0.0504
19457TIP3   OH279861   6.414   1.176  14.303 -0.5087 -0.1700 -0.0621
19457TIP3    H179862   6.437   1.251  14.248  0.6758 -0.0768  0.5508
19457TIP3    H279863   6.329   1.199  14.340 -0.5647  0.4666 -0.5745
19458TIP3   OH279864   6.458   5.678  16.183  0.2889 -0.1329 -0.0340
19458TIP3    H179865   6.384   5.648  16.130  1.5288 -1.8846 -0.8371
19458TIP3    H279866   6.465   5.612  16.252  1.0425  0.0641  0.0793
19459TIP3   OH279867   2.620   0.747   0.852 -0.1208  0.1554  0.3807
19459TIP3    H179868   2.704   0.729   0.808 -1.1524 -1.7383 -0.8880
19459TIP3    H279869   2.644   0.798   0.930  2.2272 -0.4804  0.1086
19460TIP3   OH279870   5.603   5.306  12.791 -0.2951 -0.2305 -0.3195
19460TIP3    H179871   5.580   5.284  12.881  0.7659 -0.4398 -0.0937
19460TIP3    H279872   5.528   5.275  12.739 -1.9148  1.8556  0.6851
19461TIP3   OH279873   1.879   2.624  12.756 -0.1030  0.0543  0.4140
19461TIP3    H179874   1.808   2.563  12.772 -0.1973  0.5448  1.8835
19461TIP3    H279875   1.949   2.596  12.815  0.6087  0.1363 -0.3613
19462TIP3   OH279876   0.872   1.970  10.359  0.2701  0.8428  0.1341
19462TIP3    H179877   0.893   1.891  10.308  2.0769  1.1128  0.4337
19462TIP3    H279878   0.839   1.936  10.442  0.9811  0.3715  0.2382
19463TIP3   OH279879   5.869   4.300  11.800 -0.0117  0.1968 -0.1549
19463TIP3    H179880   5.915   4.293  11.717 -0.3453 -0.5001 -0.2860
19463TIP3    H279881   5.878   4.214  11.840  0.7075  0.7169  0.8351
19464TIP3   OH279882   0.550   0.773   2.424  0.1036  0.3595  0.3824
19464TIP3    H179883   0.502   0.731   2.353  0.5489  1.3482 -0.5157
19464TIP3    H279884   0.551   0.707   2.494 -0.2626 -0.6600 -0.5506
19465TIP3   OH279885   1.981   4.188  12.012  0.7545 -0.4410  0.1216
19465TIP3    H179886   2.053   4.248  11.990  1.0799 -0.5379  0.9011
19465TIP3    H279887   1.977   4.127  11.939  1.3378 -0.3072 -0.0253
19466TIP3   OH279888   4.149   3.554  13.082 -0.1069  0.0767 -0.7347
19466TIP3    H179889   4.137   3.506  13.163  1.5307 -1.2391 -1.2537
19466TIP3    H279890   4.061   3.561  13.045 -0.7159 -0.1827  0.6399
19467TIP3   OH279891   2.175   4.988  12.741 -0.4989 -0.4897 -0.3748
19467TIP3    H179892   2.122   4.942  12.676 -1.1198 -0.1887 -0.0829
19467TIP3    H279893   2.262   4.948  12.734 -0.7898 -1.0500 -0.7851
19468TIP3   OH279894   6.496   2.628   1.553  0.4677 -0.6338  0.1621
19468TIP3    H179895   6.496   2.537   1.524  0.6541 -0.1755 -1.3401
19468TIP3    H279896   6.564   2.669   1.500  0.2217  0.4352  0.6678
19469TIP3   OH279897   0.371   0.061  11.433 -0.3671 -0.3014 -0.2492
19469TIP3    H179898   0.342  -0.025  11.403  2.4584 -1.3169 -0.2179
19469TIP3    H279899   0.435   0.042  11.502 -1.9394  1.8838  1.8753
19470TIP3   OH279900   6.721   0.861   2.204 -0.9884 -0.8147  0.0553
19470TIP3    H179901   6.740   0.778   2.161  0.0764 -0.4781 -0.1581
19470TIP3    H279902   6.761   0.853   2.291  0.6204  0.0910 -0.5754
19471TIP3   OH279903   0.903   1.342  14.915  0.7471 -0.2317 -0.0334
19471TIP3    H179904   0.892   1.254  14.950 -0.4184 -0.5512 -1.1702
19471TIP3    H279905   0.827   1.355  14.857  1.5365  1.0611 -0.8086
19472TIP3   OH279906   5.979   0.473   3.812 -0.2174 -0.2987 -0.3070
19472TIP3    H179907   6.036   0.519   3.751  0.4967  1.4518  1.6088
19472TIP3    H279908   5.893   0.471   3.769  0.3546  0.5579 -1.5020
19473TIP3   OH279909   3.388   2.963  14.569  0.4771  0.1022 -0.4915
19473TIP3    H179910   3.443   3.016  14.626  1.0144 -1.2196  0.2442
19473TIP3    H279911   3.441   2.947  14.491  0.4812  0.2898 -0.5265
19474TIP3   OH279912   4.036   3.094   1.839 -0.1403 -0.1256 -0.1785
19474TIP3    H179913   4.022   3.173   1.891 -0.7134 -0.7206  0.5912
19474TIP3    H279914   3.953   3.081   1.793 -0.8432 -1.5114  1.4180
19475TIP3   OH279915   3.354   6.233   5.148 -0.1688 -0.3141 -0.2436
19475TIP3    H179916   3.414   6.238   5.073  1.0410  1.7778  0.8249
19475TIP3    H279917   3.278   6.286   5.122  0.1939  0.3054 -0.0358
19476TIP3   OH279918   3.005   2.167   6.800  1.0252  0.2587  0.2034
19476TIP3    H179919   3.099   2.185   6.797  1.3116 -0.8754  1.6864
19476TIP3    H279920   2.964   2.252   6.787  2.2229  0.5304 -2.0433
19477TIP3   OH279921   6.770   0.880  16.515  0.3741 -0.1088  0.3466
19477TIP3    H179922   6.689   0.830  16.528  0.2038  0.2147  0.5220
19477TIP3    H279923   6.837   0.813  16.500  0.2496 -0.4079  1.1287
19478TIP3   OH279924   1.088   5.367  14.105  0.0413 -0.4441 -0.8162
19478TIP3    H179925   1.050   5.368  14.193  0.2739  2.3658 -0.6914
19478TIP3    H279926   1.182   5.352  14.120  0.0337 -0.2795 -0.5959
19479TIP3   OH279927   6.387   6.023   1.036  0.2529 -0.4540 -0.2670
19479TIP3    H179928   6.448   6.095   1.020  0.7376 -0.6254  0.7586
19479TIP3    H279929   6.438   5.944   1.019 -0.3401 -0.5623 -1.5987
19480TIP3   OH279930   4.297   5.482   5.701 -0.3084  0.0562  0.2129
19480TIP3    H179931   4.312   5.396   5.662  0.1560 -0.4784  1.5550
19480TIP3    H279932   4.231   5.466   5.769  0.9478  0.4496  1.5485
19481TIP3   OH279933   3.242   3.976   5.805  0.0640  0.6310 -0.5525
19481TIP3    H179934   3.295   4.039   5.853 -0.2680  0.0918  0.5298
19481TIP3    H279935   3.294   3.956   5.726  2.0488 -0.7832  1.0585
19482TIP3   OH279936   4.393   0.863   4.671  0.4729 -0.4544  0.2832
19482TIP3    H179937   4.446   0.784   4.663 -0.8536 -1.2511 -0.8952
19482TIP3    H279938   4.333   0.845   4.743 -0.2557 -0.7801 -0.4007
19483TIP3   OH279939   6.548   6.791  10.983  0.5181  0.4117  0.8349
19483TIP3    H179940   6.583   6.702  10.984 -0.1128  0.1599  0.7500
19483TIP3    H279941   6.497   6.795  10.902 -0.4894  0.4462  1.4706
19484TIP3   OH279942   4.713   0.881   3.433 -0.3770 -0.0290 -0.5099
19484TIP3    H179943   4.650   0.876   3.361  0.6599  1.0906 -1.5201
19484TIP3    H279944   4.784   0.935   3.399  1.3380 -1.6202  0.4569
19485TIP3   OH279945   3.212   0.623  15.722  0.0840  0.0542 -0.3026
19485TIP3    H179946   3.144   0.556  15.716 -1.5184  1.4821  1.3837
19485TIP3    H279947   3.214   0.646  15.815  3.0340 -0.1014 -0.2916
19486TIP3   OH279948   3.607   1.939   3.436 -0.0517  0.1015 -0.9512
19486TIP3    H179949   3.642   1.888   3.363 -0.3103 -1.1167 -0.2365
19486TIP3    H279950   3.649   1.902   3.514  2.8781  3.5993 -0.6972
19487TIP3   OH279951   5.233   4.060  14.055 -0.7687  0.0978  0.0438
19487TIP3    H179952   5.151   4.055  14.006 -1.5734 -1.0026  1.4676
19487TIP3    H279953   5.228   3.988  14.118  1.4049 -0.1443 -0.0198
19488TIP3   OH279954   6.219   4.371  15.845  0.1148 -0.1232  0.4050
19488TIP3    H179955   6.308   4.341  15.828 -0.0143 -0.7736  0.8485
19488TIP3    H279956   6.163   4.310  15.797 -0.0543  1.0429 -0.9198
19489TIP3   OH279957   3.605   6.283   4.699  0.3250  0.2642 -0.4420
19489TIP3    H179958   3.532   6.259   4.642  0.3761  0.2612 -0.5058
19489TIP3    H279959   3.684   6.256   4.651  0.3051 -1.3522  0.3676
19490TIP3   OH279960   5.992   6.115   2.075  1.0276 -0.1765  0.1078
19490TIP3    H179961   6.074   6.103   2.123  1.2201 -0.1838 -0.2217
19490TIP3    H279962   5.994   6.048   2.007  1.4474  0.7962 -0.8388
19491TIP3   OH279963   0.320   3.321   3.659 -0.1402  0.1469  0.6456
19491TIP3    H179964   0.336   3.352   3.748 -1.6088 -1.1015  1.3600
19491TIP3    H279965   0.325   3.226   3.665 -0.9399  0.0235 -0.4623
19492TIP3   OH279966   2.666   1.430   0.656  0.2004 -0.1905  0.4925
19492TIP3    H179967   2.710   1.386   0.584  2.0992  0.5871  1.1441
19492TIP3    H279968   2.581   1.387   0.663  0.7227 -1.4889 -1.0215
19493TIP3   OH279969   2.696   2.306  15.803 -0.0806  0.2185 -0.5892
19493TIP3    H179970   2.689   2.392  15.843 -0.3928 -0.1641  0.2051
19493TIP3    H279971   2.780   2.307  15.756  0.3506  0.6298  0.1896
19494TIP3   OH279972   2.305   6.323  12.241  0.2800 -0.0847 -0.0383
19494TIP3    H179973   2.293   6.340  12.335 -0.1512  1.1445 -0.3076
19494TIP3    H279974   2.352   6.399  12.209  0.9785 -0.7968 -0.7126
19495TIP3   OH279975   6.371   4.630  16.043  0.1422  1.1171 -0.3305
19495TIP3    H179976   6.433   4.562  16.017 -0.9800 -0.3043  0.6966
19495TIP3    H279977   6.367   4.688  15.967  0.9451 -0.0719 -1.2979
19496TIP3   OH279978   5.443   2.098   3.513  0.5715  0.2796 -0.1889
19496TIP3    H179979   5.405   2.041   3.447  1.1797 -0.7284  0.3279
19496TIP3    H279980   5.488   2.166   3.463 -0.0907  0.2658 -0.8032
19497TIP3   OH279981   4.307   1.423   2.700 -0.3612 -0.3576  0.2520
19497TIP3    H179982   4.293   1.397   2.609 -1.8025 -0.9632  0.6373
19497TIP3    H279983   4.393   1.389   2.721 -0.2865 -0.7809 -0.6882
19498TIP3   OH279984   2.429   6.589  13.842  0.4664 -0.7451  0.1857
19498TIP3    H179985   2.376   6.604  13.763  1.1544  1.5066  0.1138
19498TIP3    H279986   2.369   6.547  13.903 -0.6841 -0.5985 -0.8234
19499TIP3   OH279987   4.223   1.064   1.455 -0.3931 -0.0685  0.6793
19499TIP3    H179988   4.219   0.987   1.399 -2.9270 -0.6601  1.5810
19499TIP3    H279989   4.236   1.137   1.395 -0.3998 -0.9414 -0.4071
19500TIP3   OH279990   5.520   4.691  10.746  0.1546  0.0884  0.2300
19500TIP3    H179991   5.563   4.660  10.826 -0.7895 -0.5659  0.4899
19500TIP3    H279992   5.481   4.775  10.772  0.3008  0.1299  0.3133
19501TIP3   OH279993   2.695   5.003  16.686  0.5339  0.1938 -0.2920
19501TIP3    H179994   2.709   4.979  16.777 -0.6013 -0.6679 -0.3262
19501TIP3    H279995   2.744   5.084  16.674  0.2807  0.5784  1.2107
19502TIP3   OH279996   1.804   1.540  13.522 -0.9255 -0.1624  0.2997
19502TIP3    H179997   1.712   1.514  13.522 -1.4169  1.5190  0.8247
19502TIP3    H279998   1.837   1.516  13.608 -1.2229  0.3756  0.5690
19503TIP3   OH279999   0.285   6.161  12.602  0.0764 -0.3988  0.2169
19503TIP3    H180000   0.347   6.102  12.560  1.8962 -0.1217  2.4097
19503TIP3    H280001   0.206   6.109  12.612  0.5393 -1.3632 -0.9402
19504TIP3   OH280002   6.571   4.331   2.424  0.4514 -0.1031  0.0654
19504TIP3    H180003   6.484   4.370   2.416 -0.6748 -2.2239  1.4913
19504TIP3    H280004   6.612   4.378   2.497 -0.8030 -1.3898  1.6243
19505TIP3   OH280005   3.502   0.907  12.310 -0.2012 -0.0098 -0.1565
19505TIP3    H180006   3.481   0.972  12.377  1.8967  0.4554  0.0885
19505TIP3    H280007   3.577   0.859  12.345 -1.2538 -2.0686 -0.6853
19506TIP3   OH280008   2.952   2.543  11.666 -0.4223 -0.1872 -0.2545
19506TIP3    H180009   3.003   2.484  11.611  1.5519  1.4612 -0.2625
19506TIP3    H280010   2.902   2.485  11.723  0.8020 -1.8633 -0.8362
19507TIP3   OH280011   6.279   1.057   4.433 -0.4562  0.8589 -0.4499
19507TIP3    H180012   6.213   1.014   4.379 -1.7746  0.8907  1.1258
19507TIP3    H280013   6.236   1.075   4.516  1.2240  1.8010  0.2611
19508TIP3   OH280014   1.413   3.080   1.378  0.1483  0.0766  0.0727
19508TIP3    H180015   1.391   3.170   1.355  1.6039  0.4548  0.1259
19508TIP3    H280016   1.397   3.075   1.473 -1.3029 -0.1387 -0.1758
19509TIP3   OH280017   2.368   3.296   6.100 -0.3287 -0.0814 -0.0026
19509TIP3    H180018   2.403   3.329   6.183  0.3602  0.5260 -0.5239
19509TIP3    H280019   2.308   3.226   6.125 -2.0830  1.7625  1.1667
19510TIP3   OH280020   5.007   5.822   2.207  0.0021  0.0269 -0.2740
19510TIP3    H180021   5.054   5.877   2.144  1.0224 -0.9770 -0.4008
19510TIP3    H280022   5.030   5.858   2.293 -0.5887  0.7664 -0.4155
19511TIP3   OH280023   1.151   3.258  17.160 -0.1767 -0.6882 -0.1624
19511TIP3    H180024   1.114   3.267  17.072  2.2713  0.1736 -1.1521
19511TIP3    H280025   1.187   3.169  17.161 -0.3712 -0.7633  0.0232
19512TIP3   OH280026   6.812   0.772   3.052 -0.8237  0.3246  0.0829
19512TIP3    H180027   6.904   0.792   3.066 -0.9415  1.4901 -0.7170
19512TIP3    H280028   6.785   0.725   3.131 -0.1335  2.0404  1.3648
19513TIP3   OH280029   6.725   2.205  15.293  0.1941  0.2073 -0.0504
19513TIP3    H180030   6.754   2.226  15.204  0.6615  0.1332  0.0816
19513TIP3    H280031   6.797   2.234  15.349 -0.1151  0.2862  0.3088
19514TIP3   OH280032   2.266   0.478  13.216  0.3363 -0.0430  0.1817
19514TIP3    H180033   2.315   0.431  13.284 -1.0503 -1.3820  0.2766
19514TIP3    H280034   2.200   0.528  13.264  1.5589  1.7577  0.0497
19515TIP3   OH280035   1.959   0.612   1.553  0.1550  0.3713  0.3430
19515TIP3    H180036   1.955   0.706   1.570  0.0792  0.3608  0.3875
19515TIP3    H280037   1.912   0.601   1.470  0.0622  0.3593  0.3962
19516TIP3   OH280038   2.600   1.214   6.532  0.5899  0.4414 -0.2730
19516TIP3    H180039   2.540   1.282   6.561  1.2013  1.1142 -0.5645
19516TIP3    H280040   2.658   1.199   6.607 -0.8704 -1.3016  0.5635
19517TIP3   OH280041   6.204   6.226   2.247  0.1337  0.1132  0.0560
19517TIP3    H180042   6.186   6.281   2.171 -1.9451  0.2042  0.5693
19517TIP3    H280043   6.145   6.259   2.314  1.9034  0.0014  1.7131
19518TIP3   OH280044   1.153   1.531  15.458  0.1052 -0.1191 -0.7561
19518TIP3    H180045   1.068   1.524  15.413 -0.1743 -1.8283 -0.0015
19518TIP3    H280046   1.161   1.448  15.507  1.7216  0.4842  0.0242
19519TIP3   OH280047   2.129   0.971  14.433  0.2074 -0.1579 -0.7617
19519TIP3    H180048   2.050   0.968  14.379  0.0200  1.7764 -0.5999
19519TIP3    H280049   2.184   1.038  14.392  0.7558  0.1807  0.5058
19520TIP3   OH280050   4.813   0.858  12.136  0.1098  0.5651 -0.3183
19520TIP3    H180051   4.903   0.837  12.110  0.1992  0.7061 -0.1313
19520TIP3    H280052   4.763   0.780  12.115  0.4807  0.0663  0.5975
19521TIP3   OH280053   0.100   0.515   5.158  0.0487 -0.1606 -0.0574
19521TIP3    H180054   0.137   0.448   5.100  0.3915  0.3829 -0.4744
19521TIP3    H280055   0.055   0.465   5.226 -1.1131 -0.8174 -1.2784
19522TIP3   OH280056   2.867   5.502  14.881  0.2622  0.4464  0.5861
19522TIP3    H180057   2.926   5.434  14.912 -0.3046  0.8979  2.7939
19522TIP3    H280058   2.855   5.484  14.788  2.5582 -0.6116  0.4679
19523TIP3   OH280059   3.557   0.320   4.065  0.1905  0.2004 -0.2397
19523TIP3    H180060   3.596   0.350   3.983  0.3620  2.5062  0.6322
19523TIP3    H280061   3.627   0.272   4.109  0.4433 -0.0807 -0.9451
19524TIP3   OH280062   3.745   1.672   0.102 -0.3053 -0.0654  0.2086
19524TIP3    H180063   3.834   1.652   0.129 -0.2405 -3.7268 -2.3479
19524TIP3    H280064   3.755   1.730   0.026 -0.2208  1.0339  1.0327
19525TIP3   OH280065   4.131   2.108  16.911  0.3598 -0.2432  0.1399
19525TIP3    H180066   4.177   2.184  16.875 -0.0927 -0.6839 -1.4050
19525TIP3    H280067   4.108   2.056  16.835 -4.4913  0.9370  0.6051
19526TIP3   OH280068   2.235   4.930   3.711 -0.0984  0.5950 -0.5812
19526TIP3    H180069   2.207   5.020   3.727 -0.4697  0.1573  1.4680
19526TIP3    H280070   2.317   4.922   3.760 -1.9099 -1.1937  2.3136
19527TIP3   OH280071   1.742   2.973  15.606 -0.5770 -0.1817 -0.0832
19527TIP3    H180072   1.717   2.997  15.695 -0.3473 -2.0209  0.4836
19527TIP3    H280073   1.660   2.949  15.563 -0.1194 -4.2803  1.1852
19528TIP3   OH280074   1.170   0.529   3.873 -0.0156 -0.6441  0.1136
19528TIP3    H180075   1.206   0.441   3.885  0.0171 -0.4337  1.7102
19528TIP3    H280076   1.111   0.522   3.798  1.8036 -1.4705 -1.2775
19529TIP3   OH280077   0.377   0.157   4.612 -0.3083 -0.1803  0.3214
19529TIP3    H180078   0.391   0.074   4.567  0.2928  0.4180 -0.6141
19529TIP3    H280079   0.460   0.176   4.655 -0.6635 -0.4065  1.1148
19530TIP3   OH280080   4.815   0.368  15.565 -0.4272  0.0227 -0.1762
19530TIP3    H180081   4.795   0.376  15.471 -2.4831  0.9911  0.3317
19530TIP3    H280082   4.838   0.456  15.593 -1.9695  0.1576  0.7047
19531TIP3   OH280083   5.110   0.254   2.696  0.0539  0.1066 -0.2141
19531TIP3    H180084   5.125   0.276   2.788 -1.6289 -1.2043  0.4008
19531TIP3    H280085   5.194   0.219   2.666  0.2086 -0.8350  1.2454
19532TIP3   OH280086   4.225   1.874  15.025  0.2262  1.0552 -0.4459
19532TIP3    H180087   4.149   1.817  15.017 -0.7017  2.1309  0.5372
19532TIP3    H280088   4.195   1.959  14.993  1.3068  1.2415 -0.9834
19533TIP3   OH280089   1.249   2.486   2.636 -0.0529 -0.0812  0.1084
19533TIP3    H180090   1.156   2.464   2.645  0.3040 -1.4981  0.4280
19533TIP3    H280091   1.286   2.469   2.723  0.3653  1.1731  0.1799
19534TIP3   OH280092   5.309   5.260  12.307 -0.1393  0.1414 -0.3456
19534TIP3    H180093   5.265   5.299  12.231  1.1030  0.3435 -0.9705
19534TIP3    H280094   5.366   5.193  12.270 -0.8321 -0.9668  0.5665
19535TIP3   OH280095   4.307   3.662  13.851 -0.3034  0.1660 -0.0826
19535TIP3    H180096   4.263   3.734  13.806 -0.8680  1.7532  2.9320
19535TIP3    H280097   4.250   3.586  13.836 -1.6503  1.1752 -0.1406
19536TIP3   OH280098   1.755   6.321   2.022  0.0710 -0.1016  0.4602
19536TIP3    H180099   1.795   6.272   2.095 -1.5459 -0.8569  0.8770
19536TIP3    H280100   1.662   6.328   2.047 -0.4427 -0.1150 -1.3811
19537TIP3   OH280101   1.919   1.603   3.322  0.3743 -0.2335  0.1496
19537TIP3    H180102   2.000   1.631   3.280  0.2027  0.4953  0.2924
19537TIP3    H280103   1.909   1.511   3.297  1.7046 -0.5867  0.8515
19538TIP3   OH280104   6.243   1.363  10.604  0.1468  0.3111  0.1777
19538TIP3    H180105   6.219   1.450  10.636 -2.1285 -0.2581  0.0665
19538TIP3    H280106   6.332   1.374  10.570  0.9753  1.9384  2.7083
19539TIP3   OH280107   5.019   6.477   2.586 -0.2083 -0.4379 -0.1807
19539TIP3    H180108   5.007   6.557   2.637  1.9604  0.0094 -0.3468
19539TIP3    H280109   4.983   6.408   2.642 -1.2355  0.5157  0.3626
19540TIP3   OH280110   2.563   4.294   3.065 -0.4844  0.4168  0.4324
19540TIP3    H180111   2.538   4.380   3.099  0.6656  1.3547 -1.0223
19540TIP3    H280112   2.577   4.308   2.971 -0.4165 -1.3927  0.1482
19541TIP3   OH280113   5.901   4.604   1.868  0.3879  0.2045 -1.1422
19541TIP3    H180114   5.895   4.567   1.780 -2.0947 -0.8096 -0.5766
19541TIP3    H280115   5.840   4.552   1.920  0.5742  1.9002  0.8117
19542TIP3   OH280116   5.161   5.991  14.822 -0.2992  0.3753 -0.4204
19542TIP3    H180117   5.093   6.010  14.757 -0.5958 -1.5946 -0.7357
19542TIP3    H280118   5.232   6.052  14.801 -1.3089  1.3314 -1.1268
19543TIP3   OH280119   3.375   0.597   3.786  0.5332  0.3789  0.0164
19543TIP3    H180120   3.325   0.547   3.721  0.6138 -0.1526  0.3560
19543TIP3    H280121   3.317   0.669   3.811  0.4661  0.5347 -0.5771
19544TIP3   OH280122   0.480   0.827   5.574  0.2228 -0.1733 -0.5691
19544TIP3    H180123   0.557   0.834   5.518  1.1851 -2.0745  0.5003
19544TIP3    H280124   0.512   0.842   5.662 -0.7054 -0.5959 -0.1505
19545TIP3   OH280125   5.554   2.318   0.771 -0.0028 -0.2597 -0.2776
19545TIP3    H180126   5.645   2.344   0.760  0.0611  0.0821  0.9262
19545TIP3    H280127   5.504   2.398   0.753 -0.0091 -0.2079 -0.0318
19546TIP3   OH280128   0.634   4.611   1.645 -0.1364 -0.2701 -0.0730
19546TIP3    H180129   0.586   4.541   1.601  0.3605 -0.9246  0.4134
19546TIP3    H280130   0.716   4.570   1.673 -0.2458  0.2590  1.0513
19547TIP3   OH280131   0.688   3.399   2.363 -0.0676  0.4359 -0.0826
19547TIP3    H180132   0.608   3.358   2.396 -0.3660  0.2660 -1.0117
19547TIP3    H280133   0.679   3.491   2.386 -0.5582  0.4301 -0.2404
19548TIP3   OH280134   3.079   0.695  11.968 -0.6435 -0.3668  0.1309
19548TIP3    H180135   2.995   0.654  11.988 -0.6036 -0.0104  1.0808
19548TIP3    H280136   3.116   0.716  12.054 -0.5458  1.4185 -0.3326
19549TIP3   OH280137   2.994   1.583  16.038  0.6000 -0.1855 -0.7277
19549TIP3    H180138   3.040   1.595  15.955  1.1872 -2.6452 -0.8031
19549TIP3    H280139   3.062   1.595  16.105  0.0611  2.1131 -0.5665
19550TIP3   OH280140   1.750   4.004   4.572 -0.3345 -0.1794  0.4055
19550TIP3    H180141   1.682   4.022   4.637  0.9875  0.9788  1.4901
19550TIP3    H280142   1.822   3.966   4.622  0.1598 -0.5757 -0.5933
19551TIP3   OH280143   1.795   4.772  11.361  0.0629  0.1136  0.5146
19551TIP3    H180144   1.805   4.817  11.445 -0.0990  1.3884 -0.1418
19551TIP3    H280145   1.716   4.720  11.371  1.0462 -1.1990  1.7881
19552TIP3   OH280146   4.674   1.256  15.531  1.1686  0.0956  0.6685
19552TIP3    H180147   4.747   1.226  15.477  0.3431 -0.8553  0.0715
19552TIP3    H280148   4.658   1.346  15.503  1.6801  0.0843  0.3457
19553TIP3   OH280149   5.387   4.244  13.857 -0.2569  0.1386 -0.3933
19553TIP3    H180150   5.468   4.295  13.866 -0.5563  0.7660 -1.1764
19553TIP3    H280151   5.320   4.297  13.899 -0.2250 -0.4894  0.4589
19554TIP3   OH280152   3.881   2.240  11.077  1.0674 -0.2463 -0.0311
19554TIP3    H180153   3.876   2.151  11.111 -2.4523  0.3408  1.2015
19554TIP3    H280154   3.912   2.292  11.150 -0.3572  0.0604  0.3647
19555TIP3   OH280155   5.647   4.639   2.344 -0.1406  0.6310  0.3486
19555TIP3    H180156   5.623   4.572   2.409  0.9149  0.2613  0.3819
19555TIP3    H280157   5.637   4.722   2.390  2.6262  0.2796  1.7159
19556TIP3   OH280158   2.190   4.537   2.944 -0.2322 -0.0480 -0.0804
19556TIP3    H180159   2.264   4.562   2.999 -0.8599 -1.4443  1.4304
19556TIP3    H280160   2.167   4.449   2.973 -0.8737 -0.6479 -2.2842
19557TIP3   OH280161   6.454   5.773   0.447  0.0305  0.6888 -0.6490
19557TIP3    H180162   6.434   5.840   0.513  1.5541 -0.1077  0.6321
19557TIP3    H280163   6.372   5.723   0.438  0.3459 -0.3508  1.9862
19558TIP3   OH280164   5.753   5.090  16.319 -0.1591 -0.3014 -0.0139
19558TIP3    H180165   5.786   5.123  16.235 -0.0705  1.1965  0.5819
19558TIP3    H280166   5.803   5.010  16.335  0.4791 -0.0976 -0.9532
19559TIP3   OH280167   4.538   3.860   4.910  0.2333 -0.1017  0.2595
19559TIP3    H180168   4.631   3.859   4.933 -0.4028  1.2029  3.1637
19559TIP3    H280169   4.519   3.953   4.893  0.0167 -0.6888 -2.9714
19560TIP3   OH280170   5.463   4.504   4.081  0.0141 -0.4295  0.5343
19560TIP3    H180171   5.545   4.521   4.036  0.4804 -1.3895  1.0113
19560TIP3    H280172   5.488   4.457   4.161 -0.9060  0.1721  1.1938
19561TIP3   OH280173   5.653   4.755   4.600 -0.6912 -0.2025 -0.2039
19561TIP3    H180174   5.675   4.848   4.594 -0.4003 -0.0034  3.3363
19561TIP3    H280175   5.733   4.710   4.576 -0.6370  0.4247 -1.2652
19562TIP3   OH280176   2.225   2.984  16.194  0.0759  0.0511 -0.1890
19562TIP3    H180177   2.280   2.906  16.199 -0.3394 -0.3442 -1.5425
19562TIP3    H280178   2.246   3.033  16.273  0.9843 -1.0088  0.2410
19563TIP3   OH280179   6.369   3.867   5.364  0.1424 -0.1596 -0.2472
19563TIP3    H180180   6.371   3.817   5.282 -1.9692  1.8372 -1.5755
19563TIP3    H280181   6.281   3.851   5.399  0.5953  0.0409  0.9806
19564TIP3   OH280182   3.975   5.267  14.904  0.3111 -0.7674 -0.3208
19564TIP3    H180183   3.890   5.301  14.878  0.3143  0.0967  0.7739
19564TIP3    H280184   3.955   5.206  14.975  0.5659 -0.9220 -0.3813
19565TIP3   OH280185   0.798   1.375  11.069  0.4104  0.0083 -0.2306
19565TIP3    H180186   0.715   1.392  11.024 -1.0811  0.3614  2.6028
19565TIP3    H280187   0.823   1.460  11.106  1.5157 -0.3269 -0.1884
19566TIP3   OH280188   3.336   0.682   1.604  0.1436 -0.6363  0.3672
19566TIP3    H180189   3.368   0.634   1.680  2.4676  0.5111  0.1906
19566TIP3    H280190   3.335   0.774   1.632  1.3153 -0.1619 -1.0350
19567TIP3   OH280191   1.416   3.820   4.658 -0.0786 -0.2618 -0.4485
19567TIP3    H180192   1.505   3.821   4.624 -0.6007  1.8705 -1.8447
19567TIP3    H280193   1.369   3.885   4.605 -2.1395 -0.4228  1.1158
19568TIP3   OH280194   4.773   0.066  14.707 -0.1365 -0.3680 -0.0463
19568TIP3    H180195   4.702   0.006  14.684 -2.0246  1.0851  1.8668
19568TIP3    H280196   4.815   0.085  14.623 -1.1512 -2.2670 -1.0385
19569TIP3   OH280197   1.709   6.085   1.404 -0.0048  0.0228  0.2804
19569TIP3    H180198   1.763   6.073   1.482  0.9242 -0.4105 -0.4155
19569TIP3    H280199   1.683   5.996   1.379 -0.8620  0.2167  0.4955
19570TIP3   OH280200   6.156   3.616   5.603 -0.1405  0.0211 -0.2222
19570TIP3    H180201   6.173   3.526   5.577 -4.0086 -0.7203 -0.5031
19570TIP3    H280202   6.195   3.624   5.690  1.2548 -1.5600 -0.6950
19571TIP3   OH280203   6.814   0.088   3.496 -0.6598  0.2807 -0.0134
19571TIP3    H180204   6.794   0.049   3.581  0.0959 -0.3966 -0.1447
19571TIP3    H280205   6.772   0.031   3.433  0.6193 -0.4643 -0.2170
19572TIP3   OH280206   3.255   6.385   1.674 -0.1164 -0.7499 -0.0060
19572TIP3    H180207   3.163   6.370   1.654 -0.6954  0.4952  1.5980
19572TIP3    H280208   3.272   6.474   1.643  0.7559 -1.2510 -0.9863
19573TIP3   OH280209   4.148   3.996  12.523  0.1889 -0.2226  0.2401
19573TIP3    H180210   4.153   4.065  12.457  0.2055  0.3093  0.7908
19573TIP3    H280211   4.190   3.920  12.482 -1.9475 -0.6274 -1.2637
19574TIP3   OH280212   2.072   2.906   5.161 -0.3375 -0.1970 -0.4487
19574TIP3    H180213   2.083   2.952   5.078  0.6546 -0.4242 -0.4391
19574TIP3    H280214   1.994   2.852   5.148 -0.4849  0.1556 -1.0517
19575TIP3   OH280215   5.901   1.287   1.027  0.1612  0.2961  0.5184
19575TIP3    H180216   5.974   1.326   1.076 -1.2640  2.1027  1.2656
19575TIP3    H280217   5.830   1.280   1.091 -0.3487 -1.4387 -0.2002
19576TIP3   OH280218   2.560   4.393  16.526 -0.2717  0.0726 -0.1665
19576TIP3    H180219   2.485   4.352  16.569  1.2443 -0.2493  2.2146
19576TIP3    H280220   2.586   4.329  16.459 -0.1509 -1.2688  1.1402
19577TIP3   OH280221   4.015   5.079  16.536  0.4425 -0.6266  0.2799
19577TIP3    H180222   3.932   5.107  16.498 -0.4432 -2.8850  0.5127
19577TIP3    H280223   4.056   5.160  16.566 -1.5407  0.5332 -0.0726
19578TIP3   OH280224   6.457   2.143   4.623 -0.1076 -0.0387  0.5700
19578TIP3    H180225   6.386   2.107   4.676 -1.0587  0.9675 -0.0051
19578TIP3    H280226   6.445   2.102   4.537 -0.3997  0.6468  0.2839
19579TIP3   OH280227   2.789   2.484  13.552 -0.5021 -0.4876  0.1976
19579TIP3    H180228   2.872   2.478  13.599 -0.2352  0.4045 -0.1479
19579TIP3    H280229   2.733   2.536  13.609 -0.0496  0.9348 -0.6223
19580TIP3   OH280230   6.039   6.123   5.071  0.0334  0.4644 -0.3266
19580TIP3    H180231   5.949   6.138   5.041  0.3152  0.7678 -1.0063
19580TIP3    H280232   6.029   6.104   5.165 -0.6180  1.7326 -0.1248
19581TIP3   OH280233   5.664   1.558   3.258  0.2842 -0.5601 -1.1003
19581TIP3    H180234   5.661   1.464   3.239  0.3979 -1.4094  2.6375
19581TIP3    H280235   5.721   1.565   3.334  0.0376  2.5329 -1.1374
19582TIP3   OH280236   6.007   3.308  14.688  0.0076  0.3030  0.3594
19582TIP3    H180237   5.931   3.345  14.641 -0.0542 -0.9571 -0.5615
19582TIP3    H280238   5.998   3.341  14.777 -1.7843 -0.0343  0.3340
19583TIP3   OH280239   1.647   2.105   6.615  0.0752  0.1235 -0.2719
19583TIP3    H180240   1.555   2.080   6.625  0.0979  0.2530  0.2552
19583TIP3    H280241   1.695   2.022   6.612 -0.3118 -0.0702 -3.2556
19584TIP3   OH280242   1.854   2.427  13.392  0.1677  0.4684  0.1517
19584TIP3    H180243   1.906   2.498  13.430 -0.8704  1.3395 -0.0353
19584TIP3    H280244   1.902   2.348  13.415  2.2688  1.3359 -1.1315
19585TIP3   OH280245   4.667   2.056  13.664  0.5199  0.0595 -0.7715
19585TIP3    H180246   4.741   2.054  13.725  0.1343 -1.4044 -0.3229
19585TIP3    H280247   4.627   1.969  13.672 -0.9328  0.6467 -1.3873
19586TIP3   OH280248   4.765   4.774  11.414 -0.0516  0.1161 -0.2428
19586TIP3    H180249   4.745   4.778  11.508 -0.7764 -1.6707 -0.3006
19586TIP3    H280250   4.709   4.703  11.381  2.9355 -1.8255 -1.3112
19587TIP3   OH280251   1.855   6.049  16.582  0.5599 -0.3106  0.4253
19587TIP3    H180252   1.891   5.971  16.623 -1.2501 -2.2214 -1.4456
19587TIP3    H280253   1.768   6.058  16.620  0.7975  0.8796  0.7106
19588TIP3   OH280254   3.008   5.775  11.975  0.4098  0.0512 -0.1836
19588TIP3    H180255   3.008   5.727  12.058  0.8568  2.3204  1.2042
19588TIP3    H280256   3.074   5.732  11.922  1.3279 -0.4099  1.2993
19589TIP3   OH280257   0.482   2.202   0.441  0.6756 -0.7768 -0.0450
19589TIP3    H180258   0.430   2.241   0.510  0.6163 -1.0138  0.0461
19589TIP3    H280259   0.558   2.165   0.486  0.6549 -0.8998 -0.1110
19590TIP3   OH280260   2.669   2.445  14.472 -0.2506 -0.2342  0.1178
19590TIP3    H180261   2.611   2.516  14.500  0.0491 -0.6185  1.7001
19590TIP3    H280262   2.615   2.366  14.478 -0.3349 -0.2656 -0.8791
19591TIP3   OH280263   6.408   5.269  12.417  0.3558  0.4261 -0.0898
19591TIP3    H180264   6.321   5.263  12.457  0.6419  0.8867  0.6117
19591TIP3    H280265   6.461   5.204  12.463  0.1274 -0.5902 -1.2199
19592TIP3   OH280266   2.813   5.510   2.214  0.1681  0.1503  0.2231
19592TIP3    H180267   2.719   5.528   2.207  0.2209 -0.0099 -1.1004
19592TIP3    H280268   2.851   5.551   2.136  1.7235  3.4728  2.6078
19593TIP3   OH280269   0.826   2.967   1.525 -0.0486 -0.0428 -0.6451
19593TIP3    H180270   0.836   3.057   1.496 -0.8611 -0.1898 -1.4106
19593TIP3    H280271   0.796   2.973   1.616 -0.6652  0.4626 -0.8826
19594TIP3   OH280272   4.380   5.304  15.417 -0.6340 -0.1313 -0.1042
19594TIP3    H180273   4.362   5.321  15.324  0.4169  1.3924 -0.0525
19594TIP3    H280274   4.378   5.391  15.457  0.6148 -0.6112  1.0100
19595TIP3   OH280275   0.850   5.504  13.014 -0.1082 -0.0906  0.1008
19595TIP3    H180276   0.785   5.494  12.944 -1.2283 -0.4160  1.1846
19595TIP3    H280277   0.839   5.427  13.069 -0.3976  1.0095  1.6034
19596TIP3   OH280278   1.140   6.042  16.614 -0.4016 -0.1119 -0.4220
19596TIP3    H180279   1.152   6.093  16.694 -2.9746  0.1070 -0.1355
19596TIP3    H280280   1.228   6.035  16.577  0.2986  2.8349  0.5365
19597TIP3   OH280281   3.714   5.723   3.165 -0.6930 -0.0031 -0.5120
19597TIP3    H180282   3.723   5.811   3.129  0.5240 -0.1752 -0.6372
19597TIP3    H280283   3.732   5.665   3.092  1.5748 -0.3500  0.2894
19598TIP3   OH280284   1.862   4.166   2.361  0.2901  0.1170 -0.2079
19598TIP3    H180285   1.888   4.078   2.390 -0.5794  0.0054  0.2216
19598TIP3    H280286   1.848   4.215   2.441 -0.1519  0.3845 -0.4507
19599TIP3   OH280287   1.526   0.200  13.347  0.3152  0.2391  0.3548
19599TIP3    H180288   1.619   0.218  13.359  0.4081 -0.6710  1.0563
19599TIP3    H280289   1.524   0.124  13.289 -0.0422  1.6701 -1.5486
19600TIP3   OH280290   1.123   3.017   5.183  0.3841 -0.4128  0.1028
19600TIP3    H180291   1.077   3.101   5.178  0.8369 -0.1345  0.5590
19600TIP3    H280292   1.101   2.973   5.100 -0.7419 -0.3133  0.3381
19601TIP3   OH280293   4.907   2.573   2.973 -0.3666  0.2790  0.7033
19601TIP3    H180294   4.987   2.626   2.979  0.2647 -0.3695 -1.3823
19601TIP3    H280295   4.927   2.494   3.023  0.9092 -0.5338 -0.9930
19602TIP3   OH280296   3.601   4.561  15.494 -0.3207  0.0582 -0.0436
19602TIP3    H180297   3.542   4.620  15.447 -0.8381 -0.2341  0.2344
19602TIP3    H280298   3.675   4.548  15.434 -1.1115 -0.5396 -0.8961
19603TIP3   OH280299   4.359   3.104   3.236 -0.2512  0.1484 -0.0029
19603TIP3    H180300   4.356   3.078   3.144 -3.3876  0.7822 -0.1192
19603TIP3    H280301   4.361   3.199   3.233 -0.1793  0.1626  0.5990
19604TIP3   OH280302   2.743   2.991   4.439 -0.1914 -0.2205 -0.0876
19604TIP3    H180303   2.804   2.998   4.365  0.4958  0.8144  0.5524
19604TIP3    H280304   2.703   3.078   4.444 -2.5735 -1.2002 -1.1897
19605TIP3   OH280305   1.941   1.924  11.440  0.2638  1.0049  0.0828
19605TIP3    H180306   1.960   1.836  11.473  0.6035  0.8176 -0.5926
19605TIP3    H280307   1.996   1.982  11.493 -0.4018  0.8748  0.9263
19606TIP3   OH280308   2.650   2.954   0.274  0.3026 -0.3281 -0.3129
19606TIP3    H180309   2.591   3.004   0.217  0.2298  1.3626  1.1808
19606TIP3    H280310   2.734   2.956   0.229  0.6894  2.5439  0.4424
19607TIP3   OH280311   5.940   5.094  15.369 -0.3016 -0.5039  0.6760
19607TIP3    H180312   5.885   5.109  15.292 -0.6072  1.2845  1.2193
19607TIP3    H280313   5.888   5.037  15.425 -0.0375 -1.9023 -0.4618
19608TIP3   OH280314   4.625   4.759   1.672  0.6492 -0.0815 -0.0385
19608TIP3    H180315   4.534   4.730   1.664  0.5120  0.7331 -1.7021
19608TIP3    H280316   4.621   4.854   1.656  1.8863 -0.1735 -0.9507
19609TIP3   OH280317   6.752   6.103   1.164 -0.0700  0.2680 -0.1676
19609TIP3    H180318   6.826   6.089   1.222 -0.3766 -1.3454 -0.1303
19609TIP3    H280319   6.749   6.024   1.110 -0.4900  1.2312 -1.5972
19610TIP3   OH280320   5.730   1.196  11.284  0.0155 -0.0786 -0.1262
19610TIP3    H180321   5.657   1.150  11.241 -0.6099 -1.7141  2.6011
19610TIP3    H280322   5.697   1.285  11.298 -0.3964 -0.0101 -1.4368
19611TIP3   OH280323   0.556   6.205   5.849  0.0416  0.5315  0.0371
19611TIP3    H180324   0.619   6.231   5.781  0.9923  0.8772  1.0393
19611TIP3    H280325   0.547   6.110   5.837  0.4168  0.5450 -0.3958
19612TIP3   OH280326   3.533   0.984   0.201  0.1855  0.5479 -0.5131
19612TIP3    H180327   3.500   0.903   0.163  1.0586 -1.8996  3.7129
19612TIP3    H280328   3.626   0.968   0.216  0.1436  1.9278  1.3420
19613TIP3   OH280329   6.494   3.435  14.494  0.2797 -0.0606 -0.6807
19613TIP3    H180330   6.415   3.436  14.548 -0.2833  0.9559 -1.4923
19613TIP3    H280331   6.462   3.432  14.404  1.1686  0.1391 -1.0126
19614TIP3   OH280332   4.099   6.179  16.562  0.0663  0.3721 -0.2811
19614TIP3    H180333   4.005   6.165  16.551  0.5485 -1.1192 -2.7606
19614TIP3    H280334   4.126   6.224  16.482  1.5833  0.2000  0.1204
19615TIP3   OH280335   6.104   5.438  15.949 -0.7944 -0.0079  0.6831
19615TIP3    H180336   6.032   5.422  16.010 -0.7944  0.5765  0.8438
19615TIP3    H280337   6.157   5.506  15.992 -1.7837  1.7317 -0.7427
19616TIP3   OH280338   1.707   5.902  11.155  0.4359 -0.1784 -0.2840
19616TIP3    H180339   1.765   5.914  11.230  0.6477 -2.2544 -0.0706
19616TIP3    H280340   1.759   5.931  11.080  1.8765 -2.1680 -0.1164
19617TIP3   OH280341   4.220   1.755   3.320 -0.1277 -0.7629 -0.6078
19617TIP3    H180342   4.152   1.690   3.304 -0.4533 -1.5874  3.6076
19617TIP3    H280343   4.175   1.840   3.316 -0.4876 -1.0035 -2.0519
19618TIP3   OH280344   3.305   3.768  16.083 -0.0527  0.2654  0.1841
19618TIP3    H180345   3.359   3.690  16.070  0.2634  0.5419 -0.1779
19618TIP3    H280346   3.326   3.825  16.008 -0.7201  0.4466  0.1302
19619TIP3   OH280347   3.461   1.603  16.779  0.3434  0.6745 -0.4748
19619TIP3    H180348   3.479   1.515  16.812 -1.6152  0.6695  0.6599
19619TIP3    H280349   3.483   1.661  16.853 -1.1635  0.8963 -0.1925
19620TIP3   OH280350   6.491   1.578   4.148  0.5196  0.0604 -0.9671
19620TIP3    H180351   6.490   1.673   4.161 -0.8845  0.0273 -0.7528
19620TIP3    H280352   6.582   1.558   4.124  1.1686  1.2628  0.3808
19621TIP3   OH280353   5.789   3.871   3.145 -0.1033  0.3616 -0.0547
19621TIP3    H180354   5.789   3.882   3.240  0.8418 -0.3138  0.0320
19621TIP3    H280355   5.844   3.794   3.130 -0.5054  0.2727 -1.1298
19622TIP3   OH280356   2.234   0.488  12.753  0.4156 -0.1816 -0.4141
19622TIP3    H180357   2.315   0.517  12.795  0.8101 -0.9781 -0.6096
19622TIP3    H280358   2.227   0.542  12.674  0.8131 -0.1828 -0.4536
19623TIP3   OH280359   4.814   2.576  16.826  0.5509  0.2669  0.4999
19623TIP3    H180360   4.780   2.525  16.752  2.2385 -0.3617  0.1336
19623TIP3    H280361   4.754   2.557  16.898 -1.1706  0.9406 -0.7071
19624TIP3   OH280362   4.029   4.835   3.007  0.1061  0.0528  0.1414
19624TIP3    H180363   4.042   4.744   3.034 -2.6275 -0.4142 -0.0033
19624TIP3    H280364   4.073   4.886   3.075  1.0788 -1.3644  0.5985
19625TIP3   OH280365   0.092   2.934  13.886 -0.0554  0.2475 -0.0723
19625TIP3    H180366   0.058   2.913  13.972 -0.7219 -0.1640 -0.4352
19625TIP3    H280367   0.141   3.016  13.898  0.8889 -0.4533  0.9399
19626TIP3   OH280368   2.998   5.862  10.557  0.2970 -0.5083 -0.4775
19626TIP3    H180369   3.032   5.897  10.639 -1.8057  1.0520 -0.2288
19626TIP3    H280370   2.937   5.929  10.526 -2.0850 -2.9079 -1.1743
19627TIP3   OH280371   5.370   4.945  15.066  0.0856  0.0916 -0.2759
19627TIP3    H180372   5.404   4.855  15.064  1.3166  0.5153  0.4624
19627TIP3    H280373   5.377   4.976  14.976  1.9714  0.2526 -0.1059
19628TIP3   OH280374   1.225   3.828   5.499  0.0535  0.0651 -0.2501
19628TIP3    H180375   1.191   3.837   5.588  1.2818  1.1098  0.1337
19628TIP3    H280376   1.266   3.742   5.497 -0.6018 -0.2555 -0.0248
19629TIP3   OH280377   4.167   3.751  17.043 -0.4074 -0.0426  0.0821
19629TIP3    H180378   4.161   3.715  17.131 -1.7147 -1.3262 -0.5197
19629TIP3    H280379   4.094   3.813  17.038  0.0761  0.5381  0.1187
19630TIP3   OH280380   5.723   3.022  14.275 -0.1921  0.0477  0.3955
19630TIP3    H180381   5.813   3.048  14.254 -0.3248 -0.3576 -0.6811
19630TIP3    H280382   5.733   2.941  14.325  0.1245  1.0281  1.9565
19631TIP3   OH280383   2.539   1.856  15.220  0.5254  0.3472 -0.1645
19631TIP3    H180384   2.582   1.937  15.247 -1.9303  1.8233 -0.5613
19631TIP3    H280385   2.463   1.849  15.278  1.8085 -2.7743  1.2586
19632TIP3   OH280386   4.004   5.689  15.032 -0.0349  0.0399  0.8055
19632TIP3    H180387   3.966   5.776  15.040 -1.3896 -0.4621  0.1547
19632TIP3    H280388   4.027   5.682  14.939  0.5572 -0.1036  0.9600
19633TIP3   OH280389   1.274   5.705  13.969 -0.4685  0.2167 -0.0339
19633TIP3    H180390   1.330   5.690  13.893  0.0563 -1.1059  0.6086
19633TIP3    H280391   1.334   5.724  14.040 -0.9127  0.3703  0.3062
19634TIP3   OH280392   4.040   1.855  15.867 -0.6317 -0.1426 -0.1985
19634TIP3    H180393   3.951   1.849  15.901 -0.9636  0.3721 -0.9896
19634TIP3    H280394   4.053   1.773  15.820 -1.0475  0.2224 -0.9550
19635TIP3   OH280395   2.516   6.214  14.919  0.5409 -0.8438 -0.6752
19635TIP3    H180396   2.573   6.153  14.966  2.2247  1.6014  0.6174
19635TIP3    H280397   2.525   6.296  14.967 -2.9066  0.0311 -1.4023
19636TIP3   OH280398   4.548   4.632   0.462 -0.0197  0.6079 -0.0918
19636TIP3    H180399   4.613   4.673   0.520  0.0222  0.0799  0.2424
19636TIP3    H280400   4.522   4.702   0.402  0.3701  1.0044  0.1935
19637TIP3   OH280401   0.673   2.529  11.838  0.1574 -0.1791  0.1940
19637TIP3    H180402   0.585   2.566  11.840 -0.0235 -0.7239  2.1040
19637TIP3    H280403   0.692   2.504  11.928  3.5342  2.9529  0.4796
19638TIP3   OH280404   2.617   1.408  16.450  0.0977 -0.1204 -0.2959
19638TIP3    H180405   2.570   1.329  16.424 -0.1640 -0.1819  0.3693
19638TIP3    H280406   2.643   1.392  16.541  2.8212 -0.7881 -1.1278
19639TIP3   OH280407   2.060   3.523  15.773 -0.5030  0.5046 -1.1396
19639TIP3    H180408   2.148   3.501  15.743  0.6375  1.8957  1.0558
19639TIP3    H280409   2.035   3.600  15.722  0.5401  1.5513 -0.0895
19640TIP3   OH280410   3.469   3.580   5.021  0.4368  0.0763  0.0681
19640TIP3    H180411   3.552   3.569   4.975 -0.0573  2.3580 -1.4161
19640TIP3    H280412   3.414   3.630   4.961 -0.9021  1.3882  2.3049
19641TIP3   OH280413   4.026   6.102   0.127  0.3958 -0.3839 -0.1038
19641TIP3    H180414   4.042   6.117   0.220  1.1853 -1.3833 -0.0626
19641TIP3    H280415   3.940   6.059   0.124  0.5906 -0.8024  0.2101
19642TIP3   OH280416   2.673   1.140   1.588  0.2035  0.7707 -0.2701
19642TIP3    H180417   2.676   1.224   1.634  1.2917  1.0841 -0.8840
19642TIP3    H280418   2.762   1.106   1.597  1.0229  1.7815 -3.8676
19643TIP3   OH280419   1.101   6.582   4.928 -0.1458  0.1873 -0.0873
19643TIP3    H180420   1.022   6.561   4.879 -0.8633  0.1933  1.0383
19643TIP3    H280421   1.088   6.673   4.956 -0.4311 -0.2897  1.3667
19644TIP3   OH280422   0.217   3.076   3.416 -0.3092  0.8397  0.0772
19644TIP3    H180423   0.140   3.131   3.417  0.0027  1.2797  0.0245
19644TIP3    H280424   0.259   3.092   3.501 -0.2018  0.7040  0.0514
19645TIP3   OH280425   3.017   5.787  13.451 -0.1444  0.3048 -0.3617
19645TIP3    H180426   2.943   5.823  13.499 -2.4000 -1.3192 -2.4994
19645TIP3    H280427   3.059   5.727  13.513 -0.2570  1.6284  1.0373
19646TIP3   OH280428   2.170   3.031   1.782  0.0223  0.3750  0.2541
19646TIP3    H180429   2.191   3.081   1.861  1.8344  0.5892 -0.3328
19646TIP3    H280430   2.134   3.096   1.722  0.5289  0.6027  0.1939
19647TIP3   OH280431   6.469   6.549   0.495 -0.0936  0.0870 -0.0368
19647TIP3    H180432   6.421   6.479   0.539  1.0119 -0.3916  0.4265
19647TIP3    H280433   6.401   6.602   0.454 -1.1319  0.2404  1.7975
19648TIP3   OH280434   1.884   3.897  13.474  0.4548 -0.1978  0.1640
19648TIP3    H180435   1.963   3.948  13.457  0.7718 -0.8731 -0.4456
19648TIP3    H280436   1.899   3.857  13.559 -0.6462  2.2880  1.5948
19649TIP3   OH280437   5.394   5.807  14.814  0.0733  0.1700  0.2284
19649TIP3    H180438   5.330   5.877  14.804 -0.6172 -0.0774  2.7484
19649TIP3    H280439   5.434   5.822  14.899  2.7435 -0.2317 -0.8929
19650TIP3   OH280440   3.951   5.982  10.561  0.6492  0.0570 -0.3783
19650TIP3    H180441   4.028   5.937  10.596  0.1436 -0.5412 -0.0205
19650TIP3    H280442   3.907   5.917  10.507  1.1727  0.8372 -1.7786
19651TIP3   OH280443   4.226   4.559   4.272 -0.3368  0.3720  0.0025
19651TIP3    H180444   4.310   4.544   4.229  1.9473  1.7238  3.7291
19651TIP3    H280445   4.192   4.472   4.292  0.2523 -0.1850 -1.4108
19652TIP3   OH280446   1.403   0.059  14.486  0.4389 -0.2008  0.2785
19652TIP3    H180447   1.385   0.088  14.397 -1.3884 -1.8515  0.0832
19652TIP3    H280448   1.447  -0.025  14.475 -0.1376 -0.5928  0.9306
19653TIP3   OH280449   1.695   2.351   3.880  0.0223  0.0968 -0.2967
19653TIP3    H180450   1.732   2.266   3.856  0.8163 -0.0388  1.3675
19653TIP3    H280451   1.645   2.334   3.960  0.4021  1.2498  0.1930
19654TIP3   OH280452   2.845   0.927   1.508  0.2201  0.3035 -0.0443
19654TIP3    H180453   2.778   0.957   1.447 -1.2074 -0.1631  1.2643
19654TIP3    H280454   2.928   0.949   1.465 -0.7374 -0.5919 -2.4195
19655TIP3   OH280455   5.123   0.551  11.227  0.5774 -0.1071 -0.5126
19655TIP3    H180456   5.150   0.509  11.308  1.5292  0.7689 -0.3691
19655TIP3    H280457   5.181   0.516  11.160 -1.0492 -1.8178 -1.0799
19656TIP3   OH280458   4.938   1.562  12.128  0.0618  0.0843  0.5599
19656TIP3    H180459   4.907   1.639  12.080  0.2376  0.0694  0.4190
19656TIP3    H280460   4.979   1.507  12.060  1.2396  0.5378  0.8844
19657TIP3   OH280461   3.524   5.209   5.279  0.2157  0.0160 -0.0793
19657TIP3    H180462   3.495   5.300   5.288 -0.4330 -0.2740  0.7867
19657TIP3    H280463   3.451   5.164   5.239  1.2611  0.2633 -2.3314
19658TIP3   OH280464   3.949   3.376  16.346  0.0323 -0.0416 -0.2325
19658TIP3    H180465   3.882   3.438  16.319 -0.4175 -0.9083 -1.1359
19658TIP3    H280466   3.949   3.309  16.277  2.9412  0.7812 -1.0941
19659TIP3   OH280467   6.013   5.089   2.960  0.1975  0.4011 -0.0302
19659TIP3    H180468   6.028   5.035   3.037 -1.9042 -1.4210 -0.8441
19659TIP3    H280469   6.057   5.042   2.889 -1.8223 -0.4255 -0.7797
19660TIP3   OH280470   2.950   0.368   3.882 -0.0819 -0.0340 -0.3150
19660TIP3    H180471   3.001   0.448   3.894 -1.4669  0.8276 -0.1561
19660TIP3    H280472   2.957   0.349   3.789  0.7125 -0.0552 -0.2597
19661TIP3   OH280473   2.419   5.312  12.593 -0.4331 -0.2760  0.3012
19661TIP3    H180474   2.515   5.311  12.587 -0.4234  0.1456  0.3716
19661TIP3    H280475   2.391   5.239  12.538 -0.0658 -0.4753  0.3747
19662TIP3   OH280476   5.934   5.448  16.720  0.4535  0.4948  0.5719
19662TIP3    H180477   5.890   5.510  16.662 -0.2073 -1.6520 -1.2939
19662TIP3    H280478   5.980   5.388  16.661 -0.8959 -2.2355  2.1838
19663TIP3   OH280479   1.104   1.124  13.608  0.3135 -0.1128 -0.3206
19663TIP3    H180480   1.061   1.046  13.573  0.5593 -0.9303  1.1393
19663TIP3    H280481   1.174   1.142  13.546 -1.1377  0.2998 -1.8816
19664TIP3   OH280482   2.247   2.120   6.562  0.4225 -0.3657 -0.8134
19664TIP3    H180483   2.338   2.133   6.534  0.7139 -1.1645 -0.2588
19664TIP3    H280484   2.213   2.209   6.573  1.2266 -0.0593 -0.7334
19665TIP3   OH280485   4.920   5.317   3.935  0.9139 -0.2758  0.2195
19665TIP3    H180486   4.971   5.288   3.860 -0.1459 -1.0450 -0.2131
19665TIP3    H280487   4.983   5.366   3.989  2.2683 -1.7405  0.0201
19666TIP3   OH280488   0.110   4.105  11.025 -0.3908 -0.0593  0.7672
19666TIP3    H180489   0.097   4.120  11.119  0.5936 -0.4364  0.9669
19666TIP3    H280490   0.161   4.180  10.996  1.0760 -0.9733  0.9529
19667TIP3   OH280491   2.756   3.264   2.865 -0.1711 -0.0072  0.8101
19667TIP3    H180492   2.691   3.292   2.800 -0.8418 -0.5494  1.2352
19667TIP3    H280493   2.731   3.311   2.945  0.4042  0.3438  0.7878
19668TIP3   OH280494   3.476   4.490  11.518  0.1027  0.4444 -0.1489
19668TIP3    H180495   3.490   4.496  11.424 -0.4456  1.4371 -0.1834
19668TIP3    H280496   3.443   4.577  11.543 -2.5097 -0.6709  0.4701
19669TIP3   OH280497   6.116   1.260  12.251  0.2370  0.6103  0.0895
19669TIP3    H180498   6.076   1.193  12.197  0.4421 -0.3610  1.1328
19669TIP3    H280499   6.117   1.223  12.339 -0.4499  2.3209  0.8427
19670TIP3   OH280500   5.894   4.857   2.493 -0.3389 -0.1185  0.0199
19670TIP3    H180501   5.818   4.891   2.542 -0.5875 -0.7763  0.1072
19670TIP3    H280502   5.946   4.934   2.473  0.7402 -0.0050  2.9915
19671TIP3   OH280503   1.456   6.410   1.836  0.3192  0.1014  0.4949
19671TIP3    H180504   1.504   6.371   1.764  3.2555  1.6638  1.5402
19671TIP3    H280505   1.449   6.340   1.901  1.1430 -0.1711  0.2955
19672TIP3   OH280506   1.961   6.496  14.816  0.0816 -0.2679  0.2875
19672TIP3    H180507   1.991   6.565  14.757  0.0480 -1.7945 -1.5764
19672TIP3    H280508   2.033   6.484  14.877  0.8545  0.1437 -0.5317
19673TIP3   OH280509   0.047   0.917  12.975  0.0688 -0.8186 -0.0780
19673TIP3    H180510  -0.048   0.929  12.978 -0.2179 -1.7608 -3.3307
19673TIP3    H280511   0.061   0.827  13.006 -0.1390 -0.8779 -0.1595
19674TIP3   OH280512   6.513   2.584   0.380 -0.2690 -0.1085  0.7727
19674TIP3    H180513   6.502   2.678   0.391 -0.1696 -0.1817  1.5382
19674TIP3    H280514   6.425   2.550   0.367 -0.2974  0.1016  0.4309
19675TIP3   OH280515   2.278   2.329   2.975 -0.3661  0.2810 -0.2285
19675TIP3    H180516   2.235   2.347   3.058 -0.0498 -0.1842  0.0370
19675TIP3    H280517   2.209   2.339   2.910 -0.5868  0.7637  0.0792
19676TIP3   OH280518   4.422   0.369   2.347 -0.0287 -0.0979  0.3333
19676TIP3    H180519   4.473   0.439   2.306 -1.5709 -0.0670 -1.6160
19676TIP3    H280520   4.488   0.310   2.383  1.3351  1.2341  0.0817
19677TIP3   OH280521   3.105   3.926   0.986  0.0635  0.6327 -0.2763
19677TIP3    H180522   3.174   3.860   0.998 -0.0532  0.4430 -0.6592
19677TIP3    H280523   3.094   3.964   1.073  1.7513  1.7410 -0.5152
19678TIP3   OH280524   2.337   0.887   2.887 -0.0430 -0.2793  0.3747
19678TIP3    H180525   2.305   0.924   2.805  0.6858 -1.4215 -0.4237
19678TIP3    H280526   2.277   0.922   2.953 -0.8584  0.3489 -0.6817
19679TIP3   OH280527   2.558   0.639   5.217  0.1559  0.0358 -0.2651
19679TIP3    H180528   2.570   0.730   5.193  2.4044 -0.0604  0.4509
19679TIP3    H280529   2.519   0.642   5.305  2.2603  0.3038  0.6757
19680TIP3   OH280530   6.495   2.874  13.372  0.3408 -0.1498  0.0726
19680TIP3    H180531   6.489   2.937  13.301  1.8380  0.4696  0.4564
19680TIP3    H280532   6.493   2.927  13.452 -0.2098 -0.7351  0.4522
19681TIP3   OH280533   0.724   2.556  12.145  0.2574 -0.2259  0.0325
19681TIP3    H180534   0.797   2.585  12.091  0.5722 -2.0251 -0.5556
19681TIP3    H280535   0.721   2.618  12.218  1.8889  0.3127 -0.3427
19682TIP3   OH280536   6.663   2.250  17.226  0.3151  0.0316 -0.5808
19682TIP3    H180537   6.701   2.327  17.184  2.5748 -2.2444 -2.8271
19682TIP3    H280538   6.598   2.218  17.164 -0.5392  0.0194  0.3006
19683TIP3   OH280539   4.762   5.465  10.570 -0.4446  0.3709 -0.0368
19683TIP3    H180540   4.701   5.524  10.614 -1.7143 -0.9136 -0.0269
19683TIP3    H280541   4.740   5.474  10.477  0.9394  1.6485 -0.2543
19684TIP3   OH280542   3.855   4.556  16.794 -0.0937  0.2095 -0.5739
19684TIP3    H180543   3.875   4.592  16.880 -0.1017 -0.0421 -0.4654
19684TIP3    H280544   3.860   4.631  16.735  2.4688 -0.0293 -0.7535
19685TIP3   OH280545   0.663   3.170   1.388 -0.0054  0.0142  0.4539
19685TIP3    H180546   0.730   3.177   1.320  0.4255 -0.4736  0.8283
19685TIP3    H280547   0.623   3.257   1.391  0.9341  0.4389  0.5690
19686TIP3   OH280548   6.473   3.107  15.688  0.1127  0.2631  0.1902
19686TIP3    H180549   6.522   3.050  15.628  1.1936 -0.5053  1.7871
19686TIP3    H280550   6.388   3.118  15.645  0.9094 -0.1466 -1.5638
19687TIP3   OH280551   4.395   3.388   2.575 -0.1531 -0.4013 -0.3565
19687TIP3    H180552   4.478   3.367   2.531  0.5070 -0.6826  0.9881
19687TIP3    H280553   4.330   3.334   2.529  0.6405 -1.2542 -0.5025
19688TIP3   OH280554   0.891   2.905  16.255  0.3198 -0.2649  0.2516
19688TIP3    H180555   0.902   2.938  16.345  0.1219 -0.8617  0.5001
19688TIP3    H280556   0.856   2.817  16.267  0.8416 -0.5571 -0.4061
19689TIP3   OH280557   5.141   2.996   4.499  0.6575  0.2776  0.2318
19689TIP3    H180558   5.099   2.947   4.570 -0.2491  0.2773 -0.2884
19689TIP3    H280559   5.201   2.934   4.459  0.0040 -0.2100 -0.0012
19690TIP3   OH280560   5.767   5.990   0.308 -0.4483  0.1996 -0.3102
19690TIP3    H180561   5.738   5.944   0.230  0.4133  2.5957 -2.1079
19690TIP3    H280562   5.702   6.060   0.320 -0.1297  0.3432  0.6495
19691TIP3   OH280563   1.279   1.776   5.539 -0.5285 -0.3798 -0.0095
19691TIP3    H180564   1.341   1.730   5.595 -0.2452 -0.9308 -0.7716
19691TIP3    H280565   1.308   1.868   5.542 -1.6422 -0.0613  2.2354
19692TIP3   OH280566   5.969   6.433   5.161 -0.5119  0.2554 -0.3186
19692TIP3    H180567   5.900   6.494   5.135 -0.4358  1.3374  1.8967
19692TIP3    H280568   5.991   6.458   5.251  0.7223 -1.9515  0.0374
19693TIP3   OH280569   2.328   2.402  15.346 -0.3244  0.2667 -0.3631
19693TIP3    H180570   2.270   2.443  15.411  0.3651 -1.3261  1.2951
19693TIP3    H280571   2.313   2.308  15.356  0.1049 -0.0191 -2.2484
19694TIP3   OH280572   2.055   1.036   5.658  0.1971  0.7252  0.0861
19694TIP3    H180573   2.046   1.121   5.700 -0.6416  0.7017 -0.0302
19694TIP3    H280574   2.126   1.047   5.596 -0.2340  1.4913 -0.2808
19695TIP3   OH280575   4.615   4.190  11.355 -0.0875 -0.2902 -0.3036
19695TIP3    H180576   4.591   4.218  11.444 -0.2017 -0.7327 -0.1929
19695TIP3    H280577   4.707   4.215  11.346 -0.3395  0.6360 -0.4148
19696TIP3   OH280578   5.706   0.837  15.470  0.1539  0.5379  0.4836
19696TIP3    H180579   5.751   0.770  15.522 -1.1139 -1.7221 -1.2758
19696TIP3    H280580   5.619   0.843  15.509 -0.3893 -0.2788 -0.5964
19697TIP3   OH280581   2.199   2.436   5.286  0.2302  0.0078 -0.3382
19697TIP3    H180582   2.225   2.347   5.310  0.0911 -0.1602 -0.8116
19697TIP3    H280583   2.127   2.457   5.345  1.8781  0.7346  1.4746
19698TIP3   OH280584   4.856   0.778   5.497  0.5033  0.3879 -0.4475
19698TIP3    H180585   4.764   0.756   5.485  1.1243 -3.1432  0.6270
19698TIP3    H280586   4.874   0.845   5.431 -2.5728  0.4573 -1.2834
19699TIP3   OH280587   4.661   1.317   0.330  0.0027  0.6850  0.0299
19699TIP3    H180588   4.589   1.367   0.368  1.4975  1.0071  2.4933
19699TIP3    H280589   4.736   1.376   0.334  1.4260 -1.1585  1.4948
19700TIP3   OH280590   3.099   4.400   0.332 -0.3900 -0.0973  0.7435
19700TIP3    H180591   3.014   4.390   0.375 -0.8808 -0.0949 -0.2110
19700TIP3    H280592   3.115   4.495   0.331 -0.4083 -0.0935  0.8719
19701TIP3   OH280593   5.584   2.976  14.665  0.0535  0.6474  0.2730
19701TIP3    H180594   5.646   3.032  14.711 -0.6246  0.4656  1.4175
19701TIP3    H280595   5.582   2.895  14.716 -0.4358  0.3133 -0.2735
19702TIP3   OH280596   3.433   5.085   4.186  0.1648  0.1284 -0.4787
19702TIP3    H180597   3.502   5.081   4.121 -0.1893  0.8420 -0.9082
19702TIP3    H280598   3.409   4.994   4.202 -0.5949 -0.0109 -2.2660
19703TIP3   OH280599   4.350   4.733   1.596 -0.0181  0.1645  0.4598
19703TIP3    H180600   4.385   4.645   1.579 -0.0826 -0.1422  1.8167
19703TIP3    H280601   4.338   4.771   1.510 -0.5599 -1.3886 -0.1703
19704TIP3   OH280602   0.000   2.557   3.350 -0.3075 -0.1108  0.3563
19704TIP3    H180603  -0.088   2.595   3.353 -1.1687 -1.9975  0.0235
19704TIP3    H280604   0.049   2.604   3.417 -1.7343  0.5906  0.9281
19705TIP3   OH280605   2.153   5.421  12.613  0.3455 -0.0532  0.2881
19705TIP3    H180606   2.248   5.413  12.601 -0.0261 -1.4009 -1.9250
19705TIP3    H280607   2.130   5.347  12.669  0.2983 -1.0574 -1.0313
19706TIP3   OH280608   0.963   5.219  16.206  0.4703  0.2200  0.2436
19706TIP3    H180609   1.029   5.258  16.150  1.0849 -0.9445  0.1426
19706TIP3    H280610   1.012   5.163  16.266 -0.4220 -0.7257  0.1136
19707TIP3   OH280611   6.018   1.447  14.615  0.2751  0.0784  1.0334
19707TIP3    H180612   6.043   1.400  14.535 -0.0108  0.8490  0.4827
19707TIP3    H280613   6.100   1.454  14.665  0.5284 -0.1038  0.6488
19708TIP3   OH280614   6.172   5.270   4.925 -0.5464 -0.2981 -0.6177
19708TIP3    H180615   6.101   5.275   4.860  0.7130  1.6557 -1.9110
19708TIP3    H280616   6.247   5.309   4.880  0.8788 -0.7159  1.3691
19709TIP3   OH280617   6.619   4.444  16.639  0.0040 -0.1195  0.0964
19709TIP3    H180618   6.641   4.535  16.657 -0.7342 -0.2125  1.5090
19709TIP3    H280619   6.703   4.398  16.643  0.0757  0.1381  1.6345
19710TIP3   OH280620   3.602   1.375   5.765 -0.4909 -0.4433  0.7618
19710TIP3    H180621   3.587   1.399   5.856 -0.5125  1.7633  0.2085
19710TIP3    H280622   3.672   1.433   5.736 -0.6086 -0.9961 -0.6727
19711TIP3   OH280623   4.103   6.470   0.909  0.1702  0.5728  0.3319
19711TIP3    H180624   4.079   6.396   0.853 -0.4679  1.9340 -1.2670
19711TIP3    H280625   4.198   6.473   0.906  0.2424 -0.7608  1.1917
19712TIP3   OH280626   4.382   1.949   2.476 -0.2927 -0.5083  0.7743
19712TIP3    H180627   4.342   1.890   2.540  0.8288 -1.6301  0.4624
19712TIP3    H280628   4.468   1.912   2.460  0.2126  0.9114  0.1368
19713TIP3   OH280629   0.440   5.548  11.152 -0.3279  0.0099 -0.0271
19713TIP3    H180630   0.391   5.630  11.141  0.1001  0.1385 -1.0418
19713TIP3    H280631   0.478   5.554  11.239  0.2525  1.1885 -0.3587
19714TIP3   OH280632   5.186   0.937  16.373 -0.0837  0.3536  0.0861
19714TIP3    H180633   5.217   0.958  16.462  0.7465 -0.6609  0.0501
19714TIP3    H280634   5.113   0.997  16.358  1.0868  1.9690  0.6645
19715TIP3   OH280635   1.977   5.290  16.755  0.2501 -0.6297 -0.1232
19715TIP3    H180636   2.006   5.300  16.664 -0.0981 -0.1937 -0.1926
19715TIP3    H280637   1.885   5.265  16.748  0.3204 -0.9510  0.1038
19716TIP3   OH280638   3.501   2.983  14.303  0.5098  0.2683  0.5536
19716TIP3    H180639   3.413   2.970  14.268  0.5463 -0.2585  0.6574
19716TIP3    H280640   3.558   2.933  14.244  0.3929 -2.0288  2.3086
19717TIP3   OH280641   0.399   3.599  12.277  0.1326 -0.0668  0.2559
19717TIP3    H180642   0.491   3.575  12.272  0.2818  0.4990  0.2291
19717TIP3    H280643   0.357   3.527  12.324  0.4764 -0.6282 -0.2871
19718TIP3   OH280644   3.705   6.347   5.469  1.2943 -0.1651 -0.2225
19718TIP3    H180645   3.659   6.418   5.424  0.8531 -2.4463 -3.5912
19718TIP3    H280646   3.636   6.299   5.515  0.9756 -0.7152 -1.2494
19719TIP3   OH280647   1.151   6.522  15.816 -0.1266 -0.2341 -0.1683
19719TIP3    H180648   1.229   6.576  15.804  0.9993 -1.8478 -0.2467
19719TIP3    H280649   1.177   6.455  15.879 -2.1001  0.4679  1.4164
19720TIP3   OH280650   2.552   5.657   5.169  0.0199  0.0990  0.3042
19720TIP3    H180651   2.619   5.725   5.174  1.2965 -1.1856  0.9864
19720TIP3    H280652   2.491   5.678   5.240 -0.8545  1.8063 -0.9068
19721TIP3   OH280653   1.602   5.304   4.911  0.1928  1.1298  0.2134
19721TIP3    H180654   1.579   5.364   4.982  0.9340  0.4706  1.0168
19721TIP3    H280655   1.523   5.250   4.900 -0.1008  1.5604  0.1981
19722TIP3   OH280656   4.958   2.687   4.477  0.1763 -0.2025  0.1263
19722TIP3    H180657   4.913   2.719   4.399  0.4461  0.7016  0.3434
19722TIP3    H280658   5.017   2.619   4.444  2.4406  2.1561 -0.9174
19723TIP3   OH280659   5.570   0.155  14.120 -0.1681 -0.4269 -0.7075
19723TIP3    H180660   5.532   0.081  14.168  1.2862 -0.8203 -0.1491
19723TIP3    H280661   5.664   0.148  14.135  0.0006  1.4861 -0.7373
19724TIP3   OH280662   4.947   1.377  11.693 -0.1137  0.0489 -0.0498
19724TIP3    H180663   4.976   1.443  11.630  1.4003  0.0119  0.5964
19724TIP3    H280664   4.893   1.317  11.641  0.0403  0.7525 -1.0317
19725TIP3   OH280665   0.276   0.441  16.495  0.6620  0.7974 -0.3909
19725TIP3    H180666   0.313   0.394  16.569  1.5426 -0.3378 -1.5441
19725TIP3    H280667   0.310   0.530  16.504  1.2540  0.5131  0.2111
19726TIP3   OH280668   4.878   1.055  14.410 -0.8684 -0.3758 -0.7816
19726TIP3    H180669   4.852   1.091  14.325  0.0820  0.1013 -0.8723
19726TIP3    H280670   4.796   1.051  14.460 -1.3487 -0.1960 -1.5473
19727TIP3   OH280671   5.289   6.764  13.733  0.5517 -0.2633  0.0756
19727TIP3    H180672   5.370   6.811  13.753  1.7258 -1.7781 -0.9902
19727TIP3    H280673   5.234   6.829  13.688  1.5007  0.5422  0.0655
19728TIP3   OH280674   0.264   5.027  14.241 -0.2425 -0.3024 -0.0586
19728TIP3    H180675   0.257   5.120  14.262 -0.2226 -0.1182 -0.8473
19728TIP3    H280676   0.358   5.010  14.234 -0.2388 -0.4291  0.2779
19729TIP3   OH280677   2.654   2.670   3.909 -0.4395  0.3542 -0.1027
19729TIP3    H180678   2.674   2.592   3.961 -0.6603  0.2036 -0.2453
19729TIP3    H280679   2.639   2.637   3.821  0.7494  0.7021 -0.4443
19730TIP3   OH280680   5.918   2.748  11.531  0.4233 -0.1009  0.2337
19730TIP3    H180681   5.859   2.803  11.582  1.8979  0.2744  1.5701
19730TIP3    H280682   5.994   2.735  11.587  1.4629 -0.8885 -1.3042
19731TIP3   OH280683   5.211   5.158  11.426  0.0825  0.3458 -0.1738
19731TIP3    H180684   5.237   5.114  11.345 -4.0845 -0.6289 -1.1359
19731TIP3    H280685   5.197   5.088  11.489  3.4914  1.1146  1.5259
19732TIP3   OH280686   2.127   1.795   5.181  0.2832  0.1713  0.9822
19732TIP3    H180687   2.183   1.746   5.242  2.8704  1.0017 -0.6326
19732TIP3    H280688   2.128   1.884   5.215  0.4850  0.3251  0.5659
19733TIP3   OH280689   2.175   5.213  12.330 -0.1804  0.4153  0.1401
19733TIP3    H180690   2.089   5.228  12.368  0.9499  2.8282  1.9494
19733TIP3    H280691   2.212   5.141  12.381 -1.3851 -1.1300 -1.1403
19734TIP3   OH280692   2.325   5.931   6.961 -0.2728  0.3008  0.1666
19734TIP3    H180693   2.383   6.007   6.966 -0.1735  0.3733 -1.6944
19734TIP3    H280694   2.238   5.967   6.944 -0.4452  0.0588  0.5115
19735TIP3   OH280695   6.159   4.744   6.137  0.4780  0.2071 -0.0961
19735TIP3    H180696   6.138   4.663   6.183  0.2546  0.8085  0.8823
19735TIP3    H280697   6.229   4.720   6.076  1.0986 -0.5016  0.8861
19736TIP3   OH280698   0.441   6.681   3.907 -0.4371 -0.2266  0.3833
19736TIP3    H180699   0.394   6.731   3.840 -0.6865 -1.2892 -0.2401
19736TIP3    H280700   0.515   6.737   3.931 -0.3538  0.1616 -0.7670
19737TIP3   OH280701   5.288   2.184   0.784 -0.0163 -0.2867  0.4266
19737TIP3    H180702   5.369   2.215   0.825 -0.1134  1.4172 -0.6151
19737TIP3    H280703   5.219   2.211   0.843  0.1287 -1.2340  1.0331
19738TIP3   OH280704   4.017   5.847   3.217  0.4827 -0.3200  0.2429
19738TIP3    H180705   4.098   5.893   3.197 -0.5014  1.7450  0.7756
19738TIP3    H280706   3.982   5.821   3.132  1.4639 -0.8078 -0.0145
19739TIP3   OH280707   6.628   2.899  14.766 -0.0639  0.2656  0.5089
19739TIP3    H180708   6.636   2.812  14.727  2.9638  0.1791  1.2255
19739TIP3    H280709   6.697   2.950  14.724 -0.6194  1.8187  1.4523
19740TIP3   OH280710   0.997   2.589   4.278 -0.0997 -0.2554  0.0522
19740TIP3    H180711   0.918   2.541   4.304 -0.1242 -0.1471  0.1806
19740TIP3    H280712   0.970   2.681   4.276  0.7536  0.1353  3.0536
19741TIP3   OH280713   5.960   5.647   4.731 -0.2320 -0.6152 -0.1711
19741TIP3    H180714   6.034   5.599   4.769  0.2317  1.3649  1.5511
19741TIP3    H280715   5.883   5.608   4.773 -0.0523 -1.4540 -0.5987
19742TIP3   OH280716   5.847   4.678   3.418  0.2836  0.0297  0.1838
19742TIP3    H180717   5.814   4.714   3.335  0.5729  1.5746  0.7236
19742TIP3    H280718   5.790   4.716   3.485  0.7840 -0.2958  0.7950
19743TIP3   OH280719   5.614   0.207   0.125 -0.2208 -0.4822  0.1166
19743TIP3    H180720   5.595   0.134   0.066  0.0810 -0.7830  0.3835
19743TIP3    H280721   5.696   0.244   0.091 -0.3957 -0.2462 -0.0419
19744TIP3   OH280722   1.458   4.827  13.172 -0.2191 -0.6698 -0.2478
19744TIP3    H180723   1.466   4.848  13.079  0.6219 -0.1632 -0.0699
19744TIP3    H280724   1.476   4.910  13.217  0.0054 -1.0496  0.3812
19745TIP3   OH280725   0.940   5.957   5.663 -0.0283  0.3277  0.0349
19745TIP3    H180726   0.946   5.935   5.756  2.4448 -0.8981 -0.3749
19745TIP3    H280727   1.019   6.008   5.646 -0.4703  0.5392 -1.3972
19746TIP3   OH280728   6.678   4.329   1.754 -0.8379  0.2363 -0.2581
19746TIP3    H180729   6.653   4.250   1.706 -0.3954  0.4169 -0.7900
19746TIP3    H280730   6.757   4.303   1.803 -1.3019  0.0458  0.3915
19747TIP3   OH280731   6.304   6.323  15.682 -0.0105 -0.1429  0.9975
19747TIP3    H180732   6.283   6.247  15.737 -2.8141  0.6371  1.0891
19747TIP3    H280733   6.225   6.337  15.630  1.1317  1.6317 -0.2932
19748TIP3   OH280734   6.231   5.624   1.582 -0.0330  0.4237 -0.6478
19748TIP3    H180735   6.165   5.685   1.548 -1.2560 -1.0147 -0.9184
19748TIP3    H280736   6.189   5.584   1.659  0.1746 -1.1287 -1.3214
19749TIP3   OH280737   3.352   5.045  15.085 -0.3385 -0.2171  0.0970
19749TIP3    H180738   3.368   5.036  14.991 -0.5540  0.1554  0.0231
19749TIP3    H280739   3.355   5.140  15.101  0.7607 -0.3274  0.6535
19750TIP3   OH280740   6.410   6.411  12.434 -0.0441  0.5480  0.4705
19750TIP3    H180741   6.316   6.417  12.454  0.1088 -0.3124  1.4963
19750TIP3    H280742   6.442   6.501  12.440 -0.9113  0.9321 -0.4658
19751TIP3   OH280743   5.111   6.406   1.999  0.8568 -0.3548 -0.0173
19751TIP3    H180744   5.118   6.425   2.092 -0.9597  0.4987 -0.0225
19751TIP3    H280745   5.160   6.476   1.956  1.6761 -0.7360  0.2911
19752TIP3   OH280746   5.682   3.322   5.370 -0.0781 -0.4034  0.7970
19752TIP3    H180747   5.626   3.348   5.443 -1.3628 -1.3478  0.1763
19752TIP3    H280748   5.708   3.405   5.329 -0.4427  0.0690  1.5021
19753TIP3   OH280749   5.391   4.801  12.349  0.2253 -0.0830  0.1855
19753TIP3    H180750   5.323   4.837  12.292 -1.5980  0.9664  2.9044
19753TIP3    H280751   5.394   4.708  12.327 -0.0311  0.3969 -1.9836
19754TIP3   OH280752   1.901   3.512   3.803  0.3410  0.4662  0.2990
19754TIP3    H180753   1.989   3.474   3.798  1.3167  2.9128 -1.6509
19754TIP3    H280754   1.896   3.548   3.892  0.5367 -1.4215  1.1074
19755TIP3   OH280755   3.373   6.594  15.447  0.5232 -0.2129  0.3777
19755TIP3    H180756   3.385   6.560  15.358  0.5224  2.8986 -0.8622
19755TIP3    H280757   3.460   6.589  15.486  0.9215  0.1430 -0.4438
19756TIP3   OH280758   3.475   6.517   4.033  0.3553  0.0870  0.4394
19756TIP3    H180759   3.502   6.508   3.942 -0.2931  0.6826  0.1849
19756TIP3    H280760   3.462   6.611   4.045 -1.1342 -0.1468  0.7014
19757TIP3   OH280761   5.515   3.469   4.872  0.0456 -0.1596 -0.3329
19757TIP3    H180762   5.429   3.468   4.914 -0.8061 -0.2279 -2.0404
19757TIP3    H280763   5.570   3.416   4.929 -1.2312 -0.7212  0.3983
19758TIP3   OH280764   5.023   1.851  10.385  0.5729  0.2618 -0.5454
19758TIP3    H180765   5.081   1.814  10.452  0.1049  1.8066  0.7319
19758TIP3    H280766   4.935   1.840  10.421  0.2430  0.1148 -1.3981
19759TIP3   OH280767   5.575   0.075  11.085  0.5822  0.1241  0.5145
19759TIP3    H180768   5.528   0.153  11.117 -1.7396 -0.7769 -0.6019
19759TIP3    H280769   5.662   0.108  11.061  0.3759  1.9411  2.1529
19760TIP3   OH280770   3.064   5.970  14.568 -0.0739 -0.0176 -0.1785
19760TIP3    H180771   2.973   5.998  14.584 -0.4678 -0.7780 -1.0437
19760TIP3    H280772   3.072   5.967  14.473  0.6654 -0.5856 -0.1019
19761TIP3   OH280773   1.635   0.386   1.061  0.0175 -0.0391  0.2214
19761TIP3    H180774   1.642   0.480   1.082 -1.3628 -0.1924  1.4323
19761TIP3    H280775   1.587   0.384   0.979  1.3551  0.3705 -0.5872
19762TIP3   OH280776   2.999   0.451   4.492 -0.0555  0.5380 -0.6192
19762TIP3    H180777   3.021   0.462   4.399  1.9103 -2.3937 -0.5491
19762TIP3    H280778   3.061   0.508   4.538  0.4907  0.2200 -0.9670
19763TIP3   OH280779   4.178   1.338   5.392 -0.8484  0.3623  0.6041
19763TIP3    H180780   4.187   1.309   5.301  1.6369  1.1929  0.5504
19763TIP3    H280781   4.198   1.431   5.390  2.2187 -0.1619  2.3750
19764TIP3   OH280782   0.938   3.922  17.199  0.1231 -0.0252 -0.3633
19764TIP3    H180783   1.018   3.908  17.149  0.5910 -1.8052  0.8072
19764TIP3    H280784   0.957   3.885  17.285 -2.5524 -2.1906 -0.6308
19765TIP3   OH280785   1.555   5.494   3.358  0.1564 -0.6697  0.2160
19765TIP3    H180786   1.618   5.469   3.426  1.0744 -0.4624 -0.5492
19765TIP3    H280787   1.479   5.526   3.407  0.1353 -2.1097  1.1686
19766TIP3   OH280788   1.031   4.612  15.629 -0.3155 -0.4598 -0.8465
19766TIP3    H180789   0.970   4.600  15.702 -0.5634  0.7419 -0.8522
19766TIP3    H280790   1.117   4.599  15.668 -0.3921  1.1850 -0.1260
19767TIP3   OH280791   3.290   4.575  15.259  0.4442 -0.4999 -0.3792
19767TIP3    H180792   3.356   4.508  15.241  0.0109 -0.8723 -0.6036
19767TIP3    H280793   3.241   4.541  15.334  1.3363  0.3851  0.6047
19768TIP3   OH280794   2.797   2.740   2.027 -0.1846  0.2262 -0.0073
19768TIP3    H180795   2.879   2.692   2.021 -0.7898 -0.4784 -4.9479
19768TIP3    H280796   2.823   2.831   2.041  1.2623 -0.4488  1.8561
19769TIP3   OH280797   2.447   6.151  14.641 -0.0934  0.3658  0.1000
19769TIP3    H180798   2.494   6.077  14.604  1.3819  1.5643 -0.4698
19769TIP3    H280799   2.479   6.158  14.731 -1.3445 -0.5920  0.6404
19770TIP3   OH280800   5.081   4.582  13.201  0.0162  0.4444  0.4868
19770TIP3    H180801   4.989   4.608  13.211 -1.1991 -2.2221 -2.7217
19770TIP3    H280802   5.091   4.510  13.264  0.2449  1.4862  1.6484
19771TIP3   OH280803   2.554   2.745  14.798 -0.1186  0.0518  0.9678
19771TIP3    H180804   2.601   2.761  14.717  0.9358 -1.1209  1.3395
19771TIP3    H280805   2.535   2.651  14.798 -1.5999  0.3289  1.2946
19772TIP3   OH280806   1.411   4.430  14.933  0.6996  0.5560 -0.2827
19772TIP3    H180807   1.479   4.392  14.878 -0.2489 -1.8525  0.1130
19772TIP3    H280808   1.438   4.410  15.022  0.4982  1.3963 -0.0277
19773TIP3   OH280809   4.994   2.435  14.048 -0.1060 -0.0341  0.1218
19773TIP3    H180810   5.009   2.341  14.035  0.5559  0.3405 -2.0850
19773TIP3    H280811   5.053   2.478  13.986 -2.0824  1.7790 -0.5774
19774TIP3   OH280812   2.550   5.747   4.502  0.2701  0.2324 -0.1226
19774TIP3    H180813   2.517   5.834   4.479 -2.1038 -0.7026 -0.4562
19774TIP3    H280814   2.493   5.719   4.574  1.1692 -0.9433  0.1311
19775TIP3   OH280815   3.577   0.407  11.603  0.1885  0.0393  0.0075
19775TIP3    H180816   3.556   0.499  11.618 -1.4883 -0.4051  0.5355
19775TIP3    H280817   3.647   0.408  11.538  0.0897  1.6765 -0.0849
19776TIP3   OH280818   6.669   2.211  13.292 -0.1742  0.5775  0.3576
19776TIP3    H180819   6.740   2.166  13.338 -0.4334  1.1658  1.3357
19776TIP3    H280820   6.698   2.302  13.286 -1.3855  1.0727  1.8544
19777TIP3   OH280821   4.207   5.709  11.924  0.0547 -0.0410  0.0553
19777TIP3    H180822   4.233   5.727  11.834  1.0078  0.4874  0.4279
19777TIP3    H280823   4.282   5.736  11.977  0.0101 -1.5600  0.9160
19778TIP3   OH280824   5.187   1.793  13.166 -0.0592  0.0068  0.4377
19778TIP3    H180825   5.247   1.780  13.092  0.4397 -0.7850  0.9762
19778TIP3    H280826   5.106   1.824  13.125  0.7825  1.3282 -0.2727
19779TIP3   OH280827   3.862   3.858   5.615  0.2333 -0.2567  0.0825
19779TIP3    H180828   3.775   3.819   5.608  0.9493 -1.4964 -2.3193
19779TIP3    H280829   3.846   3.951   5.630 -1.5111 -0.4005 -0.8385
19780TIP3   OH280830   5.517   3.238   1.884 -0.3052 -0.1774 -0.2978
19780TIP3    H180831   5.467   3.226   1.804 -0.5558 -0.2235 -0.1339
19780TIP3    H280832   5.476   3.313   1.927  1.4809  1.5414 -1.4935
19781TIP3   OH280833   5.469   3.010   0.719 -0.0325 -0.7139  0.4045
19781TIP3    H180834   5.453   3.100   0.749  1.2798 -0.5002  0.5148
19781TIP3    H280835   5.454   2.956   0.796 -1.4596 -0.6731  0.1791
19782TIP3   OH280836   4.351   1.614  16.632  0.2859  0.4878  0.0634
19782TIP3    H180837   4.417   1.545  16.627 -0.5932 -0.6034  2.4783
19782TIP3    H280838   4.347   1.636  16.726 -2.3184  0.9900 -0.1336
19783TIP3   OH280839   0.206   0.469  13.766  0.0264  0.3187  0.1806
19783TIP3    H180840   0.117   0.471  13.801  0.6461  0.2787  1.7862
19783TIP3    H280841   0.197   0.427  13.680 -1.4652  0.1398  0.4116
19784TIP3   OH280842   1.022   3.462   4.907  0.0328 -0.3199 -0.1408
19784TIP3    H180843   0.927   3.468   4.919  0.4129  1.3089  2.3078
19784TIP3    H280844   1.056   3.440   4.994  1.9298 -0.7119 -0.9574
19785TIP3   OH280845   3.902   3.525  12.969  0.9349  0.5339 -0.2681
19785TIP3    H180846   3.906   3.435  12.937  0.7563  1.0891 -1.9206
19785TIP3    H280847   3.808   3.545  12.973  0.9899  0.9585 -0.8853
19786TIP3   OH280848   4.190   3.501   1.565 -0.3395  0.0960  0.1682
19786TIP3    H180849   4.173   3.441   1.492  0.5487 -0.6177  0.5334
19786TIP3    H280850   4.249   3.567   1.528  2.1693 -1.6610  0.8433
19787TIP3   OH280851   2.382   5.933   4.399 -0.1836 -0.2860 -0.7537
19787TIP3    H180852   2.287   5.924   4.401 -0.1566 -0.7141 -1.3750
19787TIP3    H280853   2.398   6.000   4.333 -0.0319 -0.4815 -0.9151
19788TIP3   OH280854   3.277   0.829  13.189 -0.1613 -0.6350  0.2207
19788TIP3    H180855   3.344   0.832  13.121 -0.6889 -2.9512 -0.4328
19788TIP3    H280856   3.294   0.906  13.243  1.8323 -0.1653 -1.0404
19789TIP3   OH280857   1.702   4.410   0.083  0.7845  0.4806  0.4780
19789TIP3    H180858   1.636   4.464   0.038  1.3950 -0.2009 -1.2917
19789TIP3    H280859   1.659   4.384   0.164 -1.7407 -1.1294 -1.2674
19790TIP3   OH280860   0.835   3.647  15.706  0.5208 -0.6039 -0.4739
19790TIP3    H180861   0.886   3.575  15.669  1.9541 -0.0219  0.3362
19790TIP3    H280862   0.900   3.713  15.731 -0.6221  0.1766  0.5182
19791TIP3   OH280863   1.385   2.116  15.036 -0.0305 -0.0013  0.1428
19791TIP3    H180864   1.360   2.163  14.957  0.1515  1.8973  1.1705
19791TIP3    H280865   1.306   2.069  15.062 -0.3008 -0.0446 -0.7519
19792TIP3   OH280866   5.343   0.472  17.101 -0.1178 -0.1427  0.3336
19792TIP3    H180867   5.333   0.420  17.181  0.5316 -0.4289  0.2378
19792TIP3    H280868   5.342   0.408  17.031  1.0945 -0.0813  0.2405
19793TIP3   OH280869   0.204   5.443   3.883 -0.1583  0.7094  0.2205
19793TIP3    H180870   0.178   5.407   3.798  0.8865 -0.8480  0.5388
19793TIP3    H280871   0.135   5.506   3.904 -0.4438  1.0881 -1.7609
19794TIP3   OH280872   2.626   0.827   0.107 -0.1148 -0.3060  0.7051
19794TIP3    H180873   2.596   0.896   0.048 -0.4033  1.3231  2.7180
19794TIP3    H280874   2.670   0.764   0.049 -2.6685 -0.0889 -1.5899
19795TIP3   OH280875   3.847   6.057  14.485 -0.5291 -0.5702  0.0103
19795TIP3    H180876   3.824   6.003  14.560 -0.3419 -0.6062  0.0412
19795TIP3    H280877   3.779   6.038  14.420  1.0699 -2.9476 -1.0384
19796TIP3   OH280878   2.137   3.338   3.861 -0.9859  0.1256  0.0766
19796TIP3    H180879   2.176   3.253   3.840 -0.6234  0.3908 -0.3215
19796TIP3    H280880   2.177   3.364   3.944  0.4715  0.8807 -0.8391
19797TIP3   OH280881   1.625   3.018   2.626  0.5979 -0.0076 -0.2315
19797TIP3    H180882   1.655   2.979   2.708 -1.6791  2.2819  1.7748
19797TIP3    H280883   1.630   2.946   2.563  2.4680 -1.8117  1.8626
19798TIP3   OH280884   0.017   2.417   2.197  0.2636 -0.8113  0.0758
19798TIP3    H180885  -0.019   2.387   2.114  0.6342  1.4794 -0.9605
19798TIP3    H280886   0.000   2.345   2.258 -0.4495 -2.3260 -1.8480
19799TIP3   OH280887   5.189   0.651   3.859 -0.7564  0.0354 -0.2164
19799TIP3    H180888   5.284   0.641   3.860 -0.8009 -0.3736 -0.1766
19799TIP3    H280889   5.170   0.709   3.933 -0.5139  0.3249 -0.3816
19800TIP3   OH280890   6.405   4.680   1.413 -0.1223  0.1040 -0.2315
19800TIP3    H180891   6.339   4.709   1.351 -0.7760 -0.3978  0.2294
19800TIP3    H280892   6.413   4.754   1.474  0.5729  0.6267 -0.9441
19801TIP3   OH280893   5.110   5.738   1.072  0.2164 -0.3470  0.3570
19801TIP3    H180894   5.164   5.681   1.018 -1.0517  0.4092 -1.7719
19801TIP3    H280895   5.061   5.678   1.128  1.5457 -1.1483  0.6938
19802TIP3   OH280896   6.092   2.933   2.300 -0.0650 -0.2403  0.6059
19802TIP3    H180897   6.169   2.889   2.265  1.0885  1.2052  1.2689
19802TIP3    H280898   6.068   2.996   2.232  0.5893  0.7479  1.2884
19803TIP3   OH280899   3.996   4.810  16.338  0.3499  0.2937  0.2264
19803TIP3    H180900   3.912   4.765  16.351  0.6223 -0.0682  0.7599
19803TIP3    H280901   4.025   4.832  16.427 -0.1708  2.2539 -0.0736
19804TIP3   OH280902   0.931   1.591  16.499  0.1462 -0.0187 -0.1932
19804TIP3    H180903   1.025   1.607  16.511  0.1914 -1.6066  2.0795
19804TIP3    H280904   0.908   1.535  16.573 -2.2920 -0.8591 -1.5506
19805TIP3   OH280905   3.035   4.206  11.367  0.4847  0.1769  0.4570
19805TIP3    H180906   3.059   4.282  11.315  2.7999 -0.2370  0.8631
19805TIP3    H280907   2.941   4.217  11.385  0.7185  2.7275  0.2067
19806TIP3   OH280908   4.620   6.207  15.763  0.2788  0.1049 -0.2753
19806TIP3    H180909   4.532   6.172  15.758  0.6849 -1.2304  1.5048
19806TIP3    H280910   4.608   6.300  15.780 -0.7851  0.2167 -1.5694
19807TIP3   OH280911   2.871   0.482  14.007 -0.4445 -0.0449 -0.1648
19807TIP3    H180912   2.902   0.562  13.965 -2.1741  0.1889 -1.0525
19807TIP3    H280913   2.775   0.493  14.011 -0.8393 -2.6235 -1.5412
19808TIP3   OH280914   2.193   3.811   0.056  0.2903 -0.0776 -0.1748
19808TIP3    H180915   2.273   3.771   0.024  0.2170 -0.8040  0.5514
19808TIP3    H280916   2.157   3.748   0.118  0.2650  1.1735  1.1096
19809TIP3   OH280917   6.050   1.906  16.502  0.3615 -0.2245 -0.3418
19809TIP3    H180918   5.986   1.914  16.431  0.4403 -1.8347 -0.6171
19809TIP3    H280919   6.089   1.820  16.488  1.2118 -0.0566  0.9799
19810TIP3   OH280920   4.111   3.546  16.488  0.3436  0.5511  0.1587
19810TIP3    H180921   4.080   3.476  16.431  1.2081  2.0696 -2.2173
19810TIP3    H280922   4.047   3.547  16.560 -0.5575 -1.6263 -0.5453
19811TIP3   OH280923   0.135   0.535   3.593  0.2221  0.1797  0.7590
19811TIP3    H180924   0.183   0.585   3.658  1.4201 -0.1978  0.1938
19811TIP3    H280925   0.051   0.516   3.633  0.7372  0.4357  1.9681
19812TIP3   OH280926   3.228   0.482  16.585 -0.2015 -0.0985  0.1223
19812TIP3    H180927   3.148   0.505  16.632 -0.2530 -0.0760  0.0248
19812TIP3    H280928   3.198   0.429  16.511  0.1833 -3.3681  2.2347
19813TIP3   OH280929   2.320   0.563   2.399  0.2202 -0.5187  0.2601
19813TIP3    H180930   2.370   0.544   2.479 -0.0328  0.3109  0.6280
19813TIP3    H280931   2.354   0.648   2.370 -2.5960  1.2341  1.8471
19814TIP3   OH280932   0.244   1.847  16.439 -0.6541  0.3768 -0.0491
19814TIP3    H180933   0.270   1.778  16.500 -1.2716 -0.8174 -1.1265
19814TIP3    H280934   0.184   1.902  16.490  1.2214  1.1744  1.3573
19815TIP3   OH280935   1.181   3.484  14.457  0.4320 -0.1703 -0.2946
19815TIP3    H180936   1.168   3.403  14.506 -0.1475  0.1892  0.1504
19815TIP3    H280937   1.094   3.521  14.447  0.3461 -0.9615 -2.8727
19816TIP3   OH280938   0.035   4.455   0.993 -0.3339  0.2197 -0.9294
19816TIP3    H180939  -0.047   4.444   1.040 -0.8252  0.9115 -1.6043
19816TIP3    H280940   0.022   4.534   0.941  1.4723  1.4489  0.4302
19817TIP3   OH280941   4.832   6.207  14.143 -0.0489 -0.4097 -0.6593
19817TIP3    H180942   4.887   6.183  14.068  0.4376 -0.0934 -0.4051
19817TIP3    H280943   4.781   6.128  14.161  1.7143 -1.3599  0.3149
19818TIP3   OH280944   3.747   6.111  11.919 -0.7599  0.1121 -0.0758
19818TIP3    H180945   3.785   6.175  11.980 -0.3885  1.2447 -1.4622
19818TIP3    H280946   3.798   6.032  11.934 -1.9681 -0.2523  2.4811
19819TIP3   OH280947   3.915   3.844  14.358  0.6997  0.5614 -0.6335
19819TIP3    H180948   3.950   3.806  14.278  0.9679  0.7131 -0.5896
19819TIP3    H280949   3.987   3.837  14.421  1.3202  2.5774 -1.0783
19820TIP3   OH280950   0.142   6.526  13.621 -0.8647 -0.0567  0.4487
19820TIP3    H180951   0.204   6.507  13.691 -0.7346 -0.6932  0.1645
19820TIP3    H280952   0.078   6.586  13.660  0.7098  1.7375  0.3588
19821TIP3   OH280953   4.318   1.419   6.786  0.7195 -0.0255  0.0704
19821TIP3    H180954   4.255   1.349   6.808  0.1528  0.1234 -1.0249
19821TIP3    H280955   4.280   1.461   6.709  1.2757  1.2314  0.4773
19822TIP3   OH280956   3.213   2.928   3.130 -0.2394 -0.1091 -0.1168
19822TIP3    H180957   3.196   3.005   3.186 -1.4027 -0.5783  0.1918
19822TIP3    H280958   3.170   2.949   3.047 -0.7244 -0.5031  0.0327
19823TIP3   OH280959   3.519   4.043  11.402  0.5062  0.3711 -0.1733
19823TIP3    H180960   3.584   4.040  11.473 -1.9826 -3.8047  2.1750
19823TIP3    H280961   3.437   4.066  11.446 -0.7940 -0.7602 -1.9089
19824TIP3   OH280962   2.960   3.414   1.075 -0.3641  0.4075 -0.3746
19824TIP3    H180963   2.952   3.500   1.034  1.0516  0.5230 -0.4461
19824TIP3    H280964   2.881   3.405   1.128  0.4394  2.6644  1.3013
19825TIP3   OH280965   0.912   3.473  12.072  0.0468  0.1216 -0.2092
19825TIP3    H180966   0.921   3.553  12.021  0.4181 -0.5237 -1.1728
19825TIP3    H280967   0.906   3.503  12.163 -1.4549  1.3283 -0.6870
19826TIP3   OH280968   2.494   5.267  14.831 -0.3679  0.2471 -0.0402
19826TIP3    H180969   2.477   5.357  14.801 -0.4619 -0.5511 -2.4949
19826TIP3    H280970   2.426   5.250  14.896 -2.3660  0.8480 -1.9015
19827TIP3   OH280971   2.228   3.497   0.633  0.0333 -0.5751 -0.0694
19827TIP3    H180972   2.287   3.572   0.624  1.3585 -1.3326  1.9652
19827TIP3    H280973   2.245   3.463   0.721 -3.2375 -0.9988  0.4933
19828TIP3   OH280974   3.924   5.219   1.422  0.5344  0.1825 -0.0627
19828TIP3    H180975   3.940   5.134   1.461  0.1761 -0.3956 -1.1589
19828TIP3    H280976   3.924   5.203   1.327 -0.6699  1.1876 -0.2538
19829TIP3   OH280977   6.124   0.017   3.457  0.4261 -0.3647  0.0073
19829TIP3    H180978   6.148  -0.023   3.541 -0.0122  1.4145  1.0179
19829TIP3    H280979   6.208   0.028   3.411  0.5663 -2.2131 -0.1887
19830TIP3   OH280980   5.231   0.549   3.036  0.4181  0.7861  0.4643
19830TIP3    H180981   5.289   0.474   3.045 -0.8647 -0.3560 -0.5924
19830TIP3    H280982   5.150   0.522   3.078  0.1826  1.8629  0.7168
19831TIP3   OH280983   2.224   0.628   5.229 -0.0695  0.3035 -0.2409
19831TIP3    H180984   2.280   0.619   5.306  0.5965  0.9704 -0.6422
19831TIP3    H280985   2.192   0.540   5.212 -0.9257  0.3034  1.3226
19832TIP3   OH280986   5.100   5.322  12.569 -0.1051  0.4823 -0.1529
19832TIP3    H180987   5.105   5.389  12.501 -1.3027 -1.6157 -2.3833
19832TIP3    H280988   5.182   5.273  12.560 -0.2618  0.2049 -0.0788
19833TIP3   OH280989   3.572   6.392   1.201  0.3738  0.0531  0.1150
19833TIP3    H180990   3.636   6.439   1.148  1.0311  0.9880  1.7160
19833TIP3    H280991   3.494   6.447   1.198 -0.0224 -0.5415 -0.9247
19834TIP3   OH280992   4.808   1.919  12.311  0.1199  0.4116  0.1438
19834TIP3    H180993   4.778   1.982  12.245 -3.4470 -1.3763 -0.0387
19834TIP3    H280994   4.841   1.845  12.260 -0.0646  0.1879  0.3485
19835TIP3   OH280995   4.523   3.042   4.403 -0.3996  0.3886  0.1685
19835TIP3    H180996   4.615   3.024   4.388 -0.2629 -0.1497  1.5687
19835TIP3    H280997   4.518   3.137   4.413 -0.3007  0.6154 -1.8403
19836TIP3   OH280998   2.956   1.680  11.635 -0.0671 -0.5933  0.1033
19836TIP3    H180999   2.914   1.683  11.548 -0.6983 -0.5026  0.4099
19836TIP3    H281000   3.004   1.763  11.640  0.8452 -1.0657 -0.5879
19837TIP3   OH281001   1.805   2.596  17.179  0.3909  0.1922  0.0267
19837TIP3    H181002   1.779   2.546  17.102  1.4402  0.3559 -0.4316
19837TIP3    H281003   1.836   2.531  17.241 -0.8969  0.0131  0.5054
19838TIP3   OH281004   2.010   2.474   5.753  0.4022  0.7185  0.5855
19838TIP3    H181005   1.927   2.482   5.799  0.3230  0.7306  0.4393
19838TIP3    H281006   2.067   2.426   5.814 -0.1501 -0.5481  0.1203
19839TIP3   OH281007   3.090   4.279   4.784 -0.1456  0.3798 -0.6048
19839TIP3    H181008   3.037   4.291   4.706 -0.7653  1.5375 -0.0191
19839TIP3    H281009   3.035   4.311   4.856 -0.4401 -2.6739  0.6068
19840TIP3   OH281010   5.824   2.195   3.174  0.4090  0.2516  0.3881
19840TIP3    H181011   5.818   2.159   3.086  2.7088  0.3197  0.1704
19840TIP3    H281012   5.739   2.177   3.213 -0.9997  1.1485 -2.1748
19841TIP3   OH281013   3.094   3.055   1.763  0.6334 -0.6159 -0.1035
19841TIP3    H181014   3.013   3.013   1.792  0.0882  0.5326  0.0752
19841TIP3    H281015   3.116   3.011   1.680  0.4868 -1.7430  0.4451
19842TIP3   OH281016   4.541   2.483  16.873  0.1644  0.1918 -0.0894
19842TIP3    H181017   4.524   2.493  16.966 -1.0381  2.3435 -0.4933
19842TIP3    H281018   4.473   2.423  16.842  0.3058 -0.1916  0.3511
19843TIP3   OH281019   4.084   1.236  14.496  0.6331 -0.2610 -0.5442
19843TIP3    H181020   4.094   1.228  14.591  0.1937  1.5605 -0.3319
19843TIP3    H281021   4.169   1.211  14.461  0.3690 -2.3779  0.2253
19844TIP3   OH281022   3.372   3.497  13.038 -0.4637  0.0018 -0.7462
19844TIP3    H181023   3.323   3.495  13.119  1.5482 -0.0460  0.5031
19844TIP3    H281024   3.306   3.489  12.969 -2.0769 -1.1765  0.9110
19845TIP3   OH281025   4.971   5.771  12.695 -0.2121  0.3567 -0.0759
19845TIP3    H181026   5.021   5.709  12.642  1.3136  2.3910 -1.1070
19845TIP3    H281027   4.885   5.731  12.705 -0.4858 -0.1916 -3.9574
19846TIP3   OH281028   5.796   0.460   2.158 -0.1517  0.3199 -0.1229
19846TIP3    H181029   5.760   0.526   2.217  0.6297 -0.7259  1.5806
19846TIP3    H281030   5.876   0.430   2.202 -1.1246 -2.5988 -0.2498
19847TIP3   OH281031   1.711   5.345   1.025  0.4748 -0.1074 -0.0107
19847TIP3    H181032   1.663   5.344   0.942 -1.0691 -0.8114  0.8589
19847TIP3    H281033   1.710   5.436   1.053 -0.2754 -0.1023 -0.0504
19848TIP3   OH281034   3.353   1.718   1.736  0.1124 -0.4850 -0.2230
19848TIP3    H181035   3.309   1.697   1.818  2.0296 -0.6466  0.7905
19848TIP3    H281036   3.446   1.707   1.755  0.6634  0.7981 -2.0390
19849TIP3   OH281037   3.404   6.661   2.864 -0.1049 -0.3373  0.1911
19849TIP3    H181038   3.463   6.636   2.792  0.0274  0.8329 -0.1153
19849TIP3    H281039   3.438   6.745   2.895  0.6017 -1.4315  2.4748
19850TIP3   OH281040   1.276   3.371  16.523  0.0504 -0.3125 -0.3890
19850TIP3    H181041   1.309   3.459  16.504  1.7300 -0.8400 -0.0182
19850TIP3    H281042   1.244   3.376  16.613  1.7997 -0.5228  0.2670
19851TIP3   OH281043   3.048   1.994  16.835 -0.7624  0.2516  0.4135
19851TIP3    H181044   2.979   2.032  16.888 -0.0876 -0.4572  1.8386
19851TIP3    H281045   3.114   1.965  16.899 -0.1029 -0.9368 -0.7860
19852TIP3   OH281046   1.052   1.011   5.721  0.2621 -0.0559 -0.1620
19852TIP3    H181047   1.055   0.975   5.810  1.6491 -0.8555 -0.5148
19852TIP3    H281048   1.136   0.985   5.682  1.0275  2.9792 -0.6676
19853TIP3   OH281049   4.132   1.232  13.165  0.7227 -0.4357 -0.2897
19853TIP3    H181050   4.174   1.300  13.216 -0.6463 -1.1203  1.8031
19853TIP3    H281051   4.040   1.258  13.161  0.1257 -2.2783  0.7956
19854TIP3   OH281052   5.875   5.799  16.677  0.5284 -0.2983  0.1611
19854TIP3    H181053   5.838   5.742  16.610  1.7594 -1.1361  0.1765
19854TIP3    H281054   5.950   5.751  16.711 -0.0496  0.1259  2.1279
19855TIP3   OH281055   4.939   6.614  14.486  0.3802 -0.0194  0.2240
19855TIP3    H181056   5.030   6.613  14.457 -0.4883  3.6033 -3.0775
19855TIP3    H281057   4.934   6.687  14.548 -0.3957  0.2563 -0.1538
19856TIP3   OH281058   2.841   2.127  12.807 -0.1951 -0.7439 -0.4759
19856TIP3    H181059   2.891   2.124  12.888 -1.1472  1.2235  0.2267
19856TIP3    H281060   2.893   2.077  12.744  1.6534 -0.4136  0.7576
19857TIP3   OH281061   0.873   6.123  11.985  0.1997 -0.4489  0.1258
19857TIP3    H181062   0.862   6.148  12.077  0.8994 -2.3734  0.7498
19857TIP3    H281063   0.837   6.035  11.979 -1.0795  0.1635 -1.7732
19858TIP3   OH281064   5.869   3.095   5.045 -0.2260 -0.6296 -0.0754
19858TIP3    H181065   5.953   3.059   5.073  0.0813 -0.8760 -1.3002
19858TIP3    H281066   5.810   3.019   5.044 -0.9596 -0.1679  2.5319
19859TIP3   OH281067   4.147   5.037   4.868  0.0711 -0.1134 -0.0442
19859TIP3    H181068   4.147   5.033   4.772 -0.3358 -0.9997 -0.0085
19859TIP3    H281069   4.058   5.062   4.891  0.6521  2.0021  0.0415
19860TIP3   OH281070   4.127   3.328  14.091  0.8322  0.0286 -0.1494
19860TIP3    H181071   4.108   3.245  14.047  0.8960  0.0582 -0.2330
19860TIP3    H281072   4.119   3.394  14.021  1.0285  0.0653 -0.1367
19861TIP3   OH281073   4.754   6.505   2.515 -0.1565 -0.0134  0.1141
19861TIP3    H181074   4.848   6.518   2.503 -0.0324 -0.5994  0.4663
19861TIP3    H281075   4.724   6.470   2.431 -0.1768  0.7596 -0.2149
19862TIP3   OH281076   2.547   1.943  10.657  0.0577 -0.6303 -0.0768
19862TIP3    H181077   2.530   2.037  10.651 -2.8194 -0.9707  1.9102
19862TIP3    H281078   2.523   1.909  10.570  0.0047  0.2988 -0.4305
19863TIP3   OH281079   3.028   0.616   2.858 -0.2318  0.0672 -0.2078
19863TIP3    H181080   3.074   0.542   2.818  1.2307  0.2535  1.0892
19863TIP3    H281081   3.013   0.589   2.948 -0.6566  0.9280 -0.0112
19864TIP3   OH281082   4.232   0.721   3.170 -0.1143  0.2746  0.7185
19864TIP3    H181083   4.199   0.645   3.218 -0.2595  1.4068  2.4047
19864TIP3    H281084   4.325   0.725   3.192 -0.1530  0.7274  0.7907
19865TIP3   OH281085   6.064   3.645   3.889  0.3949 -0.4882  0.4256
19865TIP3    H181086   5.970   3.634   3.902  0.0808  0.6835 -0.6849
19865TIP3    H281087   6.098   3.556   3.883 -0.9467 -0.9347 -1.0751
19866TIP3   OH281088   2.963   5.751  10.950  0.1969  0.1543 -0.1197
19866TIP3    H181089   2.908   5.682  10.913  0.1131 -0.1828  0.6148
19866TIP3    H281090   2.919   5.833  10.928  1.6210  0.1479 -3.2461
19867TIP3   OH281091   0.511   5.252   4.947  0.0661 -0.1554  0.0189
19867TIP3    H181092   0.455   5.177   4.923 -0.6530  0.7626 -1.2592
19867TIP3    H281093   0.468   5.290   5.023 -0.0912 -0.4776  0.0961
19868TIP3   OH281094   0.236   2.173  16.928 -0.2229  0.3123  0.2779
19868TIP3    H181095   0.284   2.151  16.848 -1.3320 -0.4463 -0.1982
19868TIP3    H281096   0.278   2.120  16.996 -0.2194 -0.1617 -0.0906
19869TIP3   OH281097   6.390   2.204  13.659 -0.2159  0.2424 -0.1502
19869TIP3    H181098   6.309   2.156  13.677  0.4239 -0.8583 -0.1403
19869TIP3    H281099   6.416   2.174  13.572  1.8862 -1.9001  1.1609
19870TIP3   OH281100   5.230   1.640  14.011 -0.1749  0.1320  0.4079
19870TIP3    H181101   5.196   1.591  14.086 -0.9552 -0.3177 -0.2304
19870TIP3    H281102   5.157   1.644  13.950  0.7175 -0.2877 -0.7182
19871TIP3   OH281103   5.604   5.754   0.436  0.2586 -0.1324  0.0581
19871TIP3    H181104   5.639   5.841   0.417  0.6005 -0.7647 -2.4386
19871TIP3    H281105   5.550   5.733   0.360 -0.6900 -1.6585  1.1235
19872TIP3   OH281106   1.129   4.876  17.073 -0.1840 -0.4871  0.4239
19872TIP3    H181107   1.180   4.846  16.998 -1.0794  1.5491 -1.0672
19872TIP3    H281108   1.185   4.860  17.149  2.5368  1.3859 -1.1223
19873TIP3   OH281109   6.448   5.825   4.770  0.2559 -0.2998 -0.7520
19873TIP3    H181110   6.441   5.864   4.858  2.3076 -0.9493 -0.2851
19873TIP3    H281111   6.357   5.818   4.740 -0.5262 -0.6653  1.5890
19874TIP3   OH281112   0.702   0.814   0.457  0.4147  0.1000 -0.3408
19874TIP3    H181113   0.678   0.879   0.391 -0.7881 -1.5557 -1.5723
19874TIP3    H281114   0.631   0.750   0.454  2.9929 -2.7982 -1.1595
19875TIP3   OH281115   3.448   5.035   2.583  0.1232  0.2087  0.2418
19875TIP3    H181116   3.497   4.982   2.646 -0.0149 -0.8275 -0.4937
19875TIP3    H281117   3.452   4.984   2.501  1.6609  2.2963 -1.0091
19876TIP3   OH281118   2.315   6.631  11.582  0.0503 -0.3472 -0.5118
19876TIP3    H181119   2.221   6.619  11.576 -0.4892  2.4546  1.4292
19876TIP3    H281120   2.338   6.684  11.506  0.1243 -1.1635 -1.0716
19877TIP3   OH281121   2.398   4.198   0.722 -0.3347 -0.0749 -0.2839
19877TIP3    H181122   2.448   4.279   0.711 -0.9248  0.3808  0.3390
19877TIP3    H281123   2.314   4.227   0.759 -0.5458 -0.9660 -0.0614
19878TIP3   OH281124   1.723   1.246  13.425  0.0190 -0.2595 -0.2035
19878TIP3    H181125   1.797   1.200  13.464  2.0822  1.6477 -1.7307
19878TIP3    H281126   1.760   1.330  13.396 -3.1897  1.5340  0.7639
19879TIP3   OH281127   3.203   6.798  15.349  0.0628  0.0626  0.1831
19879TIP3    H181128   3.268   6.729  15.365  0.4085  0.4953  0.6708
19879TIP3    H281129   3.223   6.830  15.261 -0.2258 -0.5937 -0.1238
19880TIP3   OH281130   4.937   0.871   3.597 -0.2991 -0.4857  0.0053
19880TIP3    H181131   4.921   0.937   3.665  1.1980  0.0075 -0.1056
19880TIP3    H281132   4.857   0.870   3.545 -0.6014  0.7222  0.4427
19881TIP3   OH281133   4.240   6.230  11.664  0.1044  0.4308 -0.2554
19881TIP3    H181134   4.314   6.170  11.667  0.5052  0.8433 -1.2505
19881TIP3    H281135   4.166   6.180  11.696  1.0026  0.3049  1.6613
19882TIP3   OH281136   2.246   5.592   4.973  0.8255 -0.3873 -0.1189
19882TIP3    H181137   2.200   5.676   4.981  0.3238 -0.5350 -1.4767
19882TIP3    H281138   2.294   5.584   5.056 -1.4586 -0.1614  1.2791
19883TIP3   OH281139   3.861   4.688  15.790  0.2544 -0.0655  0.6983
19883TIP3    H181140   3.790   4.735  15.747  1.3046  2.2178  1.3625
19883TIP3    H281141   3.878   4.738  15.870  0.4219 -2.4396  2.1864
19884TIP3   OH281142   2.151   4.440  16.936 -0.4718 -0.5551 -0.1694
19884TIP3    H181143   2.119   4.352  16.953 -1.1280 -0.2375  0.2487
19884TIP3    H281144   2.193   4.434  16.850  1.3208 -1.7451  0.7630
19885TIP3   OH281145   2.238   6.785  11.818  0.4109  0.0818 -0.3766
19885TIP3    H181146   2.294   6.856  11.847  0.6546 -0.4273  0.4075
19885TIP3    H281147   2.282   6.750  11.741 -0.8260  2.1766 -2.0941
19886TIP3   OH281148   6.254   2.079  16.853 -0.0058  0.1086  0.2864
19886TIP3    H181149   6.294   2.031  16.925  1.1745 -0.2018 -0.5467
19886TIP3    H281150   6.164   2.047  16.849 -0.0274 -0.0058  1.4878
19887TIP3   OH281151   6.448   6.074  13.782 -0.2965 -0.0548 -0.3786
19887TIP3    H181152   6.359   6.044  13.798  0.3691 -1.8281  0.1139
19887TIP3    H281153   6.493   6.059  13.865  0.5591  0.4826 -0.7407
19888TIP3   OH281154   3.417   5.724   2.955 -0.1139 -1.0497  0.1225
19888TIP3    H181155   3.414   5.794   3.021 -0.1727  0.8480 -1.8293
19888TIP3    H281156   3.476   5.758   2.888 -1.3978 -2.2023 -1.6155
19889TIP3   OH281157   3.620   6.380  13.683 -0.1207 -0.0425 -0.2049
19889TIP3    H181158   3.701   6.329  13.685  0.0214  0.2109  1.9668
19889TIP3    H281159   3.574   6.351  13.604  1.7797 -0.6577 -1.0923
19890TIP3   OH281160   1.221   0.755   5.195 -0.4903 -0.1946 -0.4103
19890TIP3    H181161   1.214   0.833   5.251  1.7686 -0.6791  0.6253
19890TIP3    H281162   1.171   0.688   5.240  1.2440 -0.5548  1.0258
19891TIP3   OH281163   5.160   0.188   3.234 -0.1169 -0.5435  0.3501
19891TIP3    H181164   5.184   0.101   3.265 -0.1594 -0.1095  1.6015
19891TIP3    H281165   5.213   0.248   3.286  1.3732  0.1176 -1.8550
19892TIP3   OH281166   6.075   4.138   2.662 -0.1875 -0.1555  0.0075
19892TIP3    H181167   6.157   4.180   2.638 -0.9974  1.8093  0.6150
19892TIP3    H281168   6.092   4.097   2.747  0.3665 -0.3866 -0.2128
19893TIP3   OH281169   1.063   3.261  16.146  0.3955  0.6821 -0.3785
19893TIP3    H181170   1.053   3.296  16.235  1.0419  1.8438 -0.7488
19893TIP3    H281171   1.136   3.200  16.153  0.6350  0.9879 -0.1648
19894TIP3   OH281172   4.053   3.015   3.883  0.1037  0.0212 -0.5342
19894TIP3    H181173   4.014   2.928   3.885  0.2420 -0.0212  0.4121
19894TIP3    H281174   4.070   3.036   3.975  1.7839  0.2718 -0.8814
19895TIP3   OH281175   3.598   6.069  14.975  0.3236  0.0017 -0.4348
19895TIP3    H181176   3.598   6.063  14.880  1.2138  0.2291 -0.4519
19895TIP3    H281177   3.507   6.053  15.000  0.5491 -2.4855 -1.1531
19896TIP3   OH281178   6.456   3.081  14.365  0.4000 -0.8936 -0.2330
19896TIP3    H181179   6.441   3.049  14.454  0.8291  0.7281  0.4393
19896TIP3    H281180   6.384   3.143  14.350  0.4886 -0.9523 -0.9121
19897TIP3   OH281181   4.974   1.546  11.483  0.0086  0.1351 -0.2662
19897TIP3    H181182   5.025   1.605  11.428  2.1601 -0.0587  1.4795
19897TIP3    H281183   4.969   1.465  11.432  1.2854  0.2165 -0.5362
19898TIP3   OH281184   6.607   4.868   3.843 -0.3409 -0.1597 -0.0989
19898TIP3    H181185   6.558   4.786   3.839 -0.1992 -0.2617  0.2187
19898TIP3    H281186   6.698   4.843   3.830 -0.3406 -0.0069 -0.3836
19899TIP3   OH281187   5.539   2.995   2.202  0.3220  0.4691  0.2273
19899TIP3    H181188   5.530   3.091   2.207  1.6771  0.5304  1.7847
19899TIP3    H281189   5.472   2.961   2.261 -0.4938  0.4246 -0.7070
19900TIP3   OH281190   3.686   3.199  14.121  0.0343  0.4266 -0.4903
19900TIP3    H181191   3.767   3.173  14.077 -0.2942  2.2213 -2.2437
19900TIP3    H281192   3.618   3.186  14.055 -1.3222 -2.1556  1.3251
19901TIP3   OH281193   3.349   4.362  14.501 -0.3263 -0.4242  0.5476
19901TIP3    H181194   3.367   4.269  14.487  0.3827 -0.1664 -0.2734
19901TIP3    H281195   3.324   4.395  14.415  0.7251  0.4337  0.5629
19902TIP3   OH281196   3.999   5.965  16.182 -0.1922 -0.2035  0.7499
19902TIP3    H181197   4.060   6.028  16.144  1.5616 -0.6202  2.7794
19902TIP3    H281198   3.980   5.904  16.110  0.5650  0.8292 -0.3391
19903TIP3   OH281199   0.335   3.531   4.783  0.1988 -0.0515 -0.4474
19903TIP3    H181200   0.387   3.595   4.832  0.4787  0.7096 -1.6999
19903TIP3    H281201   0.360   3.446   4.820  2.4931  0.2789 -1.1315
19904TIP3   OH281202   2.903   0.624  12.173  0.3295 -0.3649  0.4932
19904TIP3    H181203   2.991   0.618  12.209  0.3829 -0.2692  0.3785
19904TIP3    H281204   2.873   0.533  12.167  0.8656 -0.4711 -0.5718
19905TIP3   OH281205   0.060   1.872   1.750  0.0956 -0.2448  0.4395
19905TIP3    H181206   0.046   1.849   1.842 -2.0194 -0.8215  0.0056
19905TIP3    H281207   0.055   1.968   1.748 -1.3636 -0.3077  0.7069
19906TIP3   OH281208   0.556   4.917  16.342 -0.1515 -0.1089 -0.0022
19906TIP3    H181209   0.485   4.949  16.287  0.0136  0.1510 -0.0676
19906TIP3    H281210   0.634   4.964  16.310  0.3508 -1.5752 -1.0058
19907TIP3   OH281211   1.689   5.383   6.606  0.1290 -0.1045  0.4190
19907TIP3    H181212   1.755   5.352   6.669  0.7866 -0.3775 -0.3997
19907TIP3    H281213   1.652   5.303   6.569 -0.4784  0.0539  0.6894
19908TIP3   OH281214   5.932   4.497  11.975 -0.0904 -0.2311 -0.0551
19908TIP3    H181215   5.944   4.428  11.910 -1.9154 -0.8873  0.2732
19908TIP3    H281216   5.915   4.450  12.057 -0.6660  0.5955  0.3072
19909TIP3   OH281217   0.404   3.206   0.534  0.0531 -0.1290  0.2604
19909TIP3    H181218   0.313   3.232   0.545  0.3346  0.1600  2.2187
19909TIP3    H281219   0.423   3.154   0.613  1.5457 -0.2851 -0.1897
19910TIP3   OH281220   6.408   3.476  16.577 -0.5498 -0.0635 -0.1558
19910TIP3    H181221   6.499   3.448  16.574 -0.7674 -0.8158  0.1449
19910TIP3    H281222   6.405   3.554  16.521  0.1889 -0.2696 -0.4897
19911TIP3   OH281223   1.536   2.174   0.090 -0.0355 -0.2314 -0.1527
19911TIP3    H181224   1.511   2.266   0.087 -0.6635 -0.4168 -0.7221
19911TIP3    H281225   1.464   2.128   0.046  0.2603 -0.9926  0.1511
19912TIP3   OH281226   6.320   3.493   3.481 -0.4442 -0.2305 -0.9235
19912TIP3    H181227   6.379   3.451   3.419 -0.8588 -1.3361 -0.5792
19912TIP3    H281228   6.348   3.461   3.567 -1.0012 -0.0964 -0.6896
19913TIP3   OH281229   4.833   4.435  14.811 -0.5890 -0.4994  0.5529
19913TIP3    H181230   4.745   4.470  14.802  0.8503  2.6913 -2.3929
19913TIP3    H281231   4.883   4.479  14.743  2.8472 -3.7668  0.7808
19914TIP3   OH281232   1.142   5.150   6.126  0.3494  0.0219 -0.3978
19914TIP3    H181233   1.201   5.095   6.178  0.6379  1.8566  1.2570
19914TIP3    H281234   1.130   5.229   6.178 -2.3992  0.3230 -1.4112
19915TIP3   OH281235   0.182   3.896  15.022 -0.2266 -0.1048 -0.1426
19915TIP3    H181236   0.089   3.873  15.025 -0.4190  0.5179 -0.9674
19915TIP3    H281237   0.228   3.812  15.026 -0.8020 -0.3719  1.0537
19916TIP3   OH281238   6.205   0.548   3.201 -0.3523 -0.2920 -0.4286
19916TIP3    H181239   6.168   0.615   3.259 -1.2791 -2.4968  1.6247
19916TIP3    H281240   6.297   0.543   3.225 -0.6908 -1.0575  0.7591
19917TIP3   OH281241   0.833   2.412   6.201  0.3470 -0.2915  0.5856
19917TIP3    H181242   0.753   2.461   6.221  0.6922  0.3483  0.4115
19917TIP3    H281243   0.877   2.402   6.285  0.1921 -0.4603  0.6481
19918TIP3   OH281244   1.855   4.409  11.845 -0.1946 -0.0329 -0.2031
19918TIP3    H181245   1.894   4.492  11.817 -1.2017  0.7168  0.5898
19918TIP3    H281246   1.869   4.349  11.771  0.6034  0.8100 -0.7424
19919TIP3   OH281247   4.295   1.430   0.650 -0.3931  0.3093  0.0791
19919TIP3    H181248   4.308   1.350   0.700 -0.4976 -0.0765 -0.5183
19919TIP3    H281249   4.234   1.482   0.703 -1.7951 -0.7954 -0.4403
19920TIP3   OH281250   3.069   3.245   0.292  0.3572 -0.3939 -0.1750
19920TIP3    H181251   3.161   3.219   0.286  0.3290 -0.6204  0.3464
19920TIP3    H281252   3.053   3.255   0.385 -0.3373 -1.0365 -0.2154
19921TIP3   OH281253   0.812   4.299   2.689 -0.2733 -0.3017 -0.3689
19921TIP3    H181254   0.738   4.247   2.719 -0.5999 -1.0818 -2.4189
19921TIP3    H281255   0.889   4.244   2.704 -0.3986 -0.5546 -0.6477
19922TIP3   OH281256   2.572   4.718  12.869  0.1921  0.4133 -0.5395
19922TIP3    H181257   2.513   4.659  12.823  0.7677  0.8727 -1.8859
19922TIP3    H281258   2.636   4.660  12.911 -1.8540 -0.1677  1.9424
19923TIP3   OH281259   4.125   3.913   5.623  0.6504  0.4919 -0.0612
19923TIP3    H181260   4.052   3.869   5.578 -0.2734  2.8870 -0.9925
19923TIP3    H281261   4.130   3.870   5.708 -1.9694  0.4191  0.0838
19924TIP3   OH281262   0.936   5.980   5.950 -0.1140  0.0318 -0.0600
19924TIP3    H181263   1.029   5.974   5.930 -0.4860 -1.0761 -1.5504
19924TIP3    H281264   0.911   6.069   5.922  0.2450 -0.0738 -0.7076
19925TIP3   OH281265   3.321   4.608  12.305 -0.2363 -0.2103 -0.6032
19925TIP3    H181266   3.316   4.612  12.209  0.1164  2.8977 -0.5563
19925TIP3    H281267   3.364   4.690  12.330 -0.5220 -0.8773  2.2495
19926TIP3   OH281268   6.186   3.993   3.684 -0.2092 -0.2623  0.6412
19926TIP3    H181269   6.228   3.985   3.770  0.9848 -0.6589  0.0273
19926TIP3    H281270   6.257   4.018   3.625 -0.7942 -1.1808 -0.4597
19927TIP3   OH281271   2.427   3.358  13.383 -0.3880  0.3146  0.0673
19927TIP3    H181272   2.347   3.402  13.412 -0.6267  0.6095 -0.9866
19927TIP3    H281273   2.424   3.367  13.287 -0.6169 -2.2923 -0.1896
19928TIP3   OH281274   0.478   2.941   3.084  0.7195 -0.5218  0.1333
19928TIP3    H181275   0.573   2.932   3.070  1.0191  1.7537  0.5055
19928TIP3    H281276   0.465   2.915   3.176  0.9580 -0.8936  0.0656
19929TIP3   OH281277   1.094   4.564  14.946 -0.0289 -0.3362  0.4347
19929TIP3    H181278   1.172   4.510  14.932 -0.6170 -0.5448 -2.4006
19929TIP3    H281279   1.096   4.628  14.874 -2.0553  0.1220  0.7464
19930TIP3   OH281280   3.768   1.205   0.857  0.5692  0.2222  0.5184
19930TIP3    H181281   3.788   1.131   0.915 -0.4049 -1.6078 -1.3857
19930TIP3    H281282   3.809   1.280   0.899  3.3858 -1.7436  1.4984
19931TIP3   OH281283   0.429   2.547  13.104  0.0536  0.2308  0.1062
19931TIP3    H181284   0.477   2.468  13.078 -3.0124 -1.0958 -1.8599
19931TIP3    H281285   0.449   2.558  13.197  1.8662 -1.9079 -0.0008
19932TIP3   OH281286   5.835   1.318   3.381  0.0278  0.5321  0.5729
19932TIP3    H181287   5.825   1.228   3.350  1.5677  1.1886 -1.9851
19932TIP3    H281288   5.753   1.337   3.427 -0.3910 -2.1030  0.9776
19933TIP3   OH281289   1.710   2.432  15.424 -0.5028 -0.4989 -0.1010
19933TIP3    H181290   1.694   2.509  15.479  2.1466 -1.0157  1.4758
19933TIP3    H281291   1.795   2.449  15.384 -0.3996 -2.1566 -0.6083
19934TIP3   OH281292   0.240   2.651   2.555 -0.3064  0.3763  0.3424
19934TIP3    H181293   0.221   2.739   2.522 -0.1991 -0.0144 -0.8048
19934TIP3    H281294   0.249   2.597   2.476  0.0170 -0.5867  1.0182
19935TIP3   OH281295   6.441   6.013   0.288 -0.2766 -0.6066  0.3870
19935TIP3    H181296   6.356   6.057   0.291  0.2020  0.2479  2.9270
19935TIP3    H281297   6.441   5.955   0.364  0.4582 -2.4451 -0.9991
19936TIP3   OH281298   1.805   2.838   1.067 -0.6498 -0.7288 -0.0796
19936TIP3    H181299   1.769   2.774   1.005 -0.4209 -1.9223  0.9938
19936TIP3    H281300   1.729   2.871   1.113 -0.8229  0.1717 -0.9879
19937TIP3   OH281301   3.965   0.976   5.702 -0.1362 -0.1842  0.2103
19937TIP3    H181302   3.883   1.009   5.739 -0.8623 -0.9606 -0.6739
19937TIP3    H281303   3.966   1.010   5.613 -0.2479 -1.4205 -0.2779
19938TIP3   OH281304   3.732   4.514   5.531  0.1459 -0.3686  0.3660
19938TIP3    H181305   3.649   4.525   5.485  0.4056 -0.6838 -0.1798
19938TIP3    H281306   3.737   4.590   5.590  0.8631  1.2955 -1.7651
19939TIP3   OH281307   1.004   5.511  13.245  0.3223  0.0980 -0.0439
19939TIP3    H181308   1.008   5.416  13.259  0.7079  0.1657  0.3123
19939TIP3    H281309   0.984   5.520  13.152 -0.8760 -0.3415  0.1607
19940TIP3   OH281310   0.168   1.990   5.207  0.0943 -0.4998 -0.3386
19940TIP3    H181311   0.261   1.969   5.216  0.2709  0.2191 -0.5049
19940TIP3    H281312   0.159   2.025   5.119 -0.4596 -1.2083 -0.5756
19941TIP3   OH281313   4.655   3.137   5.023 -0.0210  0.1491  0.1346
19941TIP3    H181314   4.592   3.071   4.996 -0.8104  0.4193  1.2930
19941TIP3    H281315   4.735   3.115   4.975 -0.5419 -1.1097 -0.1634
19942TIP3   OH281316   5.789   5.196   1.206  0.4581  0.7845 -0.5193
19942TIP3    H181317   5.791   5.101   1.203 -0.8490  0.6943  0.8471
19942TIP3    H281318   5.832   5.218   1.289  0.7673  1.3867 -0.8344
19943TIP3   OH281319   1.188   0.272  12.172 -0.8195 -0.1163  0.5716
19943TIP3    H181320   1.252   0.210  12.139 -0.5838  0.9315 -0.9961
19943TIP3    H281321   1.215   0.289  12.262  0.2962 -0.7340  0.3620
19944TIP3   OH281322   5.308   2.625  17.067 -0.9268 -0.5550 -0.4525
19944TIP3    H181323   5.260   2.558  17.018 -3.7002 -1.4169  3.2270
19944TIP3    H281324   5.253   2.643  17.143  1.8441  2.7970  0.8867
19945TIP3   OH281325   2.833   3.063  11.800  0.1683 -0.1780 -0.6546
19945TIP3    H181326   2.920   3.104  11.807  0.1734 -0.2640 -0.1521
19945TIP3    H281327   2.825   3.039  11.708  1.2974 -1.5131 -0.4204
19946TIP3   OH281328   4.082   3.669  11.555 -0.3025 -0.1128 -0.3934
19946TIP3    H181329   4.099   3.661  11.462 -0.2291 -1.3877 -0.2789
19946TIP3    H281330   4.068   3.763  11.569 -1.7578 -0.0785 -1.9274
19947TIP3   OH281331   1.982   0.863   2.100 -0.1579 -0.1811 -0.2673
19947TIP3    H181332   1.987   0.884   2.193  1.7989  2.2575 -0.8860
19947TIP3    H281333   1.909   0.800   2.094  0.3618 -1.1902  3.0075
19948TIP3   OH281334   0.608   1.093  16.781  0.8028  0.1080 -0.1927
19948TIP3    H181335   0.591   1.160  16.714  1.8644  1.6781  1.0834
19948TIP3    H281336   0.549   1.115  16.853  1.2717 -0.2254  0.3004
19949TIP3   OH281337   0.983   1.269   4.607  0.3214  0.5048  0.2722
19949TIP3    H181338   0.968   1.178   4.630  5.0643 -0.7313 -1.0692
19949TIP3    H281339   0.950   1.276   4.517 -0.7929  0.3512  0.6620
19950TIP3   OH281340   4.558   3.926  10.902  0.1658  0.2889  0.2255
19950TIP3    H181341   4.634   3.868  10.910  1.0199  1.3326 -0.1696
19950TIP3    H281342   4.564   3.983  10.979  0.3503  1.0304 -0.3395
19951TIP3   OH281343   6.537   5.465   0.927 -0.0633 -0.0818 -0.4123
19951TIP3    H181344   6.492   5.496   0.848  0.0254  0.1643 -0.3682
19951TIP3    H281345   6.629   5.461   0.902  0.1165  1.0809  0.0070
19952TIP3   OH281346   0.488   6.755   5.444 -0.1650 -0.7259  0.5744
19952TIP3    H181347   0.529   6.720   5.364 -1.0588 -0.3067 -0.0771
19952TIP3    H281348   0.463   6.678   5.494 -1.7808 -1.0394 -0.6748
19953TIP3   OH281349   0.549   6.659   1.534 -0.1947  0.1823 -0.5198
19953TIP3    H181350   0.595   6.741   1.520 -0.9975  0.3053 -2.6207
19953TIP3    H281351   0.474   6.683   1.589  0.0780  0.6785 -0.3612
19954TIP3   OH281352   5.407   5.936   3.221 -0.2356 -0.8767 -0.3331
19954TIP3    H181353   5.379   5.935   3.313 -1.3779  0.7506 -0.6476
19954TIP3    H281354   5.435   6.026   3.205  1.7113 -1.5859 -1.0889
19955TIP3   OH281355   4.951   3.284   3.744 -0.1835 -0.3122 -0.4889
19955TIP3    H181356   4.956   3.256   3.835  0.2827  0.0679 -0.3919
19955TIP3    H281357   4.875   3.342   3.741  0.2211  0.2418 -0.1790
19956TIP3   OH281358   3.391   6.618  16.935 -0.7992 -0.5052 -0.2977
19956TIP3    H181359   3.444   6.671  16.875 -2.2300  1.3318 -0.0049
19956TIP3    H281360   3.320   6.583  16.881 -1.1131 -0.2787 -0.0344
19957TIP3   OH281361   5.069   6.223  13.950 -0.3323  0.3336  0.2644
19957TIP3    H181362   5.117   6.288  13.898  0.7429 -1.5788 -1.2452
19957TIP3    H281363   5.130   6.199  14.020 -0.8883  1.2310  1.0647
19958TIP3   OH281364   0.048   1.050   3.201 -0.3115 -0.5225  0.1003
19958TIP3    H181365  -0.026   1.057   3.140  0.4431  0.5293 -0.6932
19958TIP3    H281366   0.104   0.982   3.163  1.2903  1.6927 -1.5989
19959TIP3   OH281367   5.273   4.479   2.284 -0.1311  0.1201 -0.4170
19959TIP3    H181368   5.306   4.554   2.334 -1.0616  1.1139 -1.2986
19959TIP3    H281369   5.179   4.494   2.277 -0.3109 -1.1008 -0.6631
19960TIP3   OH281370   4.374   1.562  14.439  0.4877  0.0417 -0.1248
19960TIP3    H181371   4.319   1.543  14.515 -0.2355 -2.1653 -1.1472
19960TIP3    H281372   4.454   1.510  14.454 -0.6099 -2.2731 -1.9249
19961TIP3   OH281373   6.061   4.249  12.653 -0.5977 -0.4434  0.1616
19961TIP3    H181374   6.146   4.211  12.633 -1.1728 -0.5686 -2.1802
19961TIP3    H281375   6.066   4.271  12.746  1.5609 -1.5144  0.3340
19962TIP3   OH281376   0.901   2.251   3.051  0.0497  0.0579  0.6726
19962TIP3    H181377   0.985   2.264   3.095  0.3458  0.5279 -0.0245
19962TIP3    H281378   0.913   2.171   3.000  0.6047  0.9610 -0.6515
19963TIP3   OH281379   1.084   0.047   5.446  0.1235  0.0247 -0.4344
19963TIP3    H181380   1.037   0.124   5.476  1.7276  0.5259  0.8193
19963TIP3    H281381   1.019  -0.024   5.450 -0.6060  0.7552  0.9941
19964TIP3   OH281382   6.395   4.463  16.849 -0.3064  0.0633  0.1065
19964TIP3    H181383   6.467   4.462  16.787  0.2040 -1.5306  0.6829
19964TIP3    H281384   6.337   4.532  16.818  1.0773  0.8439 -0.8073
19965TIP3   OH281385   2.651   5.647  16.298  0.1573  0.8837 -0.0197
19965TIP3    H181386   2.668   5.714  16.365  0.3917 -0.1288  0.9603
19965TIP3    H281387   2.666   5.564  16.344  0.0856  0.1664 -1.2767
19966TIP3   OH281388   6.207   4.704  14.623  0.5644  0.5089  0.1334
19966TIP3    H181389   6.248   4.619  14.636  0.5627  0.4154 -0.4514
19966TIP3    H281390   6.137   4.707  14.688  1.4391  0.6378  1.0671
19967TIP3   OH281391   6.630   4.365   2.807  0.0965  0.2110 -0.7937
19967TIP3    H181392   6.589   4.440   2.850  0.2307  0.7081 -1.5212
19967TIP3    H281393   6.707   4.402   2.763 -0.2870 -0.2084 -1.8371
19968TIP3   OH281394   3.467   0.949   2.936  0.1960  0.4357 -0.2720
19968TIP3    H181395   3.416   0.897   2.997 -3.1360  1.8634 -1.7086
19968TIP3    H281396   3.421   1.032   2.930  1.8136  1.2333 -2.8540
19969TIP3   OH281397   0.867   5.014  14.654 -0.1438 -0.2648 -0.1371
19969TIP3    H181398   0.885   5.009  14.560  0.6588 -1.8298  0.0862
19969TIP3    H281399   0.772   5.010  14.661 -0.2290  0.4528 -0.9227
19970TIP3   OH281400   5.030   1.254  15.414 -0.5452 -0.4687 -0.5587
19970TIP3    H181401   5.021   1.341  15.375 -2.0486  0.1908  1.1594
19970TIP3    H281402   5.125   1.241  15.420 -0.2518  1.8077  0.7061
19971TIP3   OH281403   6.735   2.882  11.492 -0.3145  0.1821  0.3043
19971TIP3    H181404   6.818   2.901  11.448 -0.8645  1.3724 -0.2355
19971TIP3    H281405   6.749   2.908  11.583 -0.0945  0.3510  0.2198
19972TIP3   OH281406   3.910   2.657  17.086  0.0295  0.0933  0.0114
19972TIP3    H181407   3.824   2.696  17.072 -0.8840 -1.6903  0.5015
19972TIP3    H281408   3.892   2.569  17.119  2.0396 -0.9232 -1.4880
19973TIP3   OH281409   2.835   5.647  12.934  0.3255  0.0556  0.4981
19973TIP3    H181410   2.783   5.723  12.964  2.3346  1.4995  0.3965
19973TIP3    H281411   2.920   5.683  12.912  0.4458 -1.8162 -2.3017
19974TIP3   OH281412   3.885   1.150  16.179  0.1730 -0.3482  0.2595
19974TIP3    H181413   3.809   1.104  16.214  0.6694 -2.1397 -0.9565
19974TIP3    H281414   3.946   1.156  16.253 -1.0572  0.9399  1.1897
19975TIP3   OH281415   4.682   3.862  12.852 -0.5017 -0.1640  0.0560
19975TIP3    H181416   4.620   3.914  12.904 -0.2073 -0.1947  0.4412
19975TIP3    H281417   4.695   3.782  12.904 -0.0871 -0.1281  0.0085
19976TIP3   OH281418   1.229   3.470  13.346 -0.6073 -0.2266  0.0582
19976TIP3    H181419   1.289   3.545  13.337 -2.0916  1.0643  0.7082
19976TIP3    H281420   1.240   3.442  13.436  1.1139 -1.8320 -0.6174
19977TIP3   OH281421   5.518   4.776   0.806  0.0604  0.2272 -0.3281
19977TIP3    H181422   5.497   4.710   0.740  1.3024  0.6561 -1.1665
19977TIP3    H281423   5.535   4.727   0.886 -0.4300 -0.3627 -0.5863
19978TIP3   OH281424   3.628   5.501  14.351  0.1364 -0.0705 -0.3683
19978TIP3    H181425   3.571   5.430  14.322  1.3542 -0.8505 -0.8805
19978TIP3    H281426   3.643   5.554  14.273 -2.3428  1.9074  0.4146
19979TIP3   OH281427   4.186   2.310  17.153  0.7521  0.0947  0.1026
19979TIP3    H181428   4.214   2.235  17.205  0.3460 -0.1744 -0.0681
19979TIP3    H281429   4.191   2.384  17.214 -0.2596 -0.3130  0.6950
19980TIP3   OH281430   4.498   1.759  12.972  0.0872 -0.2754 -0.3165
19980TIP3    H181431   4.583   1.729  12.941  0.4152 -0.5656  0.8568
19980TIP3    H281432   4.509   1.770  13.067 -1.3733 -0.9876 -0.0496
19981TIP3   OH281433   0.522   6.328   5.068  0.4102  0.4976  0.0887
19981TIP3    H181434   0.459   6.294   5.131 -1.0935  0.8102 -1.1933
19981TIP3    H281435   0.496   6.289   4.984  1.5372  1.1240 -0.5713
19982TIP3   OH281436   1.279   2.509  14.593  0.1878  1.0754 -0.2210
19982TIP3    H181437   1.211   2.576  14.591  0.6791  1.5625 -0.7414
19982TIP3    H281438   1.268   2.460  14.512 -0.5950  0.0925  0.4673
19983TIP3   OH281439   4.745   2.454  12.623  0.2773 -0.3288 -0.7395
19983TIP3    H181440   4.799   2.428  12.548  0.3577  1.1177 -1.2037
19983TIP3    H281441   4.790   2.418  12.699  0.3906 -1.5055 -1.3650
19984TIP3   OH281442   6.695   0.415   1.958 -0.2184  0.3145  0.0453
19984TIP3    H181443   6.711   0.355   2.032 -0.6477  0.2125  0.0563
19984TIP3    H281444   6.715   0.363   1.880 -1.8275 -0.2534 -0.0046
19985TIP3   OH281445   3.737   0.169  17.066  0.2064 -0.6990 -0.1705
19985TIP3    H181446   3.649   0.141  17.092 -1.5175  1.8943 -2.9345
19985TIP3    H281447   3.754   0.247  17.118 -0.0956  0.1462 -1.3435
19986TIP3   OH281448   1.876   4.016  16.721  0.5927  0.3765 -0.6211
19986TIP3    H181449   1.821   4.022  16.643 -1.1107  0.1528  0.5231
19986TIP3    H281450   1.840   3.942  16.771  0.0757  1.9876  1.5124
19987TIP3   OH281451   0.514   2.889   5.756 -0.0857 -0.1417 -0.0161
19987TIP3    H181452   0.580   2.837   5.802 -1.2624 -2.9032 -1.3394
19987TIP3    H281453   0.551   2.905   5.669 -0.1676  0.3426  0.0355
19988TIP3   OH281454   4.910   3.567  11.679 -0.1224  0.4191 -0.0516
19988TIP3    H181455   4.831   3.618  11.697 -0.8336 -0.9588  0.8605
19988TIP3    H281456   4.880   3.476  11.683  1.6424 -0.1328  0.9702
19989TIP3   OH281457   3.161   2.037  12.940 -0.3653 -0.0045  0.2116
19989TIP3    H181458   3.092   1.982  12.976 -1.0899  0.5438 -0.3182
19989TIP3    H281459   3.141   2.125  12.971  1.9393 -0.2973  2.7668
19990TIP3   OH281460   1.146   3.986   2.443  0.1488 -0.1338  0.4139
19990TIP3    H181461   1.170   4.062   2.497  0.6105  1.1837 -1.6063
19990TIP3    H281462   1.229   3.953   2.409 -0.2920  0.2194 -1.0354
19991TIP3   OH281463   2.557   3.404  11.901 -0.8151  0.5264  0.0547
19991TIP3    H181464   2.584   3.346  11.829  3.8332 -1.0708  2.8536
19991TIP3    H281465   2.539   3.345  11.974 -0.5109  2.3419  1.6377
19992TIP3   OH281466   1.409   0.624  14.150  0.6940 -0.1542 -0.4721
19992TIP3    H181467   1.356   0.703  14.158 -0.5239 -0.7976 -1.8777
19992TIP3    H281468   1.493   0.654  14.117  0.5686  0.6647 -0.0460
19993TIP3   OH281469   5.768   0.512  14.046 -0.3729 -0.2847 -0.5782
19993TIP3    H181470   5.703   0.516  14.117  0.0563  0.7747 -0.2388
19993TIP3    H281471   5.851   0.496  14.090  0.3188  3.0032 -0.5637
19994TIP3   OH281472   1.151   2.141  12.395  0.1173  0.5013  0.1576
19994TIP3    H181473   1.128   2.190  12.474 -0.6582 -0.0830  0.3008
19994TIP3    H281474   1.241   2.111  12.411 -0.1537  0.1013  0.9751
19995TIP3   OH281475   2.556   0.586  16.111  0.5805  0.0406  0.2380
19995TIP3    H181476   2.612   0.567  16.186  0.5946  2.5736  0.8868
19995TIP3    H281477   2.469   0.600  16.148  0.4591  0.6801 -0.2753
19996TIP3   OH281478   4.629   5.693  10.729  0.2332 -0.0148  0.2723
19996TIP3    H181479   4.534   5.706  10.728  0.1879 -0.1266  1.5487
19996TIP3    H281480   4.659   5.743  10.805  1.2209  0.1466 -0.2167
19997TIP3   OH281481   4.062   0.181  14.029 -0.1575  0.2828 -0.3817
19997TIP3    H181482   4.047   0.192  13.935 -0.8310  1.3250 -0.1499
19997TIP3    H281483   4.031   0.262  14.069 -1.5489 -0.8674  0.9350
19998TIP3   OH281484   6.472   4.533  14.999  0.0603 -0.0794  0.2412
19998TIP3    H181485   6.507   4.585  14.927  2.3956 -1.3026  0.4293
19998TIP3    H281486   6.393   4.579  15.027  0.7418  1.9982 -1.1835
19999TIP3   OH281487   4.793   0.718   2.363  0.3904  0.0354  0.3545
19999TIP3    H181488   4.805   0.676   2.448  0.8370  1.4625  1.0158
19999TIP3    H281489   4.878   0.760   2.346 -0.3229  1.3785  0.1107
20000TIP3   OH281490   0.981   2.959  11.334  0.6902  0.3920  0.1199
20000TIP3    H181491   0.952   3.002  11.414  0.3597  1.7539 -0.7271
20000TIP3    H281492   1.023   3.028  11.283 -0.4463 -0.1144 -1.5577
20001TIP3   OH281493   0.040   5.006  13.418  0.1420  0.2051 -0.2324
20001TIP3    H181494   0.089   5.085  13.397  1.6625 -0.9857 -1.2386
20001TIP3    H281495   0.086   4.968  13.493 -1.9656  1.4741  1.7765
20002TIP3   OH281496   0.434   6.123  13.883  0.2368 -0.1679  0.6451
20002TIP3    H181497   0.525   6.099  13.902 -0.1984 -0.8225  1.9877
20002TIP3    H281498   0.418   6.202  13.934  0.1895  0.2117  0.0467
20003TIP3   OH281499   1.656   0.537  10.914 -0.2833 -0.6572 -0.4512
20003TIP3    H181500   1.674   0.595  10.988  2.2746 -0.4284 -1.2300
20003TIP3    H281501   1.613   0.461  10.954 -2.4092  1.0958  0.7445
20004TIP3   OH281502   6.064   6.267   2.530 -0.6777  0.6054  0.6928
20004TIP3    H181503   6.125   6.251   2.602 -0.0303 -2.5076 -0.4492
20004TIP3    H281504   6.013   6.186   2.523 -0.4454  0.6495 -2.5597
20005TIP3   OH281505   5.363   2.029   4.813 -0.0838  0.3195  0.3967
20005TIP3    H181506   5.368   1.976   4.733  2.4586  1.6390 -0.3678
20005TIP3    H281507   5.349   1.965   4.883  2.6942 -1.3954 -0.5190
20006TIP3   OH281508   3.560   6.687  11.225 -0.0922 -0.5561 -0.1689
20006TIP3    H181509   3.596   6.605  11.193 -0.1661 -0.6989  0.1117
20006TIP3    H281510   3.468   6.668  11.244 -0.4441 -0.0758 -1.3216
20007TIP3   OH281511   1.011   5.869  12.096 -0.2751  0.2409  0.1543
20007TIP3    H181512   0.971   5.925  12.162  0.1394 -1.7935  2.1880
20007TIP3    H281513   1.096   5.909  12.079 -0.1057  0.4189  1.3528
20008TIP3   OH281514   5.141   1.224   4.774 -0.1612  0.3423 -0.5973
20008TIP3    H181515   5.047   1.207   4.767 -0.3098  0.4750  0.9418
20008TIP3    H281516   5.172   1.228   4.683 -1.5162 -0.3809 -1.0950
20009TIP3   OH281517   5.469   5.111  16.722 -0.2518 -0.2847  0.5675
20009TIP3    H181518   5.559   5.125  16.751 -0.9075 -0.3361  2.7051
20009TIP3    H281519   5.443   5.028  16.762 -0.6727 -1.1616 -1.4913
20010TIP3   OH281520   1.798   4.383  15.251  0.6932 -0.7901 -0.0687
20010TIP3    H181521   1.840   4.426  15.177  0.2247 -1.4890 -0.7548
20010TIP3    H281522   1.866   4.327  15.288  2.0269  2.2763  2.3032
20011TIP3   OH281523   1.721   1.274  16.470 -0.4030 -0.0345 -1.1230
20011TIP3    H181524   1.656   1.289  16.538 -1.1598 -0.8834 -1.6402
20011TIP3    H281525   1.707   1.183  16.443  2.6770 -1.0498  0.5066
20012TIP3   OH281526   0.659   0.431   5.509 -0.3601  0.0304 -0.2410
20012TIP3    H181527   0.570   0.426   5.474 -0.7046 -1.8189  0.8673
20012TIP3    H281528   0.648   0.434   5.604  0.7605  0.2263 -0.1011
20013TIP3   OH281529   5.398   1.811  11.281 -0.2413 -0.2461 -0.1437
20013TIP3    H181530   5.477   1.772  11.317 -1.3681 -1.3172  1.2156
20013TIP3    H281531   5.416   1.905  11.281  1.1540 -0.5042 -0.1751
20014TIP3   OH281532   2.223   0.335   3.807 -0.3397 -0.4786  0.2020
20014TIP3    H181533   2.291   0.304   3.748 -0.7510  0.9419 -1.0619
20014TIP3    H281534   2.263   0.332   3.894  0.8845 -0.8803 -0.3729
20015TIP3   OH281535   5.893   4.764  15.460  0.0012  0.4860  0.6160
20015TIP3    H181536   5.800   4.776  15.481  0.0147  0.7710  0.5196
20015TIP3    H281537   5.940   4.808  15.531  0.0909 -1.0084  1.5121
20016TIP3   OH281538   6.365   1.604  12.027  0.8057  0.0830  0.7311
20016TIP3    H181539   6.373   1.567  12.114  1.9939 -2.3115 -0.3595
20016TIP3    H281540   6.404   1.691  12.034 -1.7196  1.0793  3.2478
20017TIP3   OH281541   0.857   3.568   1.223 -0.2470  0.3445  0.2503
20017TIP3    H181542   0.858   3.610   1.137  1.1512 -0.6398 -0.2435
20017TIP3    H281543   0.852   3.640   1.285 -0.0697  1.1254 -0.6368
20018TIP3   OH281544   0.957   5.140   1.673 -0.2619  0.4092  0.3223
20018TIP3    H181545   1.006   5.222   1.665  0.8609 -0.3100 -0.3741
20018TIP3    H281546   0.962   5.118   1.766  1.3198  0.0005  0.1507
20019TIP3   OH281547   1.551   4.968  12.358  0.1611 -0.1883 -0.0281
20019TIP3    H181548   1.481   5.024  12.391 -1.0631 -0.8002 -1.5624
20019TIP3    H281549   1.631   5.018  12.373 -0.7195  1.0565  0.5588
20020TIP3   OH281550   0.748   3.853  15.360 -0.3746  0.0120  0.3314
20020TIP3    H181551   0.744   3.920  15.427  0.8816 -1.1461  1.6058
20020TIP3    H281552   0.828   3.804  15.380 -0.2438 -0.6463 -1.7185
20021TIP3   OH281553   1.321   2.939  14.981  0.3422 -0.0764 -0.0829
20021TIP3    H181554   1.260   3.002  14.943 -1.4285 -0.7085  1.6096
20021TIP3    H281555   1.281   2.854  14.963 -0.0945 -0.4346  2.3314
20022TIP3   OH281556   6.046   0.906   1.043  0.3781 -0.1740  0.2532
20022TIP3    H181557   6.013   0.877   1.128  2.0774 -0.0654  0.9784
20022TIP3    H281558   6.095   0.830   1.009 -1.0016 -0.5146 -1.0292
20023TIP3   OH281559   2.979   4.927   1.760  0.0152  0.4267  0.4131
20023TIP3    H181560   2.940   4.899   1.677  1.1768  1.0703 -0.3621
20023TIP3    H281561   2.948   4.862   1.823  0.3606 -0.9760 -0.8180
20024TIP3   OH281562   5.390   2.099  12.524  0.9115 -0.1362  0.1397
20024TIP3    H181563   5.442   2.169  12.484  1.3395 -0.6489 -0.2145
20024TIP3    H281564   5.343   2.060  12.451 -2.0785  2.0362  0.8120
20025TIP3   OH281565   3.955   5.557  13.535 -0.4323 -0.3792 -0.0871
20025TIP3    H181566   3.900   5.576  13.611  1.9686  0.2300  1.5548
20025TIP3    H281567   3.976   5.644  13.499 -0.3853 -0.6029 -0.6045
20026TIP3   OH281568   4.813   0.717  15.447  0.6043  0.0025  0.2961
20026TIP3    H181569   4.769   0.634  15.431  1.1303 -0.2845  0.3238
20026TIP3    H281570   4.900   0.692  15.480  1.0549  0.5592 -0.4630
20027TIP3   OH281571   3.888   6.656  14.173  0.4662 -0.8400 -0.6694
20027TIP3    H181572   3.924   6.604  14.245  0.0752 -1.7033 -1.0874
20027TIP3    H281573   3.889   6.746  14.205 -1.9161 -1.4922  1.3396
20028TIP3   OH281574   0.030   4.399   2.500  0.3359  0.2379  0.2595
20028TIP3    H181575   0.005   4.307   2.509  0.1621  0.2579 -0.0165
20028TIP3    H281576   0.030   4.432   2.590  1.0877 -0.2088  0.4312
20029TIP3   OH281577   0.489   0.731  15.398  0.0429 -0.3947  0.4680
20029TIP3    H181578   0.579   0.765  15.399 -0.1719  0.2180 -0.4079
20029TIP3    H281579   0.495   0.645  15.439  1.0863 -0.4879  0.1310
20030TIP3   OH281580   5.690   1.083   5.305 -0.1930 -0.6773  0.0852
20030TIP3    H181581   5.728   1.156   5.256 -0.0216 -1.4762 -1.0044
20030TIP3    H281582   5.702   1.106   5.397  0.6128  0.2751 -0.2524
20031TIP3   OH281583   4.596   6.000  14.146  0.0874  0.1816 -0.1805
20031TIP3    H181584   4.575   5.911  14.177 -3.0909  0.6482 -0.8242
20031TIP3    H281585   4.625   5.987  14.056  0.9132 -0.3305  0.1567
20032TIP3   OH281586   5.173   5.989   5.938  0.1269  0.3366 -0.6384
20032TIP3    H181587   5.106   5.921   5.930 -1.1568  1.5167  0.0515
20032TIP3    H281588   5.220   5.967   6.018 -0.1198  0.1329 -0.5500
20033TIP3   OH281589   0.683   1.169   4.001 -0.0939 -0.4131 -0.9509
20033TIP3    H181590   0.718   1.249   3.962  0.7695 -0.5599 -0.4957
20033TIP3    H281591   0.616   1.139   3.939 -0.7352  0.8938 -0.9053
20034TIP3   OH281592   4.575   1.154   4.354 -0.4032 -0.6130 -0.4242
20034TIP3    H181593   4.561   1.155   4.449 -1.9643  0.4853 -0.6543
20034TIP3    H281594   4.512   1.090   4.321  0.2131 -1.0738 -0.7263
20035TIP3   OH281595   1.154   5.806  12.583 -0.1439 -0.0785  0.7904
20035TIP3    H181596   1.132   5.739  12.647 -0.6572  1.5358  2.3664
20035TIP3    H281597   1.069   5.830  12.544 -0.1560  0.6118  1.2281
20036TIP3   OH281598   3.003   5.549  11.507 -0.5892  0.1636  0.2575
20036TIP3    H181599   2.977   5.593  11.425  0.7742  1.1170  0.3185
20036TIP3    H281600   2.999   5.618  11.573 -2.3553 -0.7709  1.1461
20037TIP3   OH281601   2.846   0.211   0.662  0.5032 -0.1068  0.3283
20037TIP3    H181602   2.893   0.150   0.719  0.6758  0.5687  0.9053
20037TIP3    H281603   2.913   0.244   0.602  0.4119 -0.4779  0.0232
20038TIP3   OH281604   1.176   5.957  14.438 -0.3036  0.0594 -0.0845
20038TIP3    H181605   1.190   5.863  14.449 -0.3965  0.0335 -0.1973
20038TIP3    H281606   1.248   5.986  14.382 -0.3806  0.0230 -0.2030
20039TIP3   OH281607   4.557   2.689  12.111 -0.3947 -0.1198 -0.9011
20039TIP3    H181608   4.562   2.639  12.192  0.6328  3.5901  1.4144
20039TIP3    H281609   4.465   2.681  12.083 -0.8904 -0.9271  0.9217
20040TIP3   OH281610   1.414   4.770   1.196  0.3645 -0.8152 -0.3661
20040TIP3    H181611   1.363   4.785   1.275 -0.3266 -0.8281 -0.8053
20040TIP3    H281612   1.469   4.694   1.217 -0.0255 -0.9961  0.0044
20041TIP3   OH281613   6.608   3.989   5.846  0.3273 -0.2530 -0.0328
20041TIP3    H181614   6.617   4.051   5.774  2.0495  0.5353  0.8484
20041TIP3    H281615   6.542   3.927   5.815 -0.0292  0.9156 -1.6881
20042TIP3   OH281616   4.684   6.658   0.871  0.1881 -0.0084 -0.0338
20042TIP3    H181617   4.717   6.745   0.850 -0.7360  0.2920 -0.2350
20042TIP3    H281618   4.602   6.650   0.822 -0.2172 -0.6194  0.7319
20043TIP3   OH281619   0.217   0.774  16.014 -0.6862 -0.0380 -0.0057
20043TIP3    H181620   0.200   0.837  15.944 -1.4174 -1.3804 -1.0663
20043TIP3    H281621   0.237   0.828  16.091 -0.1857  1.4614 -1.1616
20044TIP3   OH281622   6.104   4.183   0.851  0.0499  0.0534  0.0465
20044TIP3    H181623   6.096   4.171   0.756 -2.0713  2.8530 -0.2175
20044TIP3    H281624   6.050   4.113   0.888 -0.3570 -0.1245 -0.8610
20045TIP3   OH281625   2.457   0.104  15.765  0.4233 -0.1281 -0.4630
20045TIP3    H181626   2.499   0.173  15.714  1.8455 -0.0925  0.7369
20045TIP3    H281627   2.517   0.030  15.760  0.2418 -0.3553  0.5625
20046TIP3   OH281628   2.941   3.594   1.668 -0.0869  0.3294 -0.4408
20046TIP3    H181629   2.869   3.542   1.632 -0.0159 -0.1283  0.0667
20046TIP3    H281630   2.997   3.530   1.711  0.4986  0.7161 -0.6259
20047TIP3   OH281631   2.910   6.219  12.703  1.0389 -0.2084  0.6196
20047TIP3    H181632   2.816   6.237  12.696  1.0462 -1.1476 -2.7415
20047TIP3    H281633   2.945   6.296  12.747 -1.2735  0.1948  1.8711
20048TIP3   OH281634   4.463   2.989  15.961 -0.0537 -0.1317  0.3861
20048TIP3    H181635   4.517   2.910  15.963  0.6849  0.3348 -0.6532
20048TIP3    H281636   4.496   3.039  15.886 -1.9627  0.1359 -0.3207
20049TIP3   OH281637   0.143   2.404  15.361 -0.7845 -0.1910 -0.4726
20049TIP3    H181638   0.207   2.456  15.312 -0.8977  0.4833  0.0823
20049TIP3    H281639   0.187   2.320  15.375  0.3239  0.5442  0.6102
20050TIP3   OH281640   1.104   3.918  16.906  0.7002  0.3391 -0.1358
20050TIP3    H181641   1.010   3.935  16.903  0.8551  1.3696  0.5408
20050TIP3    H281642   1.142   3.982  16.846  0.7673 -1.7197 -2.3417
20051TIP3   OH281643   3.324   2.065  15.579  0.0296 -0.4913  0.3053
20051TIP3    H181644   3.266   2.040  15.507  0.5909 -0.2734 -0.2340
20051TIP3    H281645   3.407   2.021  15.559  0.3553  0.0196  0.5145
20052TIP3   OH281646   0.154   2.610   1.019 -0.6205  0.0095  0.0601
20052TIP3    H181647   0.095   2.559   0.965 -1.0170  0.2189  0.2853
20052TIP3    H281648   0.210   2.657   0.957  1.3611 -2.5166 -0.1335
20053TIP3   OH281649   1.967   4.266  13.768  0.2665  0.9932 -0.5436
20053TIP3    H181650   1.899   4.305  13.822  1.7223  0.8611  1.4343
20053TIP3    H281651   2.040   4.327  13.772  0.7187  0.5468 -1.6344
20054TIP3   OH281652   5.290   5.498  13.963 -0.4873 -0.2716  0.2942
20054TIP3    H181653   5.365   5.552  13.937  0.0494 -0.2263  1.8603
20054TIP3    H281654   5.325   5.409  13.970 -1.0024 -0.5599 -0.7369
20055TIP3   OH281655   4.321   2.099  12.518 -0.1689 -0.3289 -0.3952
20055TIP3    H181656   4.249   2.041  12.541 -0.1397  0.1573  0.9561
20055TIP3    H281657   4.378   2.047  12.461 -1.3109 -0.8805 -1.0322
20056TIP3   OH281658   4.580   5.701   3.238 -0.5256 -0.1751  0.0427
20056TIP3    H181659   4.639   5.647   3.185  0.6368 -0.0820  1.2211
20056TIP3    H281660   4.499   5.705   3.187  0.8383  0.5833 -2.1207
20057TIP3   OH281661   6.399   5.639   6.545 -0.2292 -0.0277  0.2784
20057TIP3    H181662   6.331   5.626   6.479 -0.3797 -0.3477  0.4962
20057TIP3    H281663   6.371   5.717   6.594 -1.2090 -1.0275  1.3294
20058TIP3   OH281664   6.523   4.787  11.960  0.2029 -0.4090  0.1897
20058TIP3    H181665   6.441   4.769  11.915  0.6824 -0.9171 -0.5026
20058TIP3    H281666   6.497   4.817  12.047 -0.6845 -2.8995  0.8280
20059TIP3   OH281667   4.641   3.460   3.420 -0.3611 -0.1197 -0.2224
20059TIP3    H181668   4.567   3.512   3.391 -0.6954 -1.5170 -2.0045
20059TIP3    H281669   4.603   3.374   3.441  0.4971 -0.3265  0.5197
20060TIP3   OH281670   1.920   2.955   6.294 -0.4489  0.0115  0.2998
20060TIP3    H181671   1.894   3.047   6.295  1.2552  0.5038  0.6810
20060TIP3    H281672   1.896   2.922   6.381  1.4082  0.8296  1.1517
20061TIP3   OH281673   0.608   0.066  15.649  0.3726 -0.2109 -0.0798
20061TIP3    H181674   0.617  -0.009  15.707  0.8206  0.4378  0.7074
20061TIP3    H281675   0.678   0.126  15.676 -1.3244  1.4408  0.8005
20062TIP3   OH281676   2.058   1.132   3.798  0.0540  0.8875 -0.0058
20062TIP3    H181677   2.029   1.188   3.870  0.1431  1.6081 -0.5221
20062TIP3    H281678   1.988   1.069   3.787 -0.4230  1.4043  0.0457
20063TIP3   OH281679   5.768   6.680  11.013  0.3027 -0.1588 -0.7243
20063TIP3    H181680   5.696   6.734  11.045  0.4417 -0.4227  0.0534
20063TIP3    H281681   5.835   6.743  10.986  1.1667  0.0791  1.8152
20064TIP3   OH281682   3.980   2.755  15.538 -0.2970 -0.2511  0.3790
20064TIP3    H181683   3.920   2.761  15.612 -1.9648 -0.8205 -0.8890
20064TIP3    H281684   3.973   2.664  15.509  0.3900 -0.0479 -0.4367
20065TIP3   OH281685   4.008   1.120   4.432 -0.5396 -0.1268 -0.0156
20065TIP3    H181686   4.085   1.177   4.422 -0.3015 -0.4862 -0.2178
20065TIP3    H281687   4.011   1.093   4.524 -0.1222 -0.5761 -0.1629
20066TIP3   OH281688   4.155   1.751  16.504 -0.1148 -0.0864  0.7707
20066TIP3    H181689   4.177   1.699  16.581 -0.5959 -1.0084  0.3046
20066TIP3    H281690   4.143   1.686  16.434  2.4908  0.8538 -0.6326
20067TIP3   OH281691   1.223   6.601  15.490 -0.4161 -0.4348 -0.0085
20067TIP3    H181692   1.255   6.628  15.576  0.9581 -3.8208  0.6179
20067TIP3    H281693   1.186   6.514  15.504  0.6655 -1.4589 -2.9732
20068TIP3   OH281694   5.151   3.850   1.091 -0.4126 -0.2040 -0.7058
20068TIP3    H181695   5.102   3.826   1.012 -0.4172  1.9215 -1.3790
20068TIP3    H281696   5.212   3.917   1.061 -0.2669  0.4691  1.0725
20069TIP3   OH281697   1.964   0.725   3.679 -0.7236  0.5886  0.2196
20069TIP3    H181698   2.009   0.796   3.634 -2.1258  2.6667  2.0083
20069TIP3    H281699   2.027   0.693   3.743  0.0892 -0.1283 -0.9323
20070TIP3   OH281700   3.377   5.017   5.142  0.2753  0.9774  0.1941
20070TIP3    H181701   3.432   5.020   5.063  0.4383 -0.6810  0.2294
20070TIP3    H281702   3.388   4.928   5.175 -1.6705  0.9336  0.7527
20071TIP3   OH281703   6.545   6.276   1.390  0.1676  0.3068 -0.6939
20071TIP3    H181704   6.473   6.335   1.412 -1.1304 -1.0835 -1.0626
20071TIP3    H281705   6.503   6.190   1.384  2.3960 -1.0334  2.0163
20072TIP3   OH281706   5.950   5.582   2.911  0.3305  0.5207 -0.3902
20072TIP3    H181707   5.900   5.629   2.843  2.5811 -0.8113 -3.0656
20072TIP3    H281708   5.904   5.498   2.920 -1.1523  1.4676  1.2695
20073TIP3   OH281709   2.096   2.827   5.984  0.1665 -0.7822 -0.0056
20073TIP3    H181710   2.002   2.836   5.967  0.1219 -2.0529 -0.5014
20073TIP3    H281711   2.101   2.786   6.070  0.2959  0.5840  0.6412
20074TIP3   OH281712   4.025   6.382  12.984  0.2127  0.0469  0.3708
20074TIP3    H181713   4.013   6.460  12.931 -0.7443  0.8063  1.6697
20074TIP3    H281714   4.088   6.329  12.935  1.2919  1.8706 -0.2650
20075TIP3   OH281715   2.053   0.175   2.593  0.2212  0.3278  0.0377
20075TIP3    H181716   1.974   0.157   2.541  1.0531 -2.1236 -0.4237
20075TIP3    H281717   2.125   0.144   2.539  1.5241  2.3043  0.5790
20076TIP3   OH281718   3.391   4.021   2.548 -0.0014  0.4294  0.5743
20076TIP3    H181719   3.384   4.109   2.511 -0.8751 -0.1837 -0.7423
20076TIP3    H281720   3.476   3.989   2.518  0.1572  0.6823  0.7519
20077TIP3   OH281721   4.607   4.920  13.836 -0.8749 -0.4484 -0.0712
20077TIP3    H181722   4.634   4.900  13.747 -1.0784  0.3365 -0.3135
20077TIP3    H281723   4.686   4.951  13.879 -0.8082 -0.6836 -0.0260
20078TIP3   OH281724   1.460   2.131   0.500 -0.1319  0.3443  0.3489
20078TIP3    H181725   1.555   2.121   0.495 -0.1968 -0.5891  0.8195
20078TIP3    H281726   1.432   2.064   0.563 -1.1893  0.0760 -0.3821
20079TIP3   OH281727   4.793   0.581  12.397  0.2750 -0.3721  0.4127
20079TIP3    H181728   4.703   0.551  12.382 -0.2791 -0.0150  2.8567
20079TIP3    H281729   4.816   0.546  12.482  1.8717  0.9230  0.5289
20080TIP3   OH281730   1.383   5.687   4.507 -1.0394 -0.0746  0.1378
20080TIP3    H181731   1.404   5.666   4.598 -1.0604 -0.3574  0.0763
20080TIP3    H281732   1.459   5.655   4.457 -1.0204  0.0949  0.0580
20081TIP3   OH281733   3.797   2.500  10.408  0.3064 -0.2098  0.6876
20081TIP3    H181734   3.736   2.461  10.470  0.7604 -0.6866  0.8299
20081TIP3    H281735   3.792   2.594  10.426 -0.9974 -0.1609  0.1469
20082TIP3   OH281736   6.051   3.126   3.295 -0.3210  0.5916  0.1504
20082TIP3    H181737   5.997   3.047   3.307 -0.8099  0.5624 -2.1030
20082TIP3    H281738   6.100   3.133   3.377 -0.4190 -1.9556  0.4926
20083TIP3   OH281739   5.740   4.294   4.478 -0.2358 -0.5466 -0.8148
20083TIP3    H181740   5.789   4.243   4.415  0.4682 -0.1323 -0.6112
20083TIP3    H281741   5.807   4.334   4.534 -0.8598 -1.1934  0.4088
20084TIP3   OH281742   4.944   2.839   0.280  0.2172 -0.0755 -0.1849
20084TIP3    H181743   5.028   2.833   0.234 -0.2681  1.1294 -1.2394
20084TIP3    H281744   4.940   2.930   0.311 -0.5639 -0.2153  0.1258
20085TIP3   OH281745   6.474   0.723   3.094 -0.2303  0.5068 -0.1681
20085TIP3    H181746   6.388   0.761   3.111 -0.3723  0.0554  0.1055
20085TIP3    H281747   6.533   0.773   3.151 -0.5414 -0.2441  0.8277
20086TIP3   OH281748   1.412   1.954  13.390 -0.3535  0.1024  0.1371
20086TIP3    H181749   1.368   1.879  13.430 -0.7931  1.6078  2.5669
20086TIP3    H281750   1.351   2.027  13.401  0.5597  1.0811 -1.1374
20087TIP3   OH281751   2.480   2.504   2.459 -0.5380 -0.1488 -0.2232
20087TIP3    H181752   2.437   2.548   2.386 -1.2609 -0.4269  0.0244
20087TIP3    H281753   2.542   2.444   2.418 -0.0208  0.6202 -0.5730
20088TIP3   OH281754   5.650   0.097  11.516  0.4285 -0.6767 -0.3058
20088TIP3    H181755   5.696   0.066  11.438  0.4401 -2.8950  0.5477
20088TIP3    H281756   5.716   0.144  11.566  1.2673 -2.1284 -0.0392
20089TIP3   OH281757   6.298   1.625  11.748  0.4117  0.1860 -0.0398
20089TIP3    H181758   6.290   1.597  11.839  0.2185  0.7796  0.1267
20089TIP3    H281759   6.384   1.666  11.742  1.3778 -1.8392 -0.6716
20090TIP3   OH281760   2.745   5.804   5.047  0.2212  0.0995  0.0473
20090TIP3    H181761   2.784   5.885   5.080  0.2612 -0.2209  0.7944
20090TIP3    H281762   2.819   5.744   5.037  0.0992 -0.0728  0.1737
20091TIP3   OH281763   6.410   5.540  13.324  0.0845  0.1269 -0.2899
20091TIP3    H181764   6.392   5.485  13.401 -0.9825 -0.1486 -0.7212
20091TIP3    H281765   6.389   5.484  13.249 -0.0296  0.7848 -0.7559
20092TIP3   OH281766   6.046   0.292  13.597  0.0117  0.2137 -0.1428
20092TIP3    H181767   6.093   0.225  13.646  0.9461  0.0810 -1.2027
20092TIP3    H281768   6.014   0.353  13.664  0.0438 -0.7347  0.7370
20093TIP3   OH281769   6.639   2.715   1.092  0.2996 -0.6006 -0.0106
20093TIP3    H181770   6.551   2.713   1.053  1.2005 -1.0813 -2.0921
20093TIP3    H281771   6.697   2.727   1.017  2.2164 -3.0228  1.0347
20094TIP3   OH281772   1.177   3.328  14.149 -0.4329  0.0678  0.6829
20094TIP3    H181773   1.186   3.423  14.160 -0.5116  0.6507 -3.4715
20094TIP3    H281774   1.265   3.297  14.132 -0.5287 -0.4619  1.1662
20095TIP3   OH281775   1.996   2.622  15.956  0.5206 -0.4159 -0.1232
20095TIP3    H181776   1.944   2.566  15.900  0.9603 -1.9266  0.9288
20095TIP3    H281777   2.037   2.561  16.019  0.2918  1.1693  1.6067
20096TIP3   OH281778   4.845   1.366   1.302  0.2527  0.1145 -0.4257
20096TIP3    H181779   4.751   1.363   1.284  0.2660 -0.5718 -0.3862
20096TIP3    H281780   4.852   1.347   1.396  0.5911 -2.4843 -0.9214
20097TIP3   OH281781   4.191   1.217   5.106  0.0763 -0.0219 -0.0038
20097TIP3    H181782   4.211   1.160   5.032 -1.3661 -1.2966  0.5701
20097TIP3    H281783   4.098   1.204   5.123  0.2728  0.6192  1.7232
20098TIP3   OH281784   6.246   3.686  11.022 -0.7749  0.0656 -0.0941
20098TIP3    H181785   6.320   3.717  10.969  1.5732  0.0955  3.0399
20098TIP3    H281786   6.184   3.758  11.022  0.1778  0.8919 -0.9801
20099TIP3   OH281787   4.899   2.322  15.523  0.1959 -0.6144 -0.1714
20099TIP3    H181788   4.976   2.369  15.491 -0.0706 -0.2863 -0.3442
20099TIP3    H281789   4.895   2.242  15.471  0.6707 -0.8439  0.1458
20100TIP3   OH281790   6.162   1.867   1.547  1.2412  0.7034  0.0903
20100TIP3    H181791   6.186   1.959   1.534  0.4111  0.9827  0.5229
20100TIP3    H281792   6.179   1.851   1.640  1.6988  0.3213 -0.0566
20101TIP3   OH281793   0.719   4.902   0.741 -0.3909  0.1615 -0.5401
20101TIP3    H181794   0.769   4.947   0.809  0.4398 -0.9973 -0.3707
20101TIP3    H281795   0.657   4.847   0.788  0.2211 -0.6818 -0.7127
20102TIP3   OH281796   6.217   4.111  11.865 -0.0880  0.2907  0.0868
20102TIP3    H181797   6.233   4.116  11.771 -0.8899 -1.1646 -0.1347
20102TIP3    H281798   6.125   4.086  11.874 -0.3799  1.7099  1.2814
20103TIP3   OH281799   4.685   4.276  14.567 -0.6668  0.4489  0.4332
20103TIP3    H181800   4.647   4.220  14.635 -1.6407  0.6468  0.0656
20103TIP3    H281801   4.655   4.364  14.589 -0.6124  0.5747  0.0049
20104TIP3   OH281802   4.777   5.073   1.714  0.3879 -0.1249 -0.4708
20104TIP3    H181803   4.835   5.119   1.654  0.3969  1.2339  0.5466
20104TIP3    H281804   4.834   5.043   1.785  0.1619 -0.5495 -0.4666
20105TIP3   OH281805   2.203   1.674  16.231  0.3534  0.4773 -0.4244
20105TIP3    H181806   2.289   1.633  16.223  0.6610  0.8081  1.0824
20105TIP3    H281807   2.146   1.604  16.263  0.4113  0.6580  0.0839
20106TIP3   OH281808   5.212   5.948  13.141 -0.2581  0.6385 -0.2717
20106TIP3    H181809   5.135   5.936  13.197 -0.2419  0.4609 -0.2874
20106TIP3    H281810   5.258   6.022  13.179  0.3226 -0.1514  0.5709
20107TIP3   OH281811   2.703   5.098   6.204  0.3135  0.6331  0.1724
20107TIP3    H181812   2.726   5.118   6.295 -2.0462  2.2228  0.4506
20107TIP3    H281813   2.655   5.175   6.174 -2.8108 -1.6574 -0.9942
20108TIP3   OH281814   2.675   1.907   1.108  0.6721 -0.4431  0.1778
20108TIP3    H181815   2.640   1.850   1.177  0.2652  0.2053  0.5049
20108TIP3    H281816   2.615   1.896   1.034  0.8246 -0.7495  0.0973
20109TIP3   OH281817   3.677   3.498  13.349 -0.1590 -0.0703 -0.3608
20109TIP3    H181818   3.650   3.480  13.439  2.1168 -0.5454  0.2641
20109TIP3    H281819   3.713   3.415  13.318 -2.4098 -0.3860 -2.3219
20110TIP3   OH281820   1.644   3.338  15.816 -0.0075  0.0008 -0.1842
20110TIP3    H181821   1.675   3.252  15.789 -0.8759 -0.3507 -0.0931
20110TIP3    H281822   1.661   3.395  15.742  0.5116 -0.2617 -0.2691
20111TIP3   OH281823   2.202   1.090  17.219 -0.0472 -1.1760 -0.1599
20111TIP3    H181824   2.112   1.059  17.221 -0.8349  1.1146  0.4212
20111TIP3    H281825   2.217   1.114  17.128 -1.5335  2.6350  0.4988
20112TIP3   OH281826   4.348   6.668  13.090 -0.3011 -0.0936 -0.1193
20112TIP3    H181827   4.345   6.595  13.029  0.8589 -0.6235  0.4328
20112TIP3    H281828   4.405   6.732  13.048  1.4534 -0.9536  0.9120
20113TIP3   OH281829   1.885   1.830  10.792 -0.0515  0.0449 -0.5534
20113TIP3    H181830   1.808   1.885  10.779 -1.5440 -1.7508  0.3028
20113TIP3    H281831   1.959   1.886  10.770 -1.3291  3.0901  2.4631
20114TIP3   OH281832   0.362   5.643   2.885  0.5516 -0.7314  0.5350
20114TIP3    H181833   0.437   5.695   2.915  1.7905 -1.4753 -1.1543
20114TIP3    H281834   0.373   5.559   2.928  1.0453 -1.0389 -0.1756
20115TIP3   OH281835   2.331   3.322   5.368  0.0023 -0.5655  0.1905
20115TIP3    H181836   2.378   3.254   5.417 -0.1171 -0.8850 -0.1388
20115TIP3    H281837   2.396   3.391   5.353 -0.0939 -0.2134  1.2782
20116TIP3   OH281838   6.743   0.620  14.375 -0.4314 -0.1708  0.3525
20116TIP3    H181839   6.695   0.698  14.350  0.6995  0.8395  1.2651
20116TIP3    H281840   6.767   0.578  14.292 -0.9046  0.5166 -0.1336
20117TIP3   OH281841   0.463   3.601  13.434  0.2931 -1.1477  0.1227
20117TIP3    H181842   0.534   3.662  13.413 -0.3835  0.1861  1.6335
20117TIP3    H281843   0.461   3.541  13.359  2.7845 -1.0165 -0.1052
20118TIP3   OH281844   6.110   2.313   4.226  0.0174  0.2963 -0.1300
20118TIP3    H181845   6.031   2.316   4.280  0.5180  1.8727  0.5287
20118TIP3    H281846   6.099   2.233   4.173 -1.4948 -0.0898  0.7214
20119TIP3   OH281847   5.323   5.236   2.258 -0.4379 -0.0703  0.0215
20119TIP3    H181848   5.370   5.188   2.189 -1.6442 -0.4234 -0.5641
20119TIP3    H281849   5.330   5.181   2.335 -1.1428 -0.8277 -0.4476
20120TIP3   OH281850   6.494   0.885  13.202  0.7014  0.2022 -0.3146
20120TIP3    H181851   6.482   0.975  13.170 -1.2639 -0.2665 -0.9812
20120TIP3    H281852   6.411   0.842  13.182  1.4199 -1.6083  0.5429
20121TIP3   OH281853   4.970   5.527  13.238 -0.1470 -0.2747  0.5019
20121TIP3    H181854   5.043   5.586  13.221  0.0979 -1.0037 -1.0544
20121TIP3    H281855   4.925   5.519  13.153 -2.4158  0.6591  1.5560
20122TIP3   OH281856   6.788   2.692   2.631 -1.1974 -0.6522 -0.1593
20122TIP3    H181857   6.774   2.643   2.713  1.2764  1.3389  1.5295
20122TIP3    H281858   6.872   2.661   2.599 -1.2740 -0.0386 -0.9542
20123TIP3   OH281859   5.500   6.575   2.450  0.4980  0.6837 -0.1053
20123TIP3    H181860   5.409   6.594   2.477  0.7228  0.4732  0.8166
20123TIP3    H281861   5.549   6.576   2.532  0.7745 -2.5420 -0.1982
20124TIP3   OH281862   0.668   0.008  16.786 -0.2966 -0.3235 -0.4108
20124TIP3    H181863   0.578  -0.012  16.813 -0.9438  1.4709 -1.1702
20124TIP3    H281864   0.674   0.103  16.791  1.1139 -0.3169 -1.7754
20125TIP3   OH281865   3.782   3.566  16.066 -0.1404 -0.2654  0.2335
20125TIP3    H181866   3.708   3.528  16.018 -0.7792 -1.0327  1.7951
20125TIP3    H281867   3.859   3.531  16.022 -0.7195 -2.0198  0.5646
20126TIP3   OH281868   0.081   1.315  16.281 -0.4297  0.0914  0.2059
20126TIP3    H181869  -0.015   1.311  16.290 -0.5357  0.6199 -0.6532
20126TIP3    H281870   0.108   1.381  16.345 -0.5394 -0.7905  1.1607
20127TIP3   OH281871   5.054   0.588   4.394 -0.2206 -0.0103 -0.0766
20127TIP3    H181872   5.014   0.630   4.318 -0.3246 -0.9384 -0.5523
20127TIP3    H281873   5.004   0.620   4.469 -0.5539  0.3934 -0.4671
20128TIP3   OH281874   3.788   6.019   4.035  0.6349  0.0691 -0.0609
20128TIP3    H181875   3.844   5.967   4.094 -0.1947 -1.2709 -0.4477
20128TIP3    H281876   3.774   5.963   3.959 -1.4144  0.2925  0.1198
20129TIP3   OH281877   1.913   0.601   5.810 -0.0033 -0.5723 -0.5257
20129TIP3    H181878   1.834   0.655   5.813 -0.1815 -0.8575  0.3546
20129TIP3    H281879   1.956   0.617   5.895  1.2298  0.0852 -1.2610
20130TIP3   OH281880   3.205   5.353  12.934  0.4304 -0.3378  0.0657
20130TIP3    H181881   3.232   5.307  13.014  2.4109  0.5348 -0.0744
20130TIP3    H281882   3.166   5.284  12.880  3.4741 -1.9543 -0.1988
20131TIP3   OH281883   3.685   0.662   1.546 -0.0742  0.1411  0.4434
20131TIP3    H181884   3.666   0.657   1.640  0.3399 -0.8986  0.4861
20131TIP3    H281885   3.761   0.605   1.535  0.0556  0.4980 -0.4806
20132TIP3   OH281886   4.977   4.244   1.793 -0.2912  0.2035  0.0822
20132TIP3    H181887   4.935   4.312   1.845  1.1260  1.3593 -0.2547
20132TIP3    H281888   4.905   4.202   1.746 -1.6839 -1.2970  3.3923
20133TIP3   OH281889   4.933   0.495   6.236 -0.3258  0.1567 -0.2846
20133TIP3    H181890   5.027   0.490   6.219 -0.3694 -1.1198 -0.1721
20133TIP3    H281891   4.902   0.562   6.174  0.2600 -1.2064 -2.1082
20134TIP3   OH281892   6.802   4.237   4.936 -0.2136  0.2069 -0.4651
20134TIP3    H181893   6.741   4.230   4.862  0.7733  1.6448 -1.4313
20134TIP3    H281894   6.850   4.318   4.920  1.4288 -0.5206  0.6983
20135TIP3   OH281895   3.791   2.501  13.126  0.6012  0.2010 -0.1098
20135TIP3    H181896   3.882   2.507  13.154  0.9649 -2.0458 -0.7418
20135TIP3    H281897   3.752   2.437  13.186 -1.0304  2.4035  1.2714
20136TIP3   OH281898   0.104   5.822   1.972 -0.3302  0.4702 -0.0664
20136TIP3    H181899   0.039   5.753   1.985 -0.6723  0.6793 -0.6174
20136TIP3    H281900   0.077   5.865   1.890  0.2217  0.8700 -0.0437
20137TIP3   OH281901   0.377   2.077  16.363 -0.1690  0.8498  0.0863
20137TIP3    H181902   0.373   1.989  16.401 -1.3737  1.0612  0.4808
20137TIP3    H281903   0.468   2.087  16.335  0.2432 -0.0925  1.0571
20138TIP3   OH281904   4.325   0.640   4.369 -0.5244 -0.4513 -0.3833
20138TIP3    H181905   4.288   0.572   4.426 -1.1861  0.0342 -0.2307
20138TIP3    H281906   4.281   0.627   4.285 -2.8247  1.5917  0.4275
20139TIP3   OH281907   6.053   1.110  10.606 -0.3021  0.1929 -0.5891
20139TIP3    H181908   6.104   1.188  10.585  0.4012  0.1984  1.0778
20139TIP3    H281909   5.976   1.115  10.549  0.4201  1.3783 -1.4737
20140TIP3   OH281910   2.773   4.198   3.197  0.3973  1.1171  0.1611
20140TIP3    H181911   2.841   4.169   3.135 -0.2544 -0.7203  0.2749
20140TIP3    H281912   2.701   4.225   3.141  1.0750  2.7266  0.0487
20141TIP3   OH281913   0.925   1.507   2.266 -0.5547 -0.3768 -0.0427
20141TIP3    H181914   0.919   1.415   2.291 -0.8223 -0.8219 -1.6807
20141TIP3    H281915   0.982   1.508   2.189 -2.1711  0.5387 -1.2830
20142TIP3   OH281916   0.738   4.247   2.421 -0.0457  0.6032  0.1940
20142TIP3    H181917   0.765   4.273   2.509 -1.2868 -0.9886  1.0760
20142TIP3    H281918   0.703   4.327   2.382 -1.5409  0.8615  1.9778
20143TIP3   OH281919   1.871   2.996  14.998 -0.4617  0.4889 -0.5027
20143TIP3    H181920   1.807   3.017  14.931 -0.1977 -0.2114 -0.9775
20143TIP3    H281921   1.824   2.941  15.061 -0.5216  0.5759 -0.4711
20144TIP3   OH281922   5.252   6.364   2.886 -0.9093  0.1194 -0.3686
20144TIP3    H181923   5.299   6.342   2.805  0.8138 -0.8238  0.8479
20144TIP3    H281924   5.230   6.279   2.924 -1.0001  0.5572  0.5503
20145TIP3   OH281925   6.236   3.144  16.962 -0.1495  0.3045  0.1132
20145TIP3    H181926   6.224   3.053  16.989  0.2035 -0.0526 -0.9082
20145TIP3    H281927   6.156   3.165  16.912 -0.6442  0.8521  1.1124
20146TIP3   OH281928   2.892   4.475   1.939  0.1689  0.0772 -0.2235
20146TIP3    H181929   2.923   4.427   1.863 -0.9098  0.0625 -0.6709
20146TIP3    H281930   2.829   4.539   1.904 -0.5865 -0.1519  0.6711
20147TIP3   OH281931   1.989   2.460   1.862  0.0160 -0.3697 -0.1165
20147TIP3    H181932   1.988   2.417   1.948 -2.3726  0.1986  0.1803
20147TIP3    H281933   1.992   2.553   1.882  2.2034 -0.3014 -0.7154
20148TIP3   OH281934   2.835   5.335  16.983 -0.4539  0.0256  0.0391
20148TIP3    H181935   2.880   5.260  17.021 -0.3319 -0.6144 -1.3428
20148TIP3    H281936   2.742   5.311  16.984 -0.6102  0.6518  1.3427
20149TIP3   OH281937   2.009   4.864  17.022  0.1946 -0.1960 -0.3665
20149TIP3    H181938   1.949   4.807  16.974 -0.6743 -0.0868  0.5626
20149TIP3    H281939   2.070   4.897  16.956 -0.3907 -0.7938 -1.2159
20150TIP3   OH281940   5.530   1.430  15.081  1.2090  0.0285 -0.2349
20150TIP3    H181941   5.498   1.508  15.035  1.3372 -0.5142 -1.2621
20150TIP3    H281942   5.524   1.453  15.174 -0.7226  0.4867 -0.4596
20151TIP3   OH281943   1.885   6.588   3.062  0.2073 -0.4230 -0.2171
20151TIP3    H181944   1.826   6.607   2.990 -0.0962  0.5183  0.2723
20151TIP3    H281945   1.849   6.510   3.103 -0.4410 -0.1103 -0.1927
20152TIP3   OH281946   2.816   2.346  11.802  0.9456 -0.4073  0.6528
20152TIP3    H181947   2.857   2.271  11.759  0.6814 -0.8108  1.1091
20152TIP3    H281948   2.798   2.316  11.891 -1.0192 -0.4971  0.2490
20153TIP3   OH281949   0.205   6.262   2.592  0.3617 -0.1675 -0.2109
20153TIP3    H181950   0.134   6.322   2.569 -1.0765 -1.4547  0.7657
20153TIP3    H281951   0.254   6.250   2.510 -2.3843 -1.6511 -1.7056
20154TIP3   OH281952   5.442   1.245   1.891  0.3711 -0.4670 -0.5627
20154TIP3    H181953   5.491   1.182   1.944  1.1158  1.6110  1.3078
20154TIP3    H281954   5.409   1.194   1.817 -1.1413 -3.5654  2.1417
20155TIP3   OH281955   1.283   1.872  15.531 -0.1003 -0.0640 -0.6399
20155TIP3    H181956   1.363   1.924  15.527  0.6683 -1.2904 -1.1811
20155TIP3    H281957   1.229   1.907  15.459 -0.2081  1.0005 -0.0490
20156TIP3   OH281958   2.956   4.707   0.424  0.0429  0.5039  0.6541
20156TIP3    H181959   2.977   4.798   0.448  1.0238  0.3936  0.2357
20156TIP3    H281960   2.987   4.655   0.498  1.6202  0.3044 -0.1396
20157TIP3   OH281961   1.558   5.141  12.066 -0.2686 -0.9785  0.1783
20157TIP3    H181962   1.631   5.202  12.078 -1.8964  0.4433  3.3296
20157TIP3    H281963   1.505   5.180  11.997 -0.0273 -0.1137  0.4807
20158TIP3   OH281964   0.756   3.474  13.464 -0.3557 -0.8008 -0.2179
20158TIP3    H181965   0.754   3.382  13.490 -0.0305 -0.6161  0.4731
20158TIP3    H281966   0.746   3.472  13.369  0.8069 -1.6159 -0.3357
20159TIP3   OH281967   0.957   5.807  11.010 -0.3323 -0.1493 -0.2913
20159TIP3    H181968   0.897   5.857  10.954  0.1469  0.7947  0.0258
20159TIP3    H281969   1.016   5.763  10.948 -2.1177 -2.1275 -0.6607
20160TIP3   OH281970   4.958   0.762   2.950 -0.3598 -0.0275  1.1980
20160TIP3    H181971   5.001   0.840   2.916  0.8365 -0.0637  2.6216
20160TIP3    H281972   5.008   0.689   2.913 -2.0865 -0.1753 -0.9547
20161TIP3   OH281973   5.252   2.178  11.957  0.5007 -0.3567  0.1443
20161TIP3    H181974   5.193   2.163  11.883 -1.1017  2.9055  0.6980
20161TIP3    H281975   5.205   2.141  12.032 -0.0276  0.5654  0.2766
20162TIP3   OH281976   0.503   2.082   1.069 -0.6200  0.3082 -0.3137
20162TIP3    H181977   0.554   2.029   1.130  0.0726  0.9764 -0.3096
20162TIP3    H281978   0.568   2.136   1.024 -1.1371 -0.0633 -1.5320
20163TIP3   OH281979   1.821   3.038  16.257  0.3141 -0.6261 -0.2704
20163TIP3    H181980   1.864   2.977  16.197 -0.7071  0.0684 -1.7399
20163TIP3    H281981   1.797   3.113  16.202 -0.6859  0.0064  0.9987
20164TIP3   OH281982   3.864   0.195  14.852  0.0851  0.4980 -0.1156
20164TIP3    H181983   3.817   0.261  14.904 -0.9348 -0.0036 -0.3942
20164TIP3    H281984   3.798   0.128  14.833  1.2978 -0.9920  0.8091
20165TIP3   OH281985   5.340   3.072   2.810 -0.4352 -0.0051 -0.0533
20165TIP3    H181986   5.284   3.048   2.736 -0.0051  0.3204 -0.4868
20165TIP3    H281987   5.298   3.149   2.848  0.7509  1.4027 -1.5478
20166TIP3   OH281988   2.417   1.903  12.311  0.7349  0.2640  0.1095
20166TIP3    H181989   2.391   1.812  12.295 -1.6241  0.9856 -0.3981
20166TIP3    H281990   2.513   1.901  12.314  0.6494 -2.8126  3.8181
20167TIP3   OH281991   3.873   3.448   0.045 -0.4358 -0.1719 -0.0135
20167TIP3    H181992   3.947   3.401   0.085 -0.2874 -0.2555 -0.3771
20167TIP3    H281993   3.822   3.380   0.001  0.6114  0.1728 -1.8395
20168TIP3   OH281994   2.707   3.615  12.014 -0.0060  0.1303 -0.0588
20168TIP3    H181995   2.733   3.678  11.946 -0.8531  0.8061  0.2293
20168TIP3    H281996   2.654   3.550  11.968 -0.1181  0.2833 -0.1465
20169TIP3   OH281997   6.420   6.321   2.088 -0.0033  0.2711  0.0663
20169TIP3    H181998   6.509   6.354   2.077 -0.3968  1.0663 -0.8145
20169TIP3    H281999   6.401   6.333   2.181  0.4973  0.9237  0.0891
20170TIP3   OH282000   2.603   4.567   1.606  0.0555 -0.0069  0.1137
20170TIP3    H182001   2.523   4.620   1.603  0.4858  0.7675  1.5458
20170TIP3    H282002   2.589   4.506   1.678  0.5275 -0.2231  0.0247
20171TIP3   OH282003   1.653   5.427   6.153  0.0949  0.3850 -0.4787
20171TIP3    H182004   1.642   5.339   6.191  1.6269  0.4678  0.1980
20171TIP3    H282005   1.721   5.468   6.207  0.3151  1.5251 -1.5958
20172TIP3   OH282006   3.941   3.973   1.441  0.3738  0.8134  0.5626
20172TIP3    H182007   3.892   3.981   1.523  2.4291 -2.2642  2.2043
20172TIP3    H282008   3.879   3.932   1.381 -0.2425  0.3289  1.5124
20173TIP3   OH282009   6.714   4.390  10.589 -0.0219  0.1641 -0.5532
20173TIP3    H182010   6.744   4.464  10.642 -1.2123 -0.1078  0.5287
20173TIP3    H282011   6.758   4.401  10.505 -0.7890  2.5404 -0.6575
20174TIP3   OH282012   3.905   4.516  12.656  0.5092 -0.1159  0.3237
20174TIP3    H182013   3.971   4.464  12.702  1.0052 -1.0162 -1.3624
20174TIP3    H282014   3.834   4.525  12.719  0.8281 -2.0008  0.9826
20175TIP3   OH282015   2.792   6.798   5.889 -0.0925 -0.4401 -0.2986
20175TIP3    H182016   2.878   6.829   5.917 -0.9575  1.2526  0.5928
20175TIP3    H282017   2.739   6.799   5.969 -1.4864  0.4875 -1.2036
20176TIP3   OH282018   3.337   0.899   4.288 -0.3274  0.0132  0.0979
20176TIP3    H182019   3.366   0.989   4.304  0.1439 -0.5702  2.7593
20176TIP3    H282020   3.416   0.852   4.265 -0.1101 -0.3022  1.4619
20177TIP3   OH282021   3.179   0.478   0.384  0.0546  0.3004  1.0493
20177TIP3    H182022   3.111   0.515   0.328  0.6512  1.0810  0.8302
20177TIP3    H282023   3.171   0.527   0.466  1.2538  1.3679  0.5450
20178TIP3   OH282024   4.229   2.881   1.009  0.3893  0.2308 -0.4313
20178TIP3    H182025   4.233   2.976   1.023 -0.0632 -0.1689  2.8055
20178TIP3    H282026   4.310   2.849   1.050 -0.7123 -1.0083  0.7887
20179TIP3   OH282027   0.731   4.487   6.031 -0.2499  0.4192 -0.1179
20179TIP3    H182028   0.775   4.444   6.104 -1.1962  1.4927  1.0884
20179TIP3    H282029   0.800   4.503   5.967  0.8251  0.7005  1.1077
20180TIP3   OH282030   4.129   5.875  11.481 -0.0275  0.6023  0.7218
20180TIP3    H182031   4.083   5.936  11.539  1.3575 -0.1564  2.6705
20180TIP3    H282032   4.091   5.789  11.502  1.8718  0.0392  1.9987
20181TIP3   OH282033   3.726   2.457   2.606  0.0443 -0.0637 -0.3818
20181TIP3    H182034   3.664   2.475   2.535  0.4414  1.7542 -0.2835
20181TIP3    H282035   3.810   2.445   2.563 -0.6700 -4.5800 -0.7096
20182TIP3   OH282036   1.518   1.153   1.398  0.1461  0.3084 -0.4888
20182TIP3    H182037   1.499   1.107   1.317  0.4983  0.1782 -0.5005
20182TIP3    H282038   1.590   1.213   1.376  0.3199  0.1900 -0.2479
20183TIP3   OH282039   0.800   3.352   1.730 -0.1783 -0.4601  0.0828
20183TIP3    H182040   0.841   3.298   1.662  0.5676  0.4621 -0.2267
20183TIP3    H282041   0.871   3.408   1.761 -0.7593 -0.1899  0.9261
20184TIP3   OH282042   5.653   5.645   1.041 -0.3761  0.1353 -0.1700
20184TIP3    H182043   5.634   5.691   1.123  2.7674  1.2265  0.0195
20184TIP3    H282044   5.640   5.552   1.062  0.4904  0.3953  1.6155
20185TIP3   OH282045   5.108   0.819   4.832  0.0916 -0.1555  0.2312
20185TIP3    H182046   5.200   0.827   4.859 -0.3940 -2.1962  2.6862
20185TIP3    H282047   5.107   0.853   4.743  2.8079  1.9799  0.9267
20186TIP3   OH282048   4.660   1.492   5.566 -0.1690  0.0675  0.6817
20186TIP3    H182049   4.631   1.535   5.647  0.6837  1.9253  0.0126
20186TIP3    H282050   4.581   1.487   5.512 -0.8563 -1.6263  1.7893
20187TIP3   OH282051   0.181   5.328   3.611 -0.8163 -0.0570  0.2343
20187TIP3    H182052   0.111   5.292   3.556 -0.5103  0.5750 -0.5888
20187TIP3    H282053   0.250   5.262   3.608 -1.5181 -0.8600  1.3662
20188TIP3   OH282054   4.929   4.208   4.324  0.2177 -0.0775 -0.0662
20188TIP3    H182055   4.862   4.146   4.296  0.7233 -0.1631 -1.1197
20188TIP3    H282056   4.946   4.185   4.415 -2.2844  0.9552  0.7115
20189TIP3   OH282057   2.444   1.857   5.635 -0.0035 -0.9076 -0.6318
20189TIP3    H182058   2.416   1.907   5.558 -3.0969 -0.2731  0.8739
20189TIP3    H282059   2.461   1.769   5.600  2.6683  0.3653 -2.7592
20190TIP3   OH282060   4.452   3.733   1.860 -0.1238 -0.7194 -0.3431
20190TIP3    H182061   4.455   3.637   1.865  2.1967 -0.6411  0.3724
20190TIP3    H282062   4.465   3.762   1.950  1.6048  0.2928 -0.8984
20191TIP3   OH282063   0.929   3.860   4.564  0.2955  0.1439 -0.3340
20191TIP3    H182064   0.866   3.787   4.559  3.0290 -2.3535  0.4520
20191TIP3    H282065   0.994   3.840   4.496  1.6416  1.3080  0.5923
20192TIP3   OH282066   1.416   1.484  12.063 -0.5329  0.3377  0.1133
20192TIP3    H182067   1.419   1.431  12.143  1.0799 -0.0341 -0.1788
20192TIP3    H282068   1.336   1.537  12.072 -2.0057 -1.9119  0.5400
20193TIP3   OH282069   1.342   5.685  13.661  0.1751 -0.1306 -0.1329
20193TIP3    H182070   1.316   5.777  13.650 -0.7616 -0.3654  0.0330
20193TIP3    H282071   1.276   5.636  13.612  1.0374 -0.6840 -0.7436
20194TIP3   OH282072   3.516   4.376  13.326  0.3398  0.0130 -0.4400
20194TIP3    H182073   3.528   4.400  13.234  1.7902 -0.4767 -0.3862
20194TIP3    H282074   3.530   4.282  13.328 -0.1681 -0.0485  0.2155
20195TIP3   OH282075   2.571   4.271   4.954  0.6962  0.0278 -0.5444
20195TIP3    H182076   2.479   4.254   4.976  0.7387 -0.2582 -0.5840
20195TIP3    H282077   2.574   4.364   4.934  0.5106  0.1433 -0.0540
20196TIP3   OH282078   5.825   5.240  12.636  0.0905 -0.5082 -0.2449
20196TIP3    H182079   5.759   5.285  12.688 -0.1021  1.1353 -1.8929
20196TIP3    H282080   5.879   5.193  12.701 -0.2613  1.3505  1.4106
20197TIP3   OH282081   3.586   2.187  13.350 -0.5446  0.2013  0.0342
20197TIP3    H182082   3.588   2.165  13.443 -3.6651  1.7971  0.5336
20197TIP3    H282083   3.502   2.153  13.319 -0.0972  0.8242 -1.9303
20198TIP3   OH282084   3.099   2.817  11.036  0.6518 -0.1056  0.1500
20198TIP3    H182085   3.110   2.727  11.006  0.6995  0.3919 -1.3592
20198TIP3    H282086   3.016   2.845  10.999  1.2809  0.9153 -0.5035
20199TIP3   OH282087   4.830   6.562   5.331 -0.2518  0.1342  0.1387
20199TIP3    H182088   4.772   6.547   5.406  0.1578 -0.1195  0.4004
20199TIP3    H282089   4.875   6.644   5.352 -0.0464 -0.0017  0.2239
20200TIP3   OH282090   0.270   0.811  10.872  0.0827 -0.0987 -0.5182
20200TIP3    H182091   0.246   0.761  10.794  2.4616  0.5811 -1.7260
20200TIP3    H282092   0.310   0.746  10.930 -1.0349 -0.4649 -0.1439
20201TIP3   OH282093   2.319   4.108  11.868  0.2944  0.2476 -0.4166
20201TIP3    H182094   2.240   4.069  11.831 -0.2574  1.7060 -0.8036
20201TIP3    H282095   2.332   4.062  11.951  0.1919 -1.3874 -1.2884
20202TIP3   OH282096   4.455   5.923   0.338  0.2231  0.6414  0.1704
20202TIP3    H182097   4.480   5.838   0.301 -0.0349  0.5482  0.2124
20202TIP3    H282098   4.383   5.953   0.283  0.6496  1.0677 -0.1551
20203TIP3   OH282099   4.387   3.677  12.133 -0.1661 -0.2174  0.5311
20203TIP3    H182100   4.315   3.643  12.186 -2.0053  0.8998 -1.1687
20203TIP3    H282101   4.356   3.669  12.042  1.2596  1.5873 -0.1552
20204TIP3   OH282102   6.486   4.196   4.008 -0.2468  0.0839 -0.3063
20204TIP3    H182103   6.428   4.121   4.000 -0.0980 -0.0241 -0.3619
20204TIP3    H282104   6.561   4.175   3.953 -0.5615  0.6095 -0.9476
20205TIP3   OH282105   5.623   6.267   1.601 -0.0434 -0.3988 -0.2464
20205TIP3    H182106   5.598   6.326   1.530 -0.1877 -1.8408 -1.4285
20205TIP3    H282107   5.690   6.210   1.562  1.5756  0.2751  1.4604
20206TIP3   OH282108   4.839   1.793   4.435  0.2015  0.1987 -0.0866
20206TIP3    H182109   4.788   1.721   4.472  1.7192 -0.6621  0.3901
20206TIP3    H282110   4.809   1.871   4.481 -0.4384 -0.3399  0.4087
20207TIP3   OH282111   0.643   3.749   1.937 -0.3637  0.5029 -0.4693
20207TIP3    H182112   0.597   3.825   1.973  0.5940  0.7888  0.1637
20207TIP3    H282113   0.576   3.702   1.887 -1.0590  1.5421 -0.5299
20208TIP3   OH282114   1.433   4.766   0.376 -0.8200  1.0125 -0.3705
20208TIP3    H182115   1.392   4.682   0.396 -0.0096  0.6040 -0.3936
20208TIP3    H282116   1.377   4.806   0.309 -0.5038 -0.1020 -1.3227
20209TIP3   OH282117   6.516   4.674  12.944 -0.4545  0.0940 -0.1704
20209TIP3    H182118   6.584   4.622  12.986 -0.9218  0.4946  1.1039
20209TIP3    H282119   6.500   4.746  13.004 -2.5544 -0.4282 -0.0397
20210TIP3   OH282120   6.481   3.849   3.366  0.0885  0.2069  0.1667
20210TIP3    H182121   6.483   3.807   3.280  1.5288  2.0866 -0.7540
20210TIP3    H282122   6.388   3.853   3.388 -0.3585  0.2223 -1.5896
20211TIP3   OH282123   3.078   2.647   2.613 -0.1741 -0.0764  0.0662
20211TIP3    H182124   3.078   2.556   2.642 -1.5761 -0.6012 -1.4927
20211TIP3    H282125   3.166   2.662   2.578  0.4093 -0.4801  1.3486
20212TIP3   OH282126   3.365   6.606  10.542  0.0041 -0.6069 -0.0470
20212TIP3    H182127   3.391   6.575  10.629  0.5141 -0.9619 -0.3229
20212TIP3    H282128   3.445   6.644  10.505  0.1678 -1.7800 -0.9298
20213TIP3   OH282129   5.438   1.386   0.582  0.1080  0.2543  0.1816
20213TIP3    H182130   5.404   1.466   0.542 -0.3392  0.4022  0.8419
20213TIP3    H282131   5.530   1.406   0.602 -0.7445  1.6470  2.9776
20214TIP3   OH282132   3.180   1.023   4.044 -0.1765  0.1023 -0.0797
20214TIP3    H182133   3.238   1.035   4.119  0.9655 -0.1312 -0.9137
20214TIP3    H282134   3.180   1.109   4.000  3.1624 -1.0540 -2.6112
20215TIP3   OH282135   4.371   5.862  17.206  0.1838  0.2803 -0.0526
20215TIP3    H182136   4.368   5.775  17.166 -0.4512  0.2039  0.1602
20215TIP3    H282137   4.384   5.922  17.132 -0.7250  0.1188 -0.3491
20216TIP3   OH282138   0.056   2.262   2.994  0.4316 -0.5485 -0.0910
20216TIP3    H182139   0.084   2.353   2.987 -0.7505 -0.1064  0.8152
20216TIP3    H282140   0.057   2.244   3.088  0.6186 -1.4699 -0.2612
20217TIP3   OH282141   3.907   2.644   4.711 -0.2620 -0.0970  0.7214
20217TIP3    H182142   3.889   2.738   4.706 -1.5075 -0.3533  0.3798
20217TIP3    H282143   3.936   2.620   4.623 -1.1883 -0.2856  0.4650
20218TIP3   OH282144   2.820   5.540  13.454  0.4303  0.3171 -0.5252
20218TIP3    H182145   2.856   5.623  13.424  1.4652  0.1988  0.3720
20218TIP3    H282146   2.839   5.478  13.384  2.2890  0.1796  0.0876
20219TIP3   OH282147   2.417   0.324  14.911  0.2905 -0.4462 -0.2000
20219TIP3    H182148   2.483   0.360  14.971  0.8237 -0.2832 -0.8808
20219TIP3    H282149   2.364   0.399  14.885 -2.7604 -1.1717  3.5090
20220TIP3   OH282150   2.689   4.638   6.572  0.0894 -0.1400 -0.5004
20220TIP3    H182151   2.752   4.566   6.566 -0.2830 -0.4954 -0.2278
20220TIP3    H282152   2.692   4.680   6.486 -1.1344 -1.7262 -1.3519
20221TIP3   OH282153   0.033   5.752   4.473  0.9161  0.1586 -0.4531
20221TIP3    H182154   0.090   5.718   4.542  0.7329 -0.4370 -0.5909
20221TIP3    H282155   0.092   5.802   4.417  1.3656 -0.7131 -0.7694
20222TIP3   OH282156   4.599   6.233  12.474 -0.1269 -0.1651  0.1024
20222TIP3    H182157   4.676   6.185  12.503  0.3294  1.3245  1.3555
20222TIP3    H282158   4.551   6.170  12.419  2.1471 -0.9699 -1.0173
20223TIP3   OH282159   4.428   2.083   3.077 -0.4408 -0.0545 -0.7821
20223TIP3    H182160   4.349   2.116   3.119 -0.4742 -2.2607  0.9250
20223TIP3    H282161   4.445   2.146   3.006 -1.5087  2.6175  1.2457
20224TIP3   OH282162   2.715   0.817  13.050  0.5874  0.5950 -0.2609
20224TIP3    H182163   2.629   0.791  13.016 -0.8442  2.8784  1.4676
20224TIP3    H282164   2.760   0.854  12.974 -0.2561  0.0739 -1.0220
20225TIP3   OH282165   4.916   1.128   6.709  0.2185 -0.2312 -0.2581
20225TIP3    H182166   4.840   1.142   6.766  1.1203 -0.7712  1.1067
20225TIP3    H282167   4.890   1.055   6.653 -0.2563 -0.4639  0.2519
20226TIP3   OH282168   3.202   6.727   4.008  0.5239 -0.1444 -0.2668
20226TIP3    H182169   3.151   6.801   4.043  0.2488 -1.8060  3.0317
20226TIP3    H282170   3.290   6.740   4.043  0.5129 -1.2949  0.2060
20227TIP3   OH282171   1.020   6.397  14.550  0.0948 -0.0481  0.2748
20227TIP3    H182172   1.043   6.445  14.470  0.5957  0.2231  0.5750
20227TIP3    H282173   1.060   6.448  14.621  1.7976 -1.6419  0.4837
20228TIP3   OH282174   0.127   1.955  15.858  0.5552  0.2483 -0.6610
20228TIP3    H182175   0.102   1.873  15.898  0.0657  0.2356 -0.9930
20228TIP3    H282176   0.184   1.998  15.923 -2.4290  1.4911  1.2294
20229TIP3   OH282177   1.072   2.443   1.244 -0.1181  0.0756 -0.7547
20229TIP3    H182178   1.103   2.400   1.324  2.3731 -1.1841 -2.3506
20229TIP3    H282179   1.106   2.532   1.250 -0.4303  0.1519 -0.1319
20230TIP3   OH282180   6.719   2.762   4.333 -0.2626  0.0106  0.2297
20230TIP3    H182181   6.684   2.709   4.404 -0.7392 -0.2674 -0.2085
20230TIP3    H282182   6.680   2.849   4.347  1.3602  0.5464  1.5696
20231TIP3   OH282183   0.211   6.649  16.865  0.0961 -0.0901 -0.4835
20231TIP3    H182184   0.137   6.590  16.851  0.0356  0.1293 -1.1021
20231TIP3    H282185   0.288   6.595  16.846  0.0302  0.0984 -1.3099
20232TIP3   OH282186   1.634   0.953  17.265  0.0951 -0.0364 -0.6257
20232TIP3    H182187   1.572   0.910  17.206 -0.2782  0.7785 -0.8352
20232TIP3    H282188   1.656   1.035  17.221  0.8064 -0.0085 -0.2304
20233TIP3   OH282189   5.405   0.121  16.321  0.3460 -0.0462 -0.5490
20233TIP3    H182190   5.317   0.158  16.325  0.6566  0.5898  0.5619
20233TIP3    H282191   5.413   0.089  16.231 -0.4559  1.3022 -1.1271
20234TIP3   OH282192   0.119   6.219  12.114  0.8988 -0.5810 -0.0584
20234TIP3    H182193   0.064   6.141  12.120  0.4960 -0.2024  1.2411
20234TIP3    H282194   0.188   6.194  12.052 -0.3377 -1.2794 -1.1875
20235TIP3   OH282195   5.435   1.304   5.362 -0.3436  0.6839  0.1414
20235TIP3    H182196   5.405   1.217   5.390 -1.0094  1.7559  2.9384
20235TIP3    H282197   5.530   1.299   5.365 -0.3590 -0.3204 -0.8977
20236TIP3   OH282198   3.976   6.191   2.232  0.5352  0.3529  0.2037
20236TIP3    H182199   4.011   6.264   2.283  0.5237 -0.7455  1.8043
20236TIP3    H282200   4.033   6.117   2.254 -0.8400 -0.6725  0.3578
20237TIP3   OH282201   2.534   2.037   2.604  0.6160  0.4849  0.0194
20237TIP3    H182202   2.466   1.972   2.584  1.7721 -0.3481 -1.2905
20237TIP3    H282203   2.490   2.121   2.593 -0.3366 -0.0457 -0.3235
20238TIP3   OH282204   0.856   3.266  11.020  0.1171  0.1114  0.6145
20238TIP3    H182205   0.817   3.190  11.063  2.2468 -0.5019  1.5220
20238TIP3    H282206   0.785   3.303  10.968 -1.2460 -1.8675  1.0126
20239TIP3   OH282207   2.019   3.627   6.528 -0.4363 -0.1714  0.2502
20239TIP3    H182208   2.081   3.610   6.457 -0.9736 -0.0902 -0.2514
20239TIP3    H282209   2.067   3.682   6.590  0.6585 -1.8049  0.8911
20240TIP3   OH282210   4.856   4.497   0.565 -0.1758  0.2441  0.0550
20240TIP3    H182211   4.800   4.562   0.607  0.0576  0.1432  0.5257
20240TIP3    H282212   4.921   4.549   0.517 -0.6639  0.3612 -0.4870
20241TIP3   OH282213   4.492   2.855   1.206 -0.3725  0.0364  0.5714
20241TIP3    H182214   4.563   2.808   1.249 -1.0254 -1.5996 -0.1323
20241TIP3    H282215   4.525   2.873   1.118  0.6981  2.7976  1.4561
20242TIP3   OH282216   5.582   2.548   2.552  0.1708 -0.2073 -0.0553
20242TIP3    H182217   5.494   2.577   2.528  0.7053  0.6966 -0.9418
20242TIP3    H282218   5.612   2.497   2.478  0.5428 -0.1915  0.0849
20243TIP3   OH282219   6.498   5.454  13.835  0.5431 -0.1651 -0.0769
20243TIP3    H182220   6.442   5.531  13.835  1.1518  0.3123 -2.9035
20243TIP3    H282221   6.587   5.489  13.832  0.8506 -0.9691 -0.3594
20244TIP3   OH282222   0.440   0.646   3.553  0.3229 -0.1004  0.4556
20244TIP3    H182223   0.501   0.575   3.537 -0.5834 -1.7508  3.8473
20244TIP3    H282224   0.495   0.724   3.558  1.8374 -1.1679  0.7451
20245TIP3   OH282225   6.299   3.257  11.535 -0.3061  0.1245 -0.4866
20245TIP3    H182226   6.329   3.226  11.449 -0.4522  1.7254 -1.1182
20245TIP3    H282227   6.373   3.239  11.594 -0.0294 -0.5473 -1.0279
20246TIP3   OH282228   0.687   6.416  15.215  0.1564 -0.4622 -0.2772
20246TIP3    H182229   0.679   6.423  15.120 -0.6918  2.5040 -0.0250
20246TIP3    H282230   0.658   6.327  15.235  2.9084 -2.0876 -3.0286
20247LIG      O82231   5.334   2.014  16.113 -0.3226  0.2238 -0.9514
20247LIG      N82232   4.941   2.207  16.283  0.2468 -0.2279  0.1974
20247LIG     C182233   5.358   2.131  16.316  0.1185  0.4894 -0.6903
20247LIG     C282234   5.272   2.035  16.236 -0.2146  0.5069 -0.0847
20247LIG     C382235   5.494   2.076  16.354 -0.1326  0.4004 -0.4068
20247LIG     C482236   5.377   2.274  16.259  0.0034 -0.4357  0.2209
20247LIG     C582237   5.132   2.087  16.205  0.5572 -0.2567 -0.3862
20247LIG     C682238   5.567   2.170  16.454  0.2359  0.1737 -0.2986
20247LIG     C782239   5.444   2.367  16.359  0.2422  0.1401 -0.1240
20247LIG     C882240   5.581   2.309  16.402  0.2867 -0.5380  0.0695
20247LIG     C982241   5.051   2.124  16.337 -0.2624  0.0562  0.0469
20247LIG    C1082242   5.249   1.897  16.314 -0.1738  0.1514  0.7520
20247LIG    C1182243   4.991   2.338  16.258 -0.6358 -0.3773  0.0552
20247LIG    C1282244   4.830   2.207  16.385 -0.2712  0.8103 -0.2386
20247LIG    C1382245   4.883   2.431  16.191 -0.4860 -0.4562 -0.3509
20247LIG    C1482246   4.718   2.284  16.316  0.0293 -0.7063  0.2755
20247LIG    C1582247   4.758   2.432  16.277  0.6903  0.2823  0.2681
20247LIG    C1682248   5.226   1.886  16.455 -0.2107  0.5488  0.3127
20247LIG    C1782249   5.233   1.778  16.242  0.3795  0.2876  1.3899
20247LIG    C1882250   5.207   1.761  16.517  0.8307  0.5642 -0.0813
20247LIG    C1982251   5.210   1.650  16.301  0.1757 -0.4936 -0.4199
20247LIG    C2082252   5.205   1.642  16.444 -0.1426 -0.0981  0.3196
20247LIG     H182253   5.308   2.148  16.414  0.3203 -3.1016  0.1115
20247LIG     H282254   5.555   2.069  16.261 -1.2765  0.7778 -1.1936
20247LIG     H382255   5.484   1.972  16.391 -0.5314  0.5718 -0.0317
20247LIG     H482256   5.287   2.313  16.207  1.1267  0.1845 -1.3053
20247LIG     H582257   5.442   2.261  16.169 -0.9054 -0.2900 -0.4644
20247LIG     H682258   5.066   2.010  16.160 -0.9849  1.0278 -0.3954
20247LIG     H782259   5.143   2.166  16.127 -1.3798 -1.0678 -1.5266
20247LIG     H882260   5.663   2.131  16.492 -0.3279 -0.1198  0.8415
20247LIG     H982261   5.521   2.190  16.553  3.3308  0.6377  1.1049
20247LIG    H1082262   5.368   2.383  16.438  0.8828  2.6240  0.0367
20247LIG    H1182263   5.461   2.468  16.318 -1.0756  0.6498  0.5675
20247LIG    H1282264   5.643   2.312  16.310 -0.5326  0.5298 -0.4615
20247LIG    H1382265   5.620   2.384  16.474  0.7570 -1.2333  0.5500
20247LIG    H1482266   5.027   2.044  16.411  1.5847 -1.6068 -1.0837
20247LIG    H1582267   5.114   2.197  16.392 -1.2682  1.4112 -0.5853
20247LIG    H1682268   5.069   2.335  16.179 -2.5923 -1.1744 -1.8711
20247LIG    H1782269   5.032   2.388  16.349  0.6931 -0.3987 -0.5119
20247LIG    H1882270   4.859   2.259  16.479  1.0783  1.1226 -0.8227
20247LIG    H1982271   4.791   2.107  16.412  0.3942  0.6836  0.2753
20247LIG    H2082272   5.371   2.102  16.102  1.6977 -0.5460 -0.5952
20247LIG    H2182273   4.859   2.385  16.093 -2.2955  0.4248 -0.3305
20247LIG    H2282274   4.909   2.537  16.169  2.0867 -0.9406  0.1630
20247LIG    H2382275   4.632   2.299  16.384 -0.1403 -1.2837  0.1936
20247LIG    H2482276   4.690   2.229  16.223 -0.8106 -1.0848  0.7526
20247LIG    H2582277   4.681   2.499  16.233 -0.2499 -0.2891  1.0244
20247LIG    H2682278   4.783   2.478  16.375  1.1566  0.0999  0.2380
20247LIG    H2782279   5.235   1.964  16.529  0.8479 -0.1695  0.9419
20247LIG    H2882280   5.242   1.773  16.135  6.4785 -0.1896  1.7714
20247LIG    H2982281   5.196   1.752  16.624  1.7203 -0.4389 -0.0659
20247LIG    H3082282   5.205   1.564  16.236 -1.3721  1.0065 -2.3735
20247LIG    H3182283   5.180   1.555  16.502 -2.7017  0.8296  0.6764
   6.82013   6.82013  17.29240
